/*--------------------------------*- C++ -*----------------------------------*\
| =========                 |                                                 |
| \\      /  F ield         | OpenFOAM: The Open Source CFD Toolbox           |
|  \\    /   O peration     | Version:  2406                                  |
|   \\  /    A nd           | Website:  www.openfoam.com                      |
|    \\/     M anipulation  |                                                 |
\*---------------------------------------------------------------------------*/
FoamFile
{
    version     2.0;
    format      ascii;
    arch        "LSB;label=32;scalar=64";
    class       volVectorField;
    location    "0.07";
    object      U;
}
// * * * * * * * * * * * * * * * * * * * * * * * * * * * * * * * * * * * * * //

dimensions      [0 1 -1 0 0 0 0];

internalField   nonuniform List<vector> 
13946
(
(-1.40442e-12 9.58299e-12 -3.08999e-13)
(-3.78712e-12 7.4845e-12 -8.5152e-12)
(7.27702e-13 6.04446e-12 -9.66568e-12)
(5.47334e-12 6.79691e-12 -6.62371e-12)
(2.97367e-12 7.96208e-12 -1.87684e-12)
(1.49115e-12 4.93076e-12 -1.40648e-12)
(2.74053e-13 3.31987e-12 -3.8685e-12)
(-2.02158e-12 3.72386e-12 -7.66683e-12)
(-2.36381e-12 5.02004e-12 -1.21714e-11)
(-3.13025e-12 7.14972e-12 -1.17465e-11)
(-1.35073e-12 8.51176e-12 -1.04369e-11)
(3.17794e-12 9.83934e-12 -1.18284e-11)
(5.701e-12 1.12525e-11 -1.41659e-11)
(4.70023e-12 9.99365e-12 -2.12859e-11)
(3.41386e-12 1.00689e-11 -2.5935e-11)
(7.72314e-13 7.28433e-12 -2.66064e-11)
(1.05089e-12 7.92867e-12 -2.57609e-11)
(1.49088e-12 6.66941e-12 -2.32301e-11)
(-2.01033e-12 7.67505e-12 -2.13144e-11)
(-1.83016e-12 8.40069e-12 -2.01032e-11)
(-1.61063e-12 7.27563e-12 -1.99998e-11)
(-1.5407e-12 6.14209e-12 -2.12373e-11)
(2.05587e-12 8.21836e-12 -2.2817e-11)
(2.44886e-12 9.10655e-12 -2.64988e-11)
(-8.81013e-13 7.16315e-12 -2.80323e-11)
(-3.72239e-12 5.65769e-12 -2.47415e-11)
(-2.83951e-12 5.79932e-12 -2.45256e-11)
(-2.2887e-12 5.87637e-12 -2.0592e-11)
(-6.66374e-12 6.87946e-12 -1.9605e-11)
(-6.51197e-12 7.64101e-12 -1.71603e-11)
(-3.89889e-12 7.70832e-12 -1.19321e-11)
(-3.14288e-12 5.05424e-12 -9.55661e-12)
(-2.18308e-12 4.43103e-12 -8.11327e-12)
(6.42215e-13 4.87204e-12 -9.3956e-12)
(4.94531e-12 4.61914e-12 -1.21521e-11)
(3.91855e-12 5.4334e-12 -1.03272e-11)
(3.20889e-12 4.55822e-12 -9.6156e-12)
(4.45239e-12 6.12466e-12 -5.09966e-12)
(6.23889e-13 7.15088e-12 -2.09159e-12)
(2.10304e-12 5.28795e-12 2.97945e-12)
(2.15459e-12 5.6441e-12 2.57203e-13)
(2.17064e-12 5.36224e-12 -3.36345e-12)
(3.35826e-12 4.74517e-12 4.61808e-12)
(4.04675e-12 4.8917e-12 9.28314e-12)
(5.40538e-12 4.10093e-12 8.19472e-12)
(3.90669e-12 4.26839e-12 -1.44929e-12)
(5.48242e-12 7.64393e-12 -1.37958e-11)
(3.35281e-12 4.72357e-12 -1.73839e-11)
(-2.09794e-12 5.8903e-12 -1.85909e-11)
(-1.30644e-12 5.35246e-12 -1.64175e-11)
(-1.06029e-12 6.92871e-12 -1.37743e-11)
(-1.19923e-12 5.97908e-12 -1.72554e-11)
(2.15945e-12 5.78079e-12 -1.89527e-11)
(6.0996e-12 5.51884e-12 -1.93423e-11)
(8.38765e-12 7.18748e-12 -2.12918e-11)
(6.49723e-12 6.93473e-12 -2.05975e-11)
(4.60544e-12 7.85643e-12 -1.95838e-11)
(1.98805e-12 6.83283e-12 -2.14677e-11)
(-2.78838e-12 4.14861e-12 -1.54757e-11)
(-4.17775e-12 7.8691e-12 -4.7981e-12)
(-2.26055e-12 6.65532e-12 -4.80315e-14)
(1.93267e-13 5.39903e-12 9.79197e-13)
(-6.31701e-13 5.58251e-12 -6.90871e-13)
(-2.72033e-12 8.01787e-12 -3.71754e-12)
(-4.58195e-12 8.45397e-12 -1.64817e-12)
(-3.54339e-12 1.06852e-11 3.8884e-13)
(-3.53011e-12 1.38137e-11 5.51065e-13)
(-6.28992e-12 1.37834e-11 -4.54139e-13)
(-3.025e-12 1.28993e-11 -1.29556e-12)
(-9.88137e-13 1.32506e-11 -1.21047e-12)
(-1.59755e-12 1.46834e-11 -2.359e-12)
(-3.55482e-13 1.50672e-11 -4.01466e-12)
(-2.54219e-12 1.40904e-11 -3.1115e-13)
(-1.15819e-13 1.50587e-11 -1.2226e-12)
(3.10601e-13 1.5256e-11 2.69128e-12)
(-3.14548e-12 1.39344e-11 7.43413e-12)
(-4.00485e-12 1.36062e-11 6.97661e-12)
(-3.93233e-12 1.20014e-11 5.22885e-12)
(-3.00249e-12 1.33929e-11 1.31463e-12)
(-1.83268e-12 1.1283e-11 5.04656e-12)
(-2.14755e-12 1.09796e-11 2.35078e-12)
(-2.8506e-12 1.17169e-11 -4.74898e-12)
(-1.15693e-12 1.35692e-11 -1.04383e-11)
(-1.1022e-12 1.0499e-11 -1.36351e-11)
(-1.87989e-12 1.27997e-11 -1.64766e-11)
(-3.90662e-12 1.21717e-11 -2.00111e-11)
(2.55682e-12 1.33867e-11 -2.26718e-11)
(5.05188e-12 1.1671e-11 -2.50207e-11)
(6.71274e-13 1.38758e-11 -2.3681e-11)
(-2.73839e-12 1.04314e-11 -1.80057e-11)
(1.92491e-13 1.03883e-11 -1.26607e-11)
(-1.61333e-14 1.18649e-11 -6.48466e-12)
(-6.98479e-13 1.30142e-11 1.88012e-12)
(-9.21173e-13 1.08834e-11 -3.82107e-12)
(9.49414e-13 9.02812e-12 -5.11524e-12)
(3.18406e-12 1.16488e-11 -2.89876e-12)
(3.56448e-12 1.18487e-11 2.04152e-12)
(3.46966e-12 1.15122e-11 9.83081e-13)
(7.07912e-13 1.02708e-11 -1.67681e-12)
(-2.14597e-12 1.05761e-11 -5.54773e-12)
(-3.80959e-12 8.83131e-12 -9.17679e-12)
(-2.54047e-12 1.06597e-11 -8.45302e-12)
(-3.88428e-13 9.07122e-12 -5.29963e-12)
(1.8291e-12 1.10959e-11 -8.15572e-12)
(3.96388e-12 1.4705e-11 -1.39183e-11)
(4.86341e-12 1.28207e-11 -1.70093e-11)
(4.76123e-12 1.1293e-11 -2.01196e-11)
(1.9371e-12 1.051e-11 -2.356e-11)
(1.19871e-12 6.97117e-12 -2.50051e-11)
(1.93457e-14 6.81943e-12 -2.24145e-11)
(-2.34308e-12 7.86724e-12 -2.08942e-11)
(-1.08193e-12 7.09602e-12 -2.03718e-11)
(-9.33021e-13 7.98234e-12 -2.00302e-11)
(-1.78003e-12 8.07388e-12 -2.01446e-11)
(-1.20126e-14 7.07982e-12 -2.00741e-11)
(2.0806e-12 9.31641e-12 -2.05754e-11)
(1.43454e-12 9.24354e-12 -2.09978e-11)
(-1.50615e-12 9.4427e-12 -1.68062e-11)
(-2.86953e-12 7.55369e-12 -1.67087e-11)
(-4.45896e-12 1.07865e-11 -1.75905e-11)
(-5.9294e-12 1.13953e-11 -1.8484e-11)
(-4.82369e-12 7.12702e-12 -1.73679e-11)
(-3.44196e-12 7.65296e-12 -1.13677e-11)
(-2.19506e-12 4.34543e-12 -8.58822e-12)
(-1.38612e-12 1.61032e-12 -6.68835e-12)
(1.19743e-12 8.47128e-13 -6.66493e-12)
(2.69964e-12 2.5223e-12 -3.92485e-12)
(2.2792e-12 7.10436e-12 -1.51556e-12)
(2.40051e-12 5.33367e-12 -1.03703e-12)
(1.69496e-12 8.52118e-12 2.14027e-12)
(1.22595e-12 9.00862e-12 5.57596e-12)
(2.37667e-12 6.96598e-12 9.7178e-12)
(3.00543e-12 7.11397e-12 7.35542e-12)
(3.27775e-12 4.69704e-12 3.51637e-12)
(2.70107e-12 8.75113e-12 1.11306e-11)
(4.16467e-12 1.01419e-11 1.50679e-11)
(5.5195e-12 8.8403e-12 1.41459e-11)
(3.68234e-12 6.89136e-12 2.92031e-12)
(5.55593e-12 7.3356e-12 -1.22381e-11)
(3.05978e-12 9.67048e-12 -1.91215e-11)
(3.8877e-13 6.86437e-12 -2.29761e-11)
(-2.90485e-13 3.40107e-12 -2.00739e-11)
(-1.08991e-12 5.44476e-12 -1.77687e-11)
(1.86822e-13 3.17203e-12 -1.85503e-11)
(2.71765e-12 4.4155e-12 -1.94869e-11)
(4.20093e-12 3.92445e-12 -1.91918e-11)
(5.3358e-12 7.80696e-12 -2.39313e-11)
(5.36421e-12 1.0826e-11 -2.27464e-11)
(5.24708e-12 1.00939e-11 -2.05659e-11)
(4.43218e-12 7.83037e-12 -1.97317e-11)
(-1.642e-12 6.74094e-12 -1.13973e-11)
(-3.50958e-12 8.35238e-12 -1.53817e-12)
(-3.0278e-13 5.92811e-12 5.08225e-12)
(-7.67569e-13 6.45456e-12 5.77583e-12)
(-2.668e-12 8.51815e-12 2.48129e-12)
(-4.18044e-12 8.62181e-12 -2.94311e-12)
(-5.08385e-12 1.08839e-11 -1.03074e-13)
(-5.92899e-12 1.12249e-11 2.28368e-12)
(-4.83198e-12 1.29681e-11 1.19806e-12)
(-4.81933e-12 1.18607e-11 -3.67356e-13)
(-2.92186e-12 1.27404e-11 -9.70391e-13)
(-2.35154e-12 1.48266e-11 2.70633e-13)
(-1.81693e-12 1.44345e-11 -1.3188e-12)
(4.02596e-13 1.64708e-11 -4.34185e-12)
(-7.90971e-13 1.62767e-11 -2.33266e-12)
(2.20688e-13 1.22275e-11 -3.97254e-12)
(6.88978e-13 1.65998e-11 3.20687e-12)
(-3.08226e-12 1.40853e-11 1.09398e-11)
(-3.32059e-12 1.29436e-11 1.16415e-11)
(-4.47269e-12 9.18982e-12 7.318e-12)
(-3.43998e-12 9.87127e-12 3.87788e-12)
(-1.56399e-12 9.523e-12 6.42309e-12)
(-2.02088e-12 1.43298e-11 4.43994e-12)
(-3.31378e-12 1.31011e-11 -4.47648e-12)
(-1.97919e-12 1.72991e-11 -1.08533e-11)
(-4.30319e-13 1.37048e-11 -1.39664e-11)
(-2.27939e-12 1.19295e-11 -1.62571e-11)
(-2.61881e-12 1.14163e-11 -2.05786e-11)
(2.37846e-12 1.00064e-11 -2.35736e-11)
(3.14795e-12 1.18511e-11 -2.62461e-11)
(1.62475e-12 1.30378e-11 -2.52199e-11)
(3.17233e-13 9.89276e-12 -1.78338e-11)
(-1.72241e-12 9.36369e-12 -1.24434e-11)
(-2.45809e-12 1.04212e-11 -1.10878e-11)
(-4.47731e-13 1.45475e-11 6.47614e-12)
(-2.15191e-12 1.55217e-11 2.48074e-12)
(9.23474e-13 1.56704e-11 -1.36648e-12)
(4.10729e-12 1.63186e-11 -6.61738e-13)
(4.03061e-12 1.46969e-11 6.81652e-13)
(3.11603e-12 1.5343e-11 2.13748e-12)
(1.22213e-12 1.55125e-11 5.69573e-13)
(-1.76291e-13 1.55079e-11 -2.2284e-12)
(-2.37086e-12 1.35082e-11 -4.75043e-12)
(-2.56276e-12 9.70915e-12 -6.74919e-12)
(-1.50131e-12 1.06105e-11 -5.15576e-12)
(-5.56888e-13 1.2053e-11 -1.20395e-11)
(3.71018e-12 1.30217e-11 -1.80696e-11)
(5.72972e-12 1.35564e-11 -1.93356e-11)
(4.46143e-12 1.46034e-11 -1.92523e-11)
(3.43152e-12 1.49828e-11 -2.03511e-11)
(3.08733e-12 1.07007e-11 -2.22315e-11)
(3.74348e-13 8.97966e-12 -2.10528e-11)
(-1.70189e-12 9.27234e-12 -2.03419e-11)
(-1.48694e-12 9.21937e-12 -2.1294e-11)
(-2.47341e-12 9.85187e-12 -2.01946e-11)
(-1.3618e-12 9.97169e-12 -2.04214e-11)
(6.34593e-13 8.55515e-12 -1.48801e-11)
(1.05392e-12 9.30999e-12 -1.25008e-11)
(-5.74295e-13 9.29485e-12 -1.22644e-11)
(-3.05823e-12 1.06197e-11 -1.06542e-11)
(-4.56545e-12 1.04264e-11 -1.23327e-11)
(-4.63553e-12 1.30382e-11 -1.36534e-11)
(-3.56384e-12 1.13811e-11 -1.81342e-11)
(-3.77573e-12 9.30117e-12 -1.54547e-11)
(-3.38199e-12 1.09409e-11 -1.07792e-11)
(-3.5514e-13 8.91438e-12 -7.75335e-12)
(-8.61006e-13 6.16595e-12 -3.4496e-12)
(-5.59764e-13 6.30364e-12 1.04396e-12)
(7.95056e-13 8.95129e-12 5.89409e-12)
(1.44387e-12 1.015e-11 7.45575e-12)
(1.86649e-12 1.15621e-11 3.70395e-12)
(2.32517e-12 1.24652e-11 4.15293e-12)
(2.53943e-12 1.10258e-11 9.51495e-12)
(2.49385e-12 9.40639e-12 1.29496e-11)
(2.75933e-12 9.76047e-12 1.15487e-11)
(1.07925e-12 8.79778e-12 9.34513e-12)
(9.63677e-13 1.29716e-11 9.96427e-12)
(3.85443e-12 1.12486e-11 1.17681e-11)
(5.9327e-12 1.24256e-11 1.12277e-11)
(4.2455e-12 1.1935e-11 1.81117e-12)
(5.21348e-12 1.23351e-11 -1.11351e-11)
(4.36601e-12 1.44711e-11 -1.85859e-11)
(1.9218e-12 1.14001e-11 -2.24414e-11)
(4.34065e-13 7.61556e-12 -2.16981e-11)
(-2.93291e-13 5.01469e-12 -1.98508e-11)
(9.34072e-13 7.84641e-12 -2.02661e-11)
(2.65571e-12 8.85265e-12 -2.08391e-11)
(2.98822e-12 8.81889e-12 -2.04492e-11)
(3.84329e-12 8.90973e-12 -2.28181e-11)
(5.55419e-12 1.0979e-11 -2.57039e-11)
(6.47765e-12 1.01343e-11 -2.07493e-11)
(4.52575e-12 9.6851e-12 -1.4795e-11)
(-2.95299e-12 7.27772e-12 -7.97735e-12)
(-3.49489e-12 8.41716e-12 6.45492e-13)
(-4.94768e-13 8.04271e-12 3.93167e-12)
(-1.3785e-12 8.31266e-12 3.58419e-12)
(-2.50122e-12 9.40982e-12 -5.65627e-14)
(-4.65507e-12 1.13128e-11 -4.49639e-12)
(-6.00041e-12 1.33387e-11 -3.89381e-12)
(-5.56963e-12 1.30454e-11 -1.34127e-12)
(-3.90943e-12 1.06993e-11 5.92245e-13)
(-5.92983e-12 1.09628e-11 -9.55001e-13)
(-5.32085e-12 1.35496e-11 -1.97374e-12)
(-1.87158e-12 1.40961e-11 -3.66505e-12)
(-2.11027e-12 1.66275e-11 -4.15809e-12)
(-8.87912e-13 1.72294e-11 -6.25507e-12)
(1.638e-12 1.56265e-11 -5.32249e-12)
(1.09391e-12 1.20859e-11 -3.58764e-12)
(-7.66547e-13 1.44782e-11 1.56864e-12)
(-1.76075e-12 1.68574e-11 7.39557e-12)
(-1.8526e-12 1.29199e-11 7.23922e-12)
(-2.35426e-12 8.89228e-12 3.63525e-12)
(-3.53295e-12 6.56014e-12 -7.09851e-13)
(-4.47033e-12 6.96708e-12 -5.00482e-13)
(-4.00989e-12 1.02577e-11 -2.19681e-12)
(-4.43266e-12 1.42633e-11 -8.20502e-12)
(-2.02976e-12 1.44789e-11 -1.40286e-11)
(1.64975e-12 1.42762e-11 -1.5817e-11)
(-8.01e-13 1.21344e-11 -1.50089e-11)
(-1.93776e-12 1.15566e-11 -1.98128e-11)
(2.4448e-12 1.09265e-11 -2.38129e-11)
(2.53289e-12 8.81584e-12 -2.34623e-11)
(2.0746e-12 8.86683e-12 -2.11141e-11)
(4.78335e-13 8.79987e-12 -1.49364e-11)
(-1.29729e-12 8.87995e-12 -1.11106e-11)
(-1.57232e-12 6.49421e-12 -9.83603e-12)
(3.5876e-12 1.6952e-11 1.70469e-12)
(-2.27006e-13 1.78956e-11 5.51237e-12)
(-2.24165e-12 1.86036e-11 6.80063e-12)
(-3.82295e-13 1.78186e-11 2.39156e-12)
(4.01313e-12 1.60754e-11 5.69268e-13)
(4.78513e-12 1.56119e-11 1.14953e-12)
(2.52055e-12 1.53821e-11 2.02757e-12)
(2.26715e-13 1.55339e-11 2.84256e-12)
(-6.36992e-13 1.46541e-11 1.36444e-12)
(7.82929e-13 1.52834e-11 -1.54932e-12)
(-1.07515e-12 1.39036e-11 -6.34937e-12)
(-3.09167e-12 1.25426e-11 -8.55462e-12)
(-1.24691e-13 1.16124e-11 -1.71401e-11)
(2.51983e-12 8.96254e-12 -2.09386e-11)
(3.13018e-12 1.01882e-11 -1.94087e-11)
(3.59757e-12 1.19528e-11 -1.76192e-11)
(5.39206e-12 1.31082e-11 -1.7061e-11)
(5.96164e-12 1.3741e-11 -1.85341e-11)
(7.15991e-13 1.28984e-11 -1.85777e-11)
(-2.70839e-12 1.06982e-11 -1.86411e-11)
(-1.46871e-12 1.04631e-11 -2.25868e-11)
(-1.77938e-12 1.18845e-11 -1.95407e-11)
(-5.56207e-13 1.02233e-11 -1.78708e-11)
(1.70173e-12 1.2654e-11 -1.13149e-11)
(2.25166e-12 1.41181e-11 -7.06887e-12)
(6.15952e-13 1.54085e-11 -7.35417e-12)
(-2.01418e-12 1.38177e-11 -5.66941e-12)
(-5.23982e-12 1.33723e-11 -9.45881e-12)
(-6.10611e-12 1.16499e-11 -1.13808e-11)
(-3.85695e-12 1.10699e-11 -1.27515e-11)
(-5.43518e-12 1.15533e-11 -1.08107e-11)
(-3.99717e-12 1.15685e-11 -6.84013e-12)
(4.69664e-13 1.04084e-11 -3.54937e-12)
(1.59963e-12 1.0279e-11 1.75866e-13)
(-2.10574e-13 1.11812e-11 5.39199e-12)
(2.83069e-13 1.07291e-11 1.14083e-11)
(9.09611e-14 1.28663e-11 1.04263e-11)
(6.62582e-13 1.22725e-11 2.76044e-12)
(2.08034e-12 1.44734e-11 3.38103e-12)
(3.50122e-12 1.32828e-11 7.72093e-12)
(2.63234e-12 1.4033e-11 1.1273e-11)
(3.48604e-12 1.43836e-11 1.35165e-11)
(4.81584e-13 1.45289e-11 1.08533e-11)
(1.24293e-12 1.43905e-11 9.6854e-12)
(3.91623e-12 1.43735e-11 1.10095e-11)
(3.54617e-12 1.68799e-11 9.35134e-12)
(2.43051e-12 1.71647e-11 -4.21868e-14)
(3.10406e-12 1.37033e-11 -1.03812e-11)
(4.81768e-12 1.39499e-11 -1.85299e-11)
(4.68149e-12 1.24921e-11 -2.25049e-11)
(4.14137e-12 1.04201e-11 -2.24465e-11)
(-6.88544e-13 8.72359e-12 -2.04584e-11)
(-1.44887e-12 9.48519e-12 -2.14856e-11)
(2.39436e-12 1.06144e-11 -2.19923e-11)
(4.39531e-12 1.2373e-11 -2.04163e-11)
(4.35436e-12 1.06693e-11 -2.23684e-11)
(5.03507e-12 9.60809e-12 -2.68976e-11)
(6.41614e-12 1.22374e-11 -2.28374e-11)
(5.92462e-12 1.28975e-11 -1.38792e-11)
(-1.33497e-12 1.08983e-11 -6.96174e-12)
(-3.35172e-12 7.0981e-12 -2.15409e-12)
(-6.64004e-13 8.744e-12 3.23865e-13)
(-1.56736e-12 9.37905e-12 4.38768e-12)
(-4.43977e-12 1.07662e-11 -8.33615e-14)
(-6.67737e-12 1.41532e-11 -5.1647e-12)
(-6.00045e-12 1.26947e-11 -5.80851e-12)
(-4.31549e-12 1.33397e-11 -4.4384e-12)
(-2.87033e-12 1.38362e-11 -4.19877e-12)
(-6.85802e-12 1.5724e-11 -2.703e-12)
(-5.83775e-12 1.52109e-11 -3.71565e-12)
(-3.89586e-12 1.46191e-11 -6.62005e-12)
(-3.52484e-12 1.58736e-11 -6.55204e-12)
(1.76679e-12 1.51273e-11 -6.70958e-12)
(3.44318e-12 1.23371e-11 -6.03767e-12)
(1.99652e-12 1.32191e-11 -4.17401e-12)
(-2.10536e-12 1.17373e-11 -9.35166e-13)
(-1.35603e-12 1.39826e-11 2.89213e-12)
(1.84509e-12 1.2107e-11 4.6469e-12)
(-5.73852e-13 1.12635e-11 -3.46177e-12)
(-2.6424e-12 1.14383e-11 -1.07968e-11)
(-4.25823e-12 1.05044e-11 -1.14883e-11)
(-6.08143e-12 9.4783e-12 -1.21713e-11)
(-5.70567e-12 9.90812e-12 -1.46788e-11)
(-2.43322e-12 9.35953e-12 -1.74052e-11)
(-8.39812e-14 9.96956e-12 -1.76635e-11)
(-4.81035e-13 1.04684e-11 -1.6461e-11)
(-5.6081e-13 8.78468e-12 -2.02587e-11)
(4.05811e-12 9.37289e-12 -2.31107e-11)
(4.50643e-12 8.79237e-12 -1.96154e-11)
(1.51254e-12 1.00299e-11 -1.59509e-11)
(6.3229e-13 9.88005e-12 -1.15631e-11)
(-5.15546e-13 6.46389e-12 -9.86289e-12)
(-1.35171e-12 9.03006e-12 -9.07815e-12)
(-4.02468e-12 7.55717e-12 -7.40252e-12)
(6.20294e-13 1.44803e-11 -3.48119e-12)
(-2.5187e-12 1.75623e-11 3.44399e-12)
(-1.52772e-12 1.67784e-11 8.57721e-12)
(2.14521e-12 1.62136e-11 4.70276e-12)
(5.48393e-12 1.40852e-11 8.67166e-13)
(4.36655e-12 1.40153e-11 1.60165e-12)
(2.72169e-12 1.58624e-11 2.59182e-12)
(1.52068e-12 1.50204e-11 4.41701e-12)
(1.80435e-13 1.33548e-11 2.00342e-12)
(-1.90567e-12 1.26577e-11 -1.40638e-12)
(-1.08596e-12 1.32461e-11 -6.73731e-12)
(-1.12245e-13 1.06805e-11 -1.4409e-11)
(2.58399e-12 8.6114e-12 -2.02923e-11)
(4.06532e-12 7.82646e-12 -2.11435e-11)
(3.06835e-12 8.13713e-12 -1.77183e-11)
(2.51369e-12 1.04765e-11 -1.43e-11)
(3.82156e-12 1.14765e-11 -1.26184e-11)
(4.26634e-12 1.27305e-11 -1.39975e-11)
(2.58541e-12 1.41121e-11 -1.48203e-11)
(-4.91027e-13 1.12034e-11 -1.62398e-11)
(-2.89238e-12 9.78238e-12 -1.84425e-11)
(-2.36446e-12 1.10489e-11 -1.56965e-11)
(-3.66562e-13 9.93514e-12 -1.07899e-11)
(8.78751e-15 1.22299e-11 -6.28654e-12)
(-1.71193e-13 1.47993e-11 -4.93388e-12)
(5.97826e-13 1.62261e-11 -4.74355e-12)
(3.19642e-13 1.48679e-11 -6.31271e-12)
(-2.62118e-12 1.22867e-11 -7.34369e-12)
(-3.29903e-12 7.65652e-12 -6.708e-12)
(-2.30446e-12 6.74854e-12 -4.37816e-12)
(-3.32879e-12 7.58285e-12 -2.64515e-12)
(-1.5889e-12 7.32318e-12 -7.15539e-13)
(-7.51027e-13 6.81223e-12 2.09247e-12)
(-1.48371e-12 9.45092e-12 2.67973e-12)
(-2.31613e-14 9.79901e-12 5.57704e-12)
(-3.77723e-13 1.23026e-11 7.50469e-12)
(-1.08981e-13 1.32668e-11 4.78139e-12)
(6.3005e-13 1.18422e-11 3.34282e-12)
(1.38643e-12 1.05445e-11 2.60508e-12)
(2.47986e-12 1.40323e-11 6.10238e-12)
(2.07075e-12 1.82423e-11 8.37709e-12)
(2.53106e-12 1.76154e-11 8.57272e-12)
(5.30751e-13 1.65013e-11 9.78919e-12)
(-6.14533e-14 1.30588e-11 7.96167e-12)
(1.92031e-12 1.4491e-11 7.21712e-12)
(2.69311e-12 1.53494e-11 3.82695e-12)
(4.14489e-12 1.57447e-11 -2.07757e-12)
(5.32374e-12 1.25614e-11 -1.1018e-11)
(5.46063e-12 1.13831e-11 -2.08752e-11)
(4.65814e-12 1.06085e-11 -2.51082e-11)
(3.36132e-12 9.46854e-12 -2.35286e-11)
(5.96947e-13 1.03697e-11 -2.27157e-11)
(-2.24715e-13 7.54462e-12 -2.19178e-11)
(1.11499e-12 7.96365e-12 -2.33726e-11)
(3.31865e-12 9.54433e-12 -2.2979e-11)
(5.41344e-12 1.06246e-11 -2.58758e-11)
(4.59327e-12 1.07247e-11 -2.59659e-11)
(5.10686e-12 1.22979e-11 -2.23595e-11)
(6.36819e-12 1.19395e-11 -1.42695e-11)
(1.6267e-12 1.33371e-11 -7.15531e-12)
(-1.89576e-12 8.08543e-12 -4.31114e-12)
(-3.00797e-12 9.91505e-12 -1.24517e-12)
(-2.85797e-12 1.03163e-11 1.968e-12)
(-5.26996e-12 1.0408e-11 1.89195e-12)
(-5.39485e-12 1.00086e-11 -4.05119e-12)
(-5.59423e-12 1.11585e-11 -6.64457e-12)
(-5.56315e-12 1.30095e-11 -5.37729e-12)
(-6.02426e-12 1.41818e-11 -6.84346e-12)
(-7.31291e-12 1.58638e-11 -5.49049e-12)
(-4.57155e-12 1.439e-11 -6.69977e-12)
(-2.74417e-12 1.52293e-11 -6.44954e-12)
(-2.09767e-12 1.44588e-11 -8.18429e-12)
(1.5718e-12 1.23778e-11 -7.41691e-12)
(2.39221e-12 1.27741e-11 -6.37707e-12)
(1.10195e-12 1.36314e-11 -6.60759e-12)
(-6.6496e-13 1.37295e-11 -5.37836e-12)
(-2.83543e-13 1.1694e-11 -4.05083e-12)
(1.16511e-12 1.21368e-11 -3.71757e-12)
(-1.69307e-12 1.24293e-11 -1.12204e-11)
(-3.2833e-12 1.36235e-11 -1.76726e-11)
(-3.23601e-12 1.28325e-11 -1.89582e-11)
(-4.05455e-12 1.13787e-11 -1.80952e-11)
(-4.11308e-12 8.7053e-12 -2.05556e-11)
(-1.1716e-12 6.12333e-12 -2.14958e-11)
(1.31822e-12 6.37425e-12 -2.12537e-11)
(2.8598e-13 7.09219e-12 -1.75284e-11)
(-1.131e-12 6.03838e-12 -1.93227e-11)
(1.64981e-12 6.05374e-12 -1.80883e-11)
(2.16776e-12 1.03266e-11 -1.47615e-11)
(1.14287e-12 7.55708e-12 -1.16041e-11)
(2.30221e-12 8.78939e-12 -8.44654e-12)
(-3.24675e-13 7.20025e-12 -6.84627e-12)
(-1.75321e-12 8.74567e-12 -5.59829e-12)
(-4.59913e-14 7.93313e-12 -4.12453e-12)
(-1.57365e-12 1.06276e-11 -7.57267e-12)
(-2.35251e-12 1.36133e-11 1.31524e-13)
(-1.64302e-12 1.38673e-11 7.32848e-12)
(2.62192e-12 1.27948e-11 6.78466e-12)
(6.0027e-12 1.36733e-11 4.73978e-12)
(3.24414e-12 1.47756e-11 2.18873e-12)
(1.62538e-12 1.65844e-11 8.05195e-13)
(2.58354e-12 1.69144e-11 2.34574e-12)
(1.97738e-12 1.41979e-11 2.0025e-12)
(5.86886e-13 1.11507e-11 2.35306e-12)
(-2.63868e-13 8.95075e-12 -5.11734e-12)
(1.17562e-13 5.9959e-12 -1.67727e-11)
(2.6519e-12 5.6368e-12 -2.17734e-11)
(2.87758e-12 7.19321e-12 -2.33201e-11)
(9.80923e-13 9.00716e-12 -2.1294e-11)
(1.5884e-12 1.1401e-11 -1.70948e-11)
(4.0248e-12 9.7456e-12 -1.31039e-11)
(3.50815e-12 8.77516e-12 -1.13959e-11)
(1.82576e-12 1.02007e-11 -1.14926e-11)
(-7.19367e-14 1.04691e-11 -1.20964e-11)
(-3.97338e-13 1.12429e-11 -1.56186e-11)
(-1.3043e-12 9.43857e-12 -1.15645e-11)
(-1.00549e-12 8.70169e-12 -6.35425e-12)
(-7.55364e-13 1.09579e-11 -3.2912e-12)
(2.1442e-13 1.31036e-11 -3.48299e-12)
(1.13135e-12 1.27228e-11 -5.47711e-12)
(1.31913e-12 1.25776e-11 -7.5402e-12)
(5.29575e-13 1.04938e-11 -6.39811e-12)
(-1.2246e-12 4.77572e-12 -1.16619e-12)
(-2.55455e-12 2.67343e-12 4.31063e-12)
(-4.85579e-12 4.61637e-12 5.52046e-12)
(-2.65757e-12 5.96156e-12 6.72711e-12)
(-2.15599e-12 8.52095e-12 7.50009e-12)
(-1.14161e-12 9.10447e-12 7.50236e-12)
(-6.97328e-13 9.54975e-12 4.94967e-12)
(-2.52278e-12 1.05196e-11 6.41456e-13)
(-1.91238e-13 1.02162e-11 -3.97138e-12)
(2.04891e-12 9.99245e-12 -3.1455e-12)
(7.87085e-13 1.04023e-11 -4.29676e-12)
(-1.90053e-12 1.31372e-11 -2.77414e-12)
(9.38511e-13 1.72033e-11 -4.89826e-13)
(4.02098e-12 1.58674e-11 1.80693e-12)
(2.51099e-12 1.33081e-11 4.24961e-12)
(1.407e-12 1.14603e-11 3.89419e-12)
(1.72949e-12 1.16629e-11 3.87254e-12)
(2.24313e-12 1.15997e-11 9.56389e-13)
(3.67475e-12 1.27298e-11 -4.33143e-12)
(5.08829e-12 1.03234e-11 -1.11173e-11)
(5.83162e-12 9.18025e-12 -1.94407e-11)
(6.23299e-12 1.0395e-11 -2.58305e-11)
(3.92092e-12 8.21499e-12 -2.49256e-11)
(1.3365e-12 1.03316e-11 -2.33057e-11)
(9.33585e-13 9.01081e-12 -2.25068e-11)
(7.89092e-13 6.12364e-12 -2.36158e-11)
(1.33907e-12 6.12221e-12 -2.44526e-11)
(1.66675e-12 1.09365e-11 -2.82808e-11)
(3.93057e-12 1.37189e-11 -2.8337e-11)
(6.55872e-12 1.29026e-11 -2.50381e-11)
(5.59885e-12 1.12207e-11 -1.60052e-11)
(2.13149e-12 1.22344e-11 -7.7797e-12)
(-3.94978e-13 8.72839e-12 -5.08393e-12)
(-3.02381e-12 8.79845e-12 -2.27069e-12)
(-2.51898e-12 8.47405e-12 -3.37872e-14)
(-4.13611e-12 9.13115e-12 8.03363e-13)
(-6.34111e-12 7.37742e-12 -2.48822e-12)
(-8.15034e-12 9.61503e-12 -4.44149e-12)
(-5.26325e-12 1.09405e-11 -3.60743e-12)
(-5.24782e-12 1.22154e-11 -3.21308e-12)
(-7.24589e-12 1.1473e-11 -5.02141e-12)
(-5.39307e-12 1.21313e-11 -6.35951e-12)
(-4.12925e-12 1.51101e-11 -8.45547e-12)
(-1.67672e-13 1.57928e-11 -9.75149e-12)
(3.04204e-12 1.22359e-11 -7.59101e-12)
(2.23969e-12 1.15699e-11 -6.31972e-12)
(1.28955e-12 1.09898e-11 -9.29033e-12)
(-2.92145e-13 1.1364e-11 -1.21967e-11)
(-1.41612e-14 1.03168e-11 -1.12948e-11)
(6.41197e-13 8.25072e-12 -8.27074e-12)
(-3.37154e-12 9.42637e-12 -1.27086e-11)
(-3.5193e-12 1.00736e-11 -1.74353e-11)
(-2.67018e-12 9.24216e-12 -1.76362e-11)
(-3.01734e-12 7.99332e-12 -1.93037e-11)
(-1.48399e-12 5.87971e-12 -1.92474e-11)
(4.90322e-14 3.32237e-12 -1.92482e-11)
(-4.28258e-13 6.44495e-12 -1.76105e-11)
(-3.28736e-13 9.07712e-12 -1.60103e-11)
(-5.24143e-13 7.10268e-12 -1.52569e-11)
(2.29848e-13 7.91226e-12 -1.20721e-11)
(3.56349e-12 7.99189e-12 -9.6357e-12)
(3.06414e-12 6.14022e-12 -8.30999e-12)
(1.52251e-12 6.49037e-12 -6.00036e-12)
(8.35654e-13 8.46015e-12 -3.34876e-12)
(-2.41556e-12 6.76892e-12 -1.89497e-13)
(-1.98382e-12 8.33819e-12 3.06485e-12)
(-3.86591e-12 1.2857e-11 -1.00463e-11)
(-4.25711e-12 1.24376e-11 -3.10243e-12)
(-1.04335e-12 1.3573e-11 5.79655e-12)
(3.06927e-12 1.37925e-11 8.39954e-12)
(3.9839e-12 1.49527e-11 7.48715e-12)
(2.43859e-12 1.60531e-11 1.69001e-12)
(1.50192e-12 1.32544e-11 -2.02078e-12)
(3.00759e-12 1.57409e-11 -1.67686e-12)
(4.09179e-12 1.23806e-11 2.17024e-12)
(2.34079e-12 1.22667e-11 6.85088e-12)
(2.43693e-12 9.16726e-12 -2.75073e-12)
(1.08197e-12 5.94087e-12 -1.42272e-11)
(1.55535e-12 9.25964e-12 -2.11195e-11)
(5.10012e-13 9.79704e-12 -2.4042e-11)
(-9.30605e-13 1.08896e-11 -2.32228e-11)
(2.40139e-12 8.76744e-12 -1.69726e-11)
(6.22423e-12 9.88127e-12 -9.46225e-12)
(2.49535e-12 1.15872e-11 -5.9634e-12)
(1.14253e-12 1.34351e-11 -4.064e-12)
(-1.39753e-12 1.35898e-11 -7.43995e-12)
(-3.4431e-13 1.31994e-11 -1.21469e-11)
(1.40364e-12 1.21129e-11 -8.98295e-12)
(-1.05846e-12 1.27483e-11 -5.1272e-12)
(-2.55253e-12 1.57245e-11 -2.76374e-12)
(-5.58569e-13 1.73888e-11 -2.7367e-12)
(1.31564e-12 1.69606e-11 -5.48546e-12)
(9.35493e-13 1.48444e-11 -6.49452e-12)
(2.54848e-12 1.17338e-11 -6.55344e-12)
(2.96734e-12 8.21759e-12 2.20125e-12)
(-2.06736e-12 7.63116e-12 1.15697e-11)
(-4.69414e-12 8.06937e-12 1.3863e-11)
(-4.24566e-12 7.2363e-12 1.20083e-11)
(-2.9619e-12 8.74215e-12 1.15606e-11)
(-2.46921e-12 8.79062e-12 1.15077e-11)
(-1.47458e-12 1.21581e-11 5.90241e-12)
(-1.68378e-12 1.27894e-11 -2.36937e-12)
(3.2236e-13 1.22695e-11 -8.87672e-12)
(1.7309e-13 1.17715e-11 -8.58157e-12)
(-1.64848e-12 1.34518e-11 -9.83526e-12)
(-2.16566e-12 1.23371e-11 -1.00212e-11)
(1.21724e-13 1.45141e-11 -5.39826e-12)
(5.19405e-12 1.30514e-11 -6.66318e-13)
(2.95786e-12 1.60175e-11 -4.09729e-13)
(2.02699e-12 1.52114e-11 -3.91938e-13)
(2.13857e-12 1.65877e-11 -6.30577e-13)
(2.66274e-12 1.61091e-11 -2.26986e-12)
(4.73379e-12 1.63356e-11 -6.56831e-12)
(7.26694e-12 1.30245e-11 -1.03945e-11)
(4.74427e-12 9.95527e-12 -1.58585e-11)
(5.59322e-12 9.13608e-12 -2.22034e-11)
(3.58031e-12 1.01007e-11 -2.16884e-11)
(8.66719e-13 9.19747e-12 -2.3125e-11)
(3.01473e-12 8.93165e-12 -2.26003e-11)
(3.01307e-12 7.98011e-12 -1.97242e-11)
(-1.92245e-12 9.25642e-12 -2.33869e-11)
(-2.21036e-12 1.18759e-11 -2.90446e-11)
(2.70091e-12 1.30056e-11 -2.9786e-11)
(8.03948e-12 1.35297e-11 -2.59625e-11)
(7.96731e-12 1.41024e-11 -1.58805e-11)
(3.24196e-12 1.50086e-11 -7.90128e-12)
(-1.18926e-12 1.36676e-11 -5.26764e-12)
(-3.36772e-12 1.40503e-11 -3.32263e-12)
(-3.49595e-12 1.43109e-11 -1.89867e-12)
(-4.5638e-12 1.41153e-11 -1.6118e-12)
(-5.56086e-12 1.29599e-11 -3.10483e-12)
(-6.81337e-12 1.26769e-11 -2.9538e-12)
(-6.85023e-12 1.28107e-11 -4.38633e-13)
(-5.14235e-12 1.44629e-11 2.63398e-12)
(-7.07104e-12 1.10588e-11 -1.84591e-12)
(-6.80102e-12 9.80544e-12 -5.91458e-12)
(-5.32865e-12 1.32467e-11 -1.01676e-11)
(1.95391e-14 1.24971e-11 -1.31591e-11)
(3.97259e-12 1.30704e-11 -1.09869e-11)
(2.45366e-12 1.38323e-11 -1.01871e-11)
(1.17453e-12 1.34314e-11 -1.22544e-11)
(-1.08122e-12 1.14676e-11 -1.6037e-11)
(1.21122e-12 1.23704e-11 -1.6661e-11)
(2.16034e-12 1.1817e-11 -1.31533e-11)
(-2.18894e-12 1.03879e-11 -1.41397e-11)
(-3.06519e-12 7.95713e-12 -1.62235e-11)
(-2.34765e-12 7.69581e-12 -1.55759e-11)
(-2.02289e-12 8.43532e-12 -1.57005e-11)
(-2.21597e-13 6.50766e-12 -1.50678e-11)
(-1.49644e-12 5.71978e-12 -1.42195e-11)
(-3.94056e-12 6.91313e-12 -1.40873e-11)
(4.17977e-13 5.94116e-12 -1.359e-11)
(6.51083e-13 4.74185e-12 -1.13678e-11)
(5.01655e-13 4.62215e-12 -8.58628e-12)
(3.45329e-12 6.81038e-12 -6.12919e-12)
(2.94376e-12 1.07732e-11 -4.80307e-12)
(1.60427e-12 1.02026e-11 -3.25688e-12)
(-1.05571e-12 1.12072e-11 -6.65944e-13)
(-2.28105e-12 9.35477e-12 5.63653e-12)
(5.36616e-13 7.44792e-12 9.33532e-12)
(-1.57073e-12 1.88475e-11 -1.18258e-11)
(-1.81449e-12 1.30655e-11 -5.94911e-12)
(-2.86566e-12 1.1362e-11 1.70444e-12)
(1.32114e-12 1.25356e-11 4.32592e-12)
(4.49678e-12 1.51598e-11 3.69173e-12)
(4.75023e-12 1.47783e-11 5.55441e-13)
(9.03973e-13 1.39196e-11 -1.04496e-12)
(2.77927e-12 1.57122e-11 -1.22485e-12)
(4.98773e-12 1.51083e-11 1.3841e-13)
(3.41603e-12 1.40487e-11 1.73339e-12)
(2.93166e-12 1.42069e-11 -3.74348e-12)
(-1.613e-12 1.32466e-11 -1.15345e-11)
(-1.40522e-12 1.11489e-11 -1.72358e-11)
(-5.44967e-13 1.14823e-11 -1.97035e-11)
(1.39309e-12 1.17901e-11 -1.67678e-11)
(3.03537e-12 9.15858e-12 -7.50332e-12)
(1.08745e-12 1.20016e-11 -2.68714e-12)
(-8.60955e-13 1.46174e-11 1.3074e-12)
(-7.40662e-13 1.71429e-11 7.07787e-13)
(1.80133e-12 1.7302e-11 -1.8246e-12)
(1.35239e-12 1.47489e-11 -4.1921e-12)
(-1.29256e-12 1.52435e-11 -3.69911e-12)
(-4.57796e-12 1.7477e-11 -3.20079e-12)
(-4.78103e-12 2.10559e-11 -2.79927e-12)
(-5.86574e-13 2.1761e-11 -2.97808e-12)
(3.81954e-12 2.03203e-11 -4.42893e-12)
(4.37157e-12 1.7389e-11 -7.54298e-12)
(3.89949e-12 1.38615e-11 -1.93815e-12)
(1.18518e-12 1.58954e-11 6.76902e-12)
(-2.3208e-12 1.637e-11 1.28274e-11)
(-3.4504e-12 1.41277e-11 1.37254e-11)
(-2.54676e-12 1.28927e-11 1.28032e-11)
(-2.43998e-12 1.30288e-11 1.17267e-11)
(-2.50595e-12 1.31259e-11 9.52297e-12)
(-5.12595e-12 1.46119e-11 5.34337e-12)
(-3.28714e-12 1.55408e-11 -1.72702e-12)
(1.22327e-12 1.50942e-11 -6.57647e-12)
(6.90488e-13 1.76374e-11 -8.97488e-12)
(2.41589e-13 1.69309e-11 -1.04397e-11)
(-1.36204e-12 1.65453e-11 -1.03385e-11)
(5.7431e-13 1.51018e-11 -9.30798e-12)
(2.24576e-12 1.66668e-11 -7.1867e-12)
(1.33496e-12 1.76998e-11 -7.61565e-12)
(5.63665e-13 1.79917e-11 -6.47552e-12)
(-9.18608e-13 1.89559e-11 -5.10099e-12)
(2.31669e-12 1.80916e-11 -5.5309e-12)
(6.1474e-12 1.62792e-11 -7.41445e-12)
(9.41498e-12 1.60448e-11 -9.13652e-12)
(8.88928e-12 1.55083e-11 -1.18848e-11)
(7.31336e-12 1.29356e-11 -1.37963e-11)
(5.89282e-12 1.43617e-11 -1.50754e-11)
(3.73428e-12 1.19579e-11 -1.65437e-11)
(9.15814e-13 1.2443e-11 -1.75766e-11)
(-5.27855e-13 1.62112e-11 -1.73189e-11)
(-3.21974e-12 1.58737e-11 -2.07737e-11)
(-2.56862e-12 1.24436e-11 -2.42679e-11)
(2.35576e-12 1.22563e-11 -2.4866e-11)
(6.78837e-12 1.30779e-11 -2.08314e-11)
(5.20448e-12 1.79239e-11 -1.34723e-11)
(2.49596e-12 2.18465e-11 -7.75745e-12)
(-2.15784e-12 2.0311e-11 -5.29804e-12)
(-4.9158e-12 1.91831e-11 -3.97258e-12)
(-4.24574e-12 1.85094e-11 -3.26919e-12)
(-3.64864e-12 1.7113e-11 -2.74712e-12)
(-5.50195e-12 1.69286e-11 -1.5731e-12)
(-7.45061e-12 1.67062e-11 -1.77954e-12)
(-5.71033e-12 1.60467e-11 1.29287e-13)
(-2.80825e-12 1.5599e-11 1.6724e-12)
(-3.24674e-12 1.4547e-11 -1.94034e-12)
(-7.12972e-12 1.22625e-11 -5.80795e-12)
(-6.32558e-12 1.24493e-11 -1.16997e-11)
(-1.08323e-12 1.1273e-11 -1.55788e-11)
(1.03603e-12 1.34739e-11 -1.35365e-11)
(1.58238e-12 1.47158e-11 -1.4231e-11)
(3.42219e-12 1.45689e-11 -1.52097e-11)
(-1.86205e-13 1.37972e-11 -1.66159e-11)
(-7.80788e-13 1.4955e-11 -1.83565e-11)
(3.02154e-12 1.68937e-11 -1.8441e-11)
(6.15443e-13 1.51385e-11 -1.71149e-11)
(-1.48719e-12 1.329e-11 -1.60005e-11)
(-3.57413e-12 1.22021e-11 -1.35219e-11)
(-1.56271e-12 1.17527e-11 -1.09294e-11)
(1.29288e-12 1.155e-11 -1.01227e-11)
(-3.56563e-14 1.33569e-11 -1.00546e-11)
(2.09289e-14 9.12046e-12 -9.69179e-12)
(1.39918e-12 8.15869e-12 -8.19743e-12)
(5.05035e-13 9.01946e-12 -6.68193e-12)
(-7.81777e-13 7.49747e-12 -4.89778e-12)
(-2.06559e-12 1.12071e-11 -4.00619e-12)
(4.66934e-13 1.50744e-11 -1.45824e-12)
(3.20763e-12 1.34707e-11 1.23614e-12)
(1.36927e-12 1.22814e-11 4.32047e-12)
(8.09063e-14 1.21562e-11 1.1464e-11)
(6.68286e-13 1.01768e-11 1.28714e-11)
(-2.11503e-12 2.01881e-11 -1.25898e-11)