/*--------------------------------*- C++ -*----------------------------------*\
| =========                 |                                                 |
| \\      /  F ield         | OpenFOAM: The Open Source CFD Toolbox           |
|  \\    /   O peration     | Version:  2406                                  |
|   \\  /    A nd           | Website:  www.openfoam.com                      |
|    \\/     M anipulation  |                                                 |
\*---------------------------------------------------------------------------*/
FoamFile
{
    version     2.0;
    format      ascii;
    arch        "LSB;label=32;scalar=64";
    class       volScalarField;
    location    "0.03";
    object      rho;
}
// * * * * * * * * * * * * * * * * * * * * * * * * * * * * * * * * * * * * * //

dimensions      [1 -3 0 0 0 0 0];

internalField   nonuniform List<scalar> 
13962
(
4.32005
4.32005
4.32005
4.32005
4.32005
4.32005
4.32005
4.32005
4.32005
4.32005
4.32005
4.32005
4.32005
4.32006
4.32023
4.32464
4.40648
4.67276
4.73533
4.73507
4.73516
4.73568
4.73642
4.73719
4.73816
4.73942
4.74027
4.74059
4.7406
4.74023
4.73949
4.73904
4.73912
4.73937
4.73977
4.74037
4.74115
4.74158
4.7417
4.74171
4.7415
4.74097
4.74022
4.73991
4.73981
4.73985
4.74012
4.74063
4.74117
4.74126
4.74115
4.7409
4.74042
4.73975
4.73921
4.73909
4.73912
4.73928
4.73964
4.74007
4.74029
4.74031
4.74026
4.74008
4.73978
4.73962
4.73964
4.73974
4.7399
4.74016
4.74045
4.7406
4.7406
4.74055
4.74043
4.74028
4.74018
4.7401
4.74005
4.74009
4.74015
4.74019
4.74016
4.74012
4.74011
4.74005
4.73998
4.73995
4.73996
4.73998
4.74
4.74002
4.74007
4.74011
4.74014
4.74016
4.74016
4.74013
4.74009
4.74005
4.74001
4.73994
4.73988
4.73984
4.73983
4.73984
4.73988
4.73991
4.73995
4.73999
4.74003
4.74009
4.74014
4.74018
4.7402
4.74022
4.74024
4.74024
4.74023
4.74021
4.74017
4.74015
4.74013
4.74011
4.74008
4.74005
4.74001
4.73996
4.73992
4.73989
4.73988
4.7399
4.73994
4.74001
4.74008
4.74014
4.74015
4.74013
4.7401
4.74007
4.74006
4.74006
4.74006
4.74006
4.74008
4.74008
4.74006
4.74003
4.74002
4.74
4.73999
4.73999
4.74
4.74002
4.74003
4.74004
4.74004
4.74007
4.7401
4.74009
4.74009
4.74021
4.74076
4.74134
4.7406
4.73662
4.72761
4.71499
4.70192
4.69164
4.68576
4.68389
4.68344
4.68335
4.68284
4.6822
4.68154
4.68155
4.68181
4.68242
4.6831
4.6838
4.68427
4.68478
4.68512
4.68563
4.68667
4.68849
4.69216
4.69715
4.70191
4.70595
4.70938
4.71224
4.71468
4.71672
4.71861
4.72039
4.72208
4.72368
4.72507
4.72636
4.72741
4.72834
4.72908
4.72958
4.72975
4.72951
4.72874
4.72715
4.72445
4.72001
4.71292
4.70175
4.68453
4.65844
4.62008
4.56485
4.48832
4.38565
4.25358
4.09061
3.89835
3.68237
3.45293
3.22478
3.01683
2.85025
2.73839
2.68402
2.67279
2.67171
2.67126
2.67079
2.67101
2.67185
2.67324
2.67509
2.67697
2.67858
2.67983
2.68031
2.68027
2.68005
2.67956
2.6788
2.67786
2.67692
2.67643
2.67628
2.6763
2.67652
2.67678
2.67688
2.67692
2.67691
2.67677
2.67653
2.67641
2.67643
2.67647
2.67657
2.67672
2.67678
2.67674
2.67664
2.67645
2.67617
2.6758
2.67541
2.67513
2.67507
2.67507
2.67511
2.6752
2.67531
2.67542
2.67552
2.6756
2.67565
2.67568
2.67571
2.67575
2.67579
2.67584
2.67589
2.67594
2.67599
2.67602
2.67604
2.67607
2.6761
2.67616
2.67626
2.67639
2.67657
2.67679
2.67705
2.67733
2.67763
2.67793
2.6782
2.67844
2.67862
2.67876
2.67889
2.67904
2.67933
2.67973
2.68024
2.68085
2.68147
2.68197
2.68223
2.68228
2.6822
2.68208
2.68195
2.68181
2.68164
2.68145
2.68126
2.68109
2.68095
2.68084
2.68076
2.68068
2.68058
2.68049
2.68042
2.68038
2.68036
2.68035
2.68035
2.68036
2.68035
2.68033
2.68031
2.68029
2.68025
2.68022
2.68021
2.68021
2.68023
2.68025
2.68029
2.68033
2.68035
2.68034
2.68032
2.68028
2.68023
2.68018
2.68014
2.68012
2.68012
2.68012
2.68014
2.68017
2.68018
2.68018
2.68018
2.68017
2.68015
2.68013
2.68012
2.68012
2.68012
2.68013
2.68014
2.68014
2.68014
2.68012
2.6801
2.68007
2.68003
2.67999
2.67996
2.67995
2.67995
2.67995
2.67996
2.67997
2.67997
2.67998
2.67997
2.67997
2.67995
2.67994
2.67994
2.67993
2.67993
2.67993
2.67994
2.67996
2.67997
2.67999
2.68
2.68
2.68001
2.68
2.67993
2.67942
2.67612
2.65536
2.53515
2.06262
1.40241
1.22663
1.22126
1.22125
1.22125
1.22125
1.22125
1.22125
1.22125
1.22125
1.22125
1.22125
1.22125
1.22125
1.22125
1.22125
1.22125
1.22125
1.22125
1.22125
1.22125
1.22125
1.22125
1.22125
1.22125
1.22125
1.22125
1.22125
1.22125
1.22125
1.22125
1.22125
1.22125
1.22125
1.22125
1.22125
1.22125
1.22125
1.22125
1.22125
1.22125
1.22125
1.22125
1.22125
1.22125
1.22125
1.22125
1.22125
1.22125
1.22125
1.22125
1.22125
1.22125
1.22125
1.22125
1.22125
1.22125
4.32005
4.32005
4.32005
4.32005
4.32005
4.32005
4.32005
4.32005
4.32005
4.32005
4.32005
4.32005
4.32005
4.32006
4.32023
4.32464
4.40648
4.67276
4.73533
4.73507
4.73516
4.73568
4.73642
4.73719
4.73816
4.73942
4.74027
4.74059
4.7406
4.74023
4.73949
4.73904
4.73912
4.73937
4.73977
4.74037
4.74115
4.74158
4.7417
4.74171
4.7415
4.74097
4.74022
4.73991
4.73981
4.73985
4.74012
4.74063
4.74117
4.74126
4.74115
4.7409
4.74042
4.73975
4.73921
4.73909
4.73912
4.73928
4.73964
4.74007
4.74029
4.74031
4.74026
4.74008
4.73978
4.73962
4.73964
4.73974
4.7399
4.74016
4.74045
4.7406
4.7406
4.74055
4.74043
4.74028
4.74018
4.7401
4.74005
4.74009
4.74015
4.74019
4.74016
4.74012
4.74011
4.74005
4.73998
4.73995
4.73996
4.73998
4.74
4.74002
4.74007
4.74011
4.74014
4.74016
4.74016
4.74013
4.74009
4.74005
4.74001
4.73994
4.73988
4.73984
4.73983
4.73984
4.73988
4.73991
4.73995
4.73999
4.74003
4.74009
4.74014
4.74018
4.7402
4.74022
4.74024
4.74024
4.74023
4.74021
4.74017
4.74015
4.74013
4.74011
4.74008
4.74005
4.74001
4.73996
4.73992
4.73989
4.73988
4.7399
4.73994
4.74001
4.74008
4.74014
4.74015
4.74013
4.7401
4.74007
4.74006
4.74006
4.74006
4.74006
4.74008
4.74008
4.74006
4.74003
4.74002
4.74
4.73999
4.73999
4.74
4.74002
4.74003
4.74004
4.74004
4.74007
4.7401
4.74009
4.74009
4.74021
4.74076
4.74135
4.74062
4.73666
4.72762
4.71494
4.70175
4.69147
4.68568
4.68407
4.68373
4.68363
4.68298
4.68212
4.68132
4.68135
4.68168
4.68239
4.68312
4.68385
4.6843
4.68484
4.68519
4.68574
4.68668
4.68845
4.69206
4.69707
4.7019
4.70597
4.70938
4.71221
4.71461
4.71666
4.71857
4.72037
4.72206
4.72365
4.72503
4.72633
4.72738
4.72833
4.72907
4.72957
4.72972
4.72947
4.72869
4.7271
4.72443
4.72002
4.71297
4.70181
4.68459
4.6585
4.62014
4.56494
4.48847
4.38589
4.25396
4.09115
3.89904
3.68319
3.4538
3.22557
3.01745
2.85064
2.7387
2.6842
2.67278
2.6717
2.67127
2.67082
2.67101
2.67185
2.67324
2.67508
2.67695
2.67855
2.67981
2.68031
2.68028
2.68007
2.67957
2.67882
2.67787
2.67691
2.67641
2.67626
2.67629
2.67651
2.67678
2.67689
2.67693
2.67692
2.67678
2.67654
2.67641
2.67642
2.67646
2.67656
2.67671
2.67678
2.67674
2.67665
2.67646
2.67617
2.6758
2.67541
2.67513
2.67506
2.67507
2.67511
2.6752
2.6753
2.67542
2.67552
2.6756
2.67565
2.67568
2.67571
2.67575
2.67579
2.67584
2.67589
2.67594
2.67599
2.67602
2.67604
2.67607
2.6761
2.67617
2.67626
2.67639
2.67657
2.6768
2.67705
2.67734
2.67764
2.67793
2.6782
2.67845
2.67863
2.67877
2.67889
2.67903
2.67932
2.67972
2.68023
2.68084
2.68147
2.68197
2.68223
2.68228
2.6822
2.68208
2.68196
2.68182
2.68165
2.68146
2.68126
2.68109
2.68095
2.68084
2.68076
2.68068
2.68058
2.68049
2.68042
2.68038
2.68036
2.68035
2.68035
2.68036
2.68035
2.68033
2.68031
2.68029
2.68025
2.68022
2.68021
2.68021
2.68023
2.68025
2.68029
2.68033
2.68035
2.68034
2.68032
2.68028
2.68023
2.68018
2.68014
2.68012
2.68012
2.68012
2.68014
2.68016
2.68018
2.68018
2.68018
2.68017
2.68015
2.68013
2.68012
2.68012
2.68012
2.68013
2.68014
2.68014
2.68014
2.68012
2.6801
2.68007
2.68003
2.67999
2.67996
2.67995
2.67995
2.67995
2.67996
2.67997
2.67997
2.67998
2.67997
2.67997
2.67995
2.67994
2.67994
2.67993
2.67993
2.67993
2.67994
2.67996
2.67997
2.67999
2.67999
2.68
2.68
2.68
2.67993
2.67942
2.67612
2.65536
2.53515
2.06262
1.40241
1.22663
1.22126
1.22125
1.22125
1.22125
1.22125
1.22125
1.22125
1.22125
1.22125
1.22125
1.22125
1.22125
1.22125
1.22125
1.22125
1.22125
1.22125
1.22125
1.22125
1.22125
1.22125
1.22125
1.22125
1.22125
1.22125
1.22125
1.22125
1.22125
1.22125
1.22125
1.22125
1.22125
1.22125
1.22125
1.22125
1.22125
1.22125
1.22125
1.22125
1.22125
1.22125
1.22125
1.22125
1.22125
1.22125
1.22125
1.22125
1.22125
1.22125
1.22125
1.22125
1.22125
1.22125
1.22125
1.22125
4.32005
4.32005
4.32005
4.32005
4.32005
4.32005
4.32005
4.32005
4.32005
4.32005
4.32005
4.32005
4.32005
4.32006
4.32023
4.32464
4.40648
4.67276
4.73533
4.73507
4.73516
4.73568
4.73642
4.73719
4.73816
4.73941
4.74027
4.74059
4.7406
4.74023
4.73949
4.73904
4.73912
4.73937
4.73977
4.74037
4.74115
4.74158
4.7417
4.74171
4.7415
4.74097
4.74022
4.73991
4.73981
4.73985
4.74012
4.74063
4.74117
4.74126
4.74115
4.7409
4.74042
4.73975
4.73921
4.73909
4.73912
4.73928
4.73964
4.74007
4.74029
4.74031
4.74026
4.74008
4.73978
4.73962
4.73964
4.73974
4.7399
4.74016
4.74045
4.7406
4.7406
4.74055
4.74043
4.74028
4.74018
4.7401
4.74005
4.74009
4.74015
4.74019
4.74016
4.74012
4.74011
4.74005
4.73998
4.73995
4.73996
4.73998
4.74
4.74002
4.74007
4.74011
4.74014
4.74016
4.74016
4.74013
4.74009
4.74005
4.74001
4.73994
4.73988
4.73984
4.73983
4.73984
4.73988
4.73991
4.73995
4.73999
4.74003
4.74009
4.74014
4.74018
4.7402
4.74022
4.74024
4.74024
4.74023
4.74021
4.74017
4.74015
4.74013
4.74011
4.74008
4.74005
4.74001
4.73996
4.73992
4.73989
4.73988
4.7399
4.73994
4.74001
4.74008
4.74014
4.74015
4.74013
4.7401
4.74007
4.74006
4.74006
4.74006
4.74006
4.74008
4.74008
4.74006
4.74003
4.74002
4.74
4.73999
4.73999
4.74
4.74002
4.74003
4.74004
4.74004
4.74007
4.7401
4.74009
4.74008
4.74021
4.74076
4.74136
4.74064
4.73669
4.72764
4.71488
4.7016
4.69131
4.6856
4.68425
4.68401
4.68389
4.6831
4.68204
4.6811
4.68117
4.68157
4.68236
4.68315
4.6839
4.68433
4.6849
4.68526
4.68585
4.6867
4.68838
4.69194
4.69705
4.70196
4.70604
4.70937
4.71215
4.71451
4.71662
4.71857
4.72039
4.72206
4.72364
4.725
4.72631
4.72738
4.72833
4.72907
4.72956
4.72969
4.72942
4.72864
4.72709
4.72446
4.72009
4.7131
4.70197
4.68477
4.65869
4.62041
4.56536
4.48908
4.38674
4.25506
4.09253
3.90074
3.68513
3.45578
3.22735
3.01885
2.85155
2.73929
2.68441
2.6727
2.67163
2.67126
2.67085
2.67103
2.67187
2.67325
2.67507
2.67692
2.67851
2.67978
2.68031
2.68028
2.68008
2.67959
2.67884
2.6779
2.67693
2.67641
2.67625
2.67627
2.67649
2.67677
2.67689
2.67693
2.67693
2.6768
2.67656
2.67642
2.67642
2.67646
2.67655
2.6767
2.67678
2.67674
2.67665
2.67646
2.67618
2.67581
2.67541
2.67513
2.67506
2.67507
2.67511
2.67519
2.6753
2.67542
2.67552
2.6756
2.67565
2.67568
2.67571
2.67575
2.67579
2.67584
2.67589
2.67594
2.67599
2.67602
2.67604
2.67607
2.67611
2.67617
2.67626
2.67639
2.67658
2.6768
2.67706
2.67735
2.67764
2.67794
2.67821
2.67845
2.67863
2.67877
2.6789
2.67904
2.67933
2.67973
2.68024
2.68085
2.68148
2.68199
2.68226
2.68229
2.68221
2.6821
2.68199
2.68184
2.68166
2.68146
2.68125
2.68107
2.68093
2.68083
2.68075
2.68068
2.68059
2.68049
2.68042
2.68039
2.68037
2.68036
2.68035
2.68036
2.68035
2.68033
2.68031
2.68028
2.68025
2.68022
2.68021
2.68022
2.68023
2.68026
2.68029
2.68033
2.68034
2.68033
2.68031
2.68028
2.68023
2.68018
2.68014
2.68013
2.68012
2.68012
2.68014
2.68016
2.68018
2.68018
2.68018
2.68017
2.68015
2.68013
2.68012
2.68012
2.68012
2.68013
2.68014
2.68014
2.68014
2.68012
2.6801
2.68007
2.68003
2.67999
2.67996
2.67995
2.67995
2.67995
2.67996
2.67997
2.67997
2.67998
2.67997
2.67997
2.67995
2.67994
2.67994
2.67993
2.67993
2.67993
2.67994
2.67996
2.67997
2.67999
2.67999
2.68
2.68
2.68
2.67993
2.67942
2.67612
2.65536
2.53515
2.06262
1.40242
1.22663
1.22126
1.22125
1.22125
1.22125
1.22125
1.22125
1.22125
1.22125
1.22125
1.22125
1.22125
1.22125
1.22125
1.22125
1.22125
1.22125
1.22125
1.22125
1.22125
1.22125
1.22125
1.22125
1.22125
1.22125
1.22125
1.22125
1.22125
1.22125
1.22125
1.22125
1.22125
1.22125
1.22125
1.22125
1.22125
1.22125
1.22125
1.22125
1.22125
1.22125
1.22125
1.22125
1.22125
1.22125
1.22125
1.22125
1.22125
1.22125
1.22125
1.22125
1.22125
1.22125
1.22125
1.22125
1.22125
4.32005
4.32005
4.32005
4.32005
4.32005
4.32005
4.32005
4.32005
4.32005
4.32005
4.32005
4.32005
4.32005
4.32006
4.32023
4.32464
4.40648
4.67276
4.73533
4.73507
4.73516
4.73568
4.73642
4.73719
4.73816
4.73941
4.74027
4.74059
4.7406
4.74023
4.73949
4.73904
4.73912
4.73937
4.73977
4.74037
4.74115
4.74158
4.7417
4.74171
4.7415
4.74097
4.74022
4.73991
4.73981
4.73985
4.74012
4.74063
4.74117
4.74126
4.74115
4.7409
4.74042
4.73975
4.73921
4.73909
4.73912
4.73928
4.73964
4.74007
4.74029
4.74031
4.74026
4.74008
4.73978
4.73962
4.73964
4.73974
4.7399
4.74016
4.74045
4.7406
4.7406
4.74055
4.74043
4.74028
4.74018
4.7401
4.74005
4.74009
4.74015
4.74019
4.74016
4.74012
4.74011
4.74005
4.73998
4.73995
4.73996
4.73998
4.74
4.74002
4.74007
4.74011
4.74014
4.74016
4.74016
4.74013
4.74009
4.74005
4.74001
4.73994
4.73988
4.73984
4.73983
4.73984
4.73988
4.73991
4.73995
4.73999
4.74003
4.74009
4.74014
4.74018
4.7402
4.74022
4.74024
4.74024
4.74023
4.74021
4.74017
4.74015
4.74013
4.74011
4.74008
4.74005
4.74001
4.73996
4.73992
4.73989
4.73988
4.7399
4.73994
4.74001
4.74008
4.74014
4.74015
4.74013
4.7401
4.74007
4.74006
4.74006
4.74006
4.74006
4.74008
4.74008
4.74006
4.74003
4.74002
4.74
4.73999
4.73999
4.74
4.74002
4.74003
4.74004
4.74004
4.74007
4.7401
4.74008
4.74008
4.7402
4.74075
4.74137
4.74066
4.73672
4.72766
4.71481
4.70148
4.69112
4.68553
4.68442
4.68427
4.68414
4.68321
4.68196
4.6809
4.68099
4.68148
4.68234
4.68318
4.68394
4.68435
4.68495
4.68532
4.68596
4.68673
4.68829
4.69179
4.69703
4.70209
4.70612
4.70934
4.71204
4.7144
4.71658
4.71859
4.72042
4.72208
4.72362
4.72498
4.72631
4.72739
4.72834
4.72907
4.72954
4.72964
4.72938
4.72861
4.7271
4.72452
4.72018
4.71321
4.70212
4.68497
4.65897
4.62084
4.56598
4.48993
4.38788
4.25651
4.09424
3.90258
3.687
3.45762
3.22909
3.02032
2.85262
2.7401
2.68472
2.6726
2.67155
2.67125
2.6709
2.67106
2.67191
2.67327
2.67506
2.67689
2.67846
2.67972
2.68029
2.68027
2.68008
2.67962
2.67888
2.67794
2.67697
2.67642
2.67625
2.67625
2.67646
2.67675
2.67688
2.67693
2.67694
2.67682
2.67658
2.67643
2.67642
2.67646
2.67654
2.67668
2.67677
2.67673
2.67664
2.67646
2.67618
2.67582
2.67542
2.67514
2.67506
2.67506
2.6751
2.67519
2.6753
2.67542
2.67552
2.6756
2.67565
2.67568
2.67571
2.67575
2.67579
2.67584
2.67589
2.67594
2.67599
2.67602
2.67604
2.67607
2.67611
2.67617
2.67626
2.6764
2.67658
2.6768
2.67707
2.67736
2.67766
2.67795
2.67822
2.67846
2.67865
2.67878
2.67891
2.67906
2.67933
2.67973
2.68025
2.68087
2.6815
2.68203
2.68231
2.68233
2.68225
2.68216
2.68204
2.68188
2.68169
2.68146
2.68123
2.68104
2.6809
2.6808
2.68074
2.68067
2.68059
2.6805
2.68044
2.68041
2.68039
2.68037
2.68036
2.68035
2.68034
2.68032
2.68031
2.68028
2.68025
2.68023
2.68022
2.68022
2.68023
2.68026
2.6803
2.68033
2.68034
2.68033
2.68031
2.68028
2.68023
2.68018
2.68014
2.68013
2.68012
2.68013
2.68014
2.68016
2.68018
2.68018
2.68017
2.68017
2.68015
2.68013
2.68012
2.68012
2.68013
2.68013
2.68014
2.68014
2.68013
2.68012
2.6801
2.68007
2.68003
2.67999
2.67996
2.67995
2.67995
2.67995
2.67996
2.67997
2.67997
2.67998
2.67997
2.67997
2.67995
2.67994
2.67994
2.67993
2.67993
2.67993
2.67994
2.67996
2.67997
2.67999
2.67999
2.68
2.68
2.68
2.67992
2.67941
2.67611
2.65536
2.53515
2.06262
1.40242
1.22663
1.22126
1.22125
1.22125
1.22125
1.22125
1.22125
1.22125
1.22125
1.22125
1.22125
1.22125
1.22125
1.22125
1.22125
1.22125
1.22125
1.22125
1.22125
1.22125
1.22125
1.22125
1.22125
1.22125
1.22125
1.22125
1.22125
1.22125
1.22125
1.22125
1.22125
1.22125
1.22125
1.22125
1.22125
1.22125
1.22125
1.22125
1.22125
1.22125
1.22125
1.22125
1.22125
1.22125
1.22125
1.22125
1.22125
1.22125
1.22125
1.22125
1.22125
1.22125
1.22125
1.22125
1.22125
1.22125
4.32005
4.32005
4.32005
4.32005
4.32005
4.32005
4.32005
4.32005
4.32005
4.32005
4.32005
4.32005
4.32005
4.32006
4.32023
4.32464
4.40648
4.67276
4.73533
4.73507
4.73516
4.73568
4.73642
4.73719
4.73816
4.73941
4.74027
4.74059
4.7406
4.74023
4.73949
4.73904
4.73912
4.73937
4.73977
4.74037
4.74115
4.74158
4.7417
4.74171
4.7415
4.74097
4.74022
4.73991
4.73981
4.73985
4.74012
4.74063
4.74117
4.74126
4.74115
4.7409
4.74042
4.73975
4.73921
4.73909
4.73912
4.73928
4.73964
4.74007
4.74029
4.74031
4.74026
4.74008
4.73978
4.73962
4.73964
4.73974
4.7399
4.74016
4.74045
4.7406
4.7406
4.74055
4.74043
4.74028
4.74018
4.7401
4.74005
4.74009
4.74015
4.74019
4.74016
4.74012
4.74011
4.74005
4.73998
4.73995
4.73996
4.73998
4.74
4.74002
4.74007
4.74011
4.74014
4.74016
4.74016
4.74013
4.74009
4.74005
4.74001
4.73994
4.73988
4.73984
4.73983
4.73984
4.73988
4.73991
4.73995
4.73999
4.74003
4.74009
4.74014
4.74018
4.7402
4.74022
4.74024
4.74024
4.74023
4.74021
4.74017
4.74015
4.74013
4.74011
4.74008
4.74005
4.74001
4.73996
4.73992
4.73989
4.73988
4.7399
4.73994
4.74001
4.74008
4.74014
4.74015
4.74013
4.7401
4.74007
4.74006
4.74006
4.74006
4.74006
4.74008
4.74008
4.74006
4.74003
4.74002
4.74
4.73999
4.73999
4.74
4.74002
4.74003
4.74004
4.74004
4.74007
4.7401
4.74008
4.74008
4.7402
4.74075
4.74138
4.74068
4.73675
4.72768
4.71474
4.70138
4.69098
4.68548
4.68456
4.68448
4.68434
4.68331
4.68188
4.68071
4.68084
4.6814
4.68233
4.68321
4.68398
4.68436
4.68499
4.68538
4.68605
4.68677
4.6882
4.69163
4.69703
4.70227
4.70622
4.70929
4.71189
4.71429
4.71655
4.71863
4.72047
4.7221
4.72362
4.72496
4.7263
4.7274
4.72834
4.72906
4.72951
4.72961
4.72935
4.72859
4.7271
4.72453
4.72019
4.71329
4.70227
4.68519
4.65929
4.62131
4.56659
4.49072
4.38888
4.2577
4.09552
3.9039
3.68836
3.45895
3.23038
3.02145
2.85351
2.74083
2.6849
2.67244
2.67148
2.67128
2.67099
2.67112
2.67197
2.6733
2.67506
2.67685
2.67839
2.67965
2.68025
2.68025
2.68009
2.67964
2.67892
2.67799
2.67701
2.67642
2.67625
2.67623
2.67643
2.67672
2.67687
2.67692
2.67694
2.67684
2.67661
2.67644
2.67642
2.67645
2.67653
2.67667
2.67676
2.67673
2.67664
2.67647
2.67619
2.67583
2.67543
2.67514
2.67506
2.67506
2.6751
2.67519
2.6753
2.67542
2.67552
2.6756
2.67565
2.67569
2.67571
2.67575
2.67579
2.67584
2.67589
2.67594
2.67598
2.67602
2.67604
2.67607
2.67611
2.67617
2.67626
2.6764
2.67658
2.67681
2.67707
2.67736
2.67767
2.67797
2.67825
2.67848
2.67867
2.67881
2.67891
2.67909
2.67935
2.67975
2.68027
2.68088
2.68154
2.68209
2.68238
2.6824
2.68233
2.68224
2.68212
2.68194
2.68172
2.68145
2.68119
2.68098
2.68085
2.68077
2.68072
2.68067
2.68059
2.68052
2.68047
2.68043
2.68041
2.68038
2.68036
2.68034
2.68032
2.68031
2.6803
2.68028
2.68025
2.68023
2.68023
2.68023
2.68024
2.68026
2.6803
2.68033
2.68033
2.68032
2.6803
2.68027
2.68023
2.68018
2.68015
2.68013
2.68013
2.68013
2.68014
2.68016
2.68017
2.68018
2.68017
2.68017
2.68015
2.68013
2.68013
2.68013
2.68013
2.68013
2.68014
2.68014
2.68013
2.68012
2.6801
2.68007
2.68003
2.67999
2.67996
2.67995
2.67995
2.67995
2.67996
2.67997
2.67997
2.67997
2.67997
2.67997
2.67996
2.67994
2.67994
2.67993
2.67993
2.67993
2.67994
2.67996
2.67997
2.67999
2.67999
2.68
2.68
2.68
2.67992
2.67941
2.67611
2.65535
2.53514
2.06262
1.40242
1.22663
1.22126
1.22125
1.22125
1.22125
1.22125
1.22125
1.22125
1.22125
1.22125
1.22125
1.22125
1.22125
1.22125
1.22125
1.22125
1.22125
1.22125
1.22125
1.22125
1.22125
1.22125
1.22125
1.22125
1.22125
1.22125
1.22125
1.22125
1.22125
1.22125
1.22125
1.22125
1.22125
1.22125
1.22125
1.22125
1.22125
1.22125
1.22125
1.22125
1.22125
1.22125
1.22125
1.22125
1.22125
1.22125
1.22125
1.22125
1.22125
1.22125
1.22125
1.22125
1.22125
1.22125
1.22125
1.22125
4.32005
4.32005
4.32005
4.32005
4.32005
4.32005
4.32005
4.32005
4.32005
4.32005
4.32005
4.32005
4.32005
4.32006
4.32023
4.32464
4.40648
4.67276
4.73533
4.73507
4.73516
4.73568
4.73642
4.73719
4.73816
4.73941
4.74027
4.74059
4.7406
4.74023
4.73949
4.73904
4.73912
4.73937
4.73977
4.74037
4.74115
4.74158
4.7417
4.74171
4.7415
4.74097
4.74022
4.73991
4.73981
4.73985
4.74012
4.74063
4.74117
4.74126
4.74115
4.7409
4.74042
4.73975
4.73921
4.73909
4.73912
4.73928
4.73964
4.74007
4.74029
4.74031
4.74026
4.74008
4.73978
4.73962
4.73964
4.73974
4.7399
4.74016
4.74045
4.7406
4.7406
4.74055
4.74043
4.74028
4.74018
4.7401
4.74005
4.74009
4.74015
4.74019
4.74016
4.74012
4.74011
4.74005
4.73998
4.73995
4.73996
4.73998
4.74
4.74002
4.74007
4.74011
4.74014
4.74016
4.74016
4.74013
4.74009
4.74005
4.74001
4.73994
4.73988
4.73984
4.73983
4.73984
4.73988
4.73991
4.73995
4.73999
4.74003
4.74009
4.74014
4.74018
4.7402
4.74022
4.74024
4.74024
4.74023
4.74021
4.74017
4.74015
4.74013
4.74011
4.74008
4.74005
4.74001
4.73996
4.73992
4.73989
4.73988
4.7399
4.73994
4.74001
4.74008
4.74014
4.74015
4.74013
4.7401
4.74007
4.74006
4.74006
4.74006
4.74006
4.74008
4.74008
4.74006
4.74003
4.74002
4.74
4.73999
4.73999
4.74
4.74002
4.74003
4.74004
4.74004
4.74007
4.7401
4.74008
4.74008
4.7402
4.74075
4.74138
4.74069
4.73677
4.7277
4.71468
4.70129
4.69089
4.68543
4.68465
4.68465
4.68452
4.68341
4.68181
4.68055
4.68071
4.68133
4.68232
4.68323
4.684
4.68437
4.68503
4.68544
4.68614
4.68681
4.68812
4.69147
4.69704
4.70247
4.7063
4.70922
4.71173
4.71418
4.71653
4.71867
4.72052
4.72213
4.72362
4.72496
4.7263
4.72739
4.72832
4.72903
4.72948
4.72958
4.72935
4.72861
4.7271
4.72448
4.72011
4.71324
4.70235
4.68542
4.65966
4.62178
4.56709
4.49126
4.38946
4.2583
4.09609
3.90436
3.68857
3.45906
3.2305
3.02173
2.854
2.74131
2.68481
2.67222
2.67138
2.67132
2.67111
2.67121
2.67205
2.67335
2.67507
2.67681
2.67832
2.67956
2.68021
2.68024
2.68009
2.67967
2.67898
2.67806
2.67706
2.67644
2.67625
2.67622
2.67639
2.67668
2.67685
2.67691
2.67694
2.67685
2.67663
2.67646
2.67643
2.67645
2.67652
2.67665
2.67675
2.67672
2.67664
2.67647
2.6762
2.67584
2.67544
2.67514
2.67506
2.67506
2.6751
2.67518
2.67529
2.67541
2.67552
2.6756
2.67566
2.67569
2.67572
2.67575
2.67579
2.67584
2.67589
2.67594
2.67598
2.67602
2.67604
2.67607
2.67611
2.67617
2.67627
2.6764
2.67658
2.67681
2.67708
2.67738
2.67769
2.67798
2.67826
2.67849
2.67869
2.67883
2.67893
2.6791
2.67938
2.67977
2.68028
2.6809
2.68157
2.68216
2.68247
2.6825
2.68244
2.68235
2.68222
2.68202
2.68175
2.68145
2.68114
2.68091
2.68079
2.68074
2.68071
2.68066
2.6806
2.68053
2.6805
2.68047
2.68043
2.6804
2.68037
2.68033
2.68031
2.6803
2.68029
2.68028
2.68026
2.68024
2.68024
2.68024
2.68025
2.68027
2.6803
2.68032
2.68033
2.68031
2.6803
2.68027
2.68023
2.68019
2.68016
2.68014
2.68013
2.68013
2.68014
2.68016
2.68017
2.68017
2.68017
2.68016
2.68015
2.68014
2.68013
2.68013
2.68013
2.68013
2.68014
2.68014
2.68013
2.68012
2.6801
2.68007
2.68003
2.67999
2.67996
2.67995
2.67995
2.67995
2.67996
2.67997
2.67997
2.67997
2.67997
2.67997
2.67996
2.67995
2.67994
2.67993
2.67993
2.67993
2.67994
2.67996
2.67997
2.67999
2.67999
2.68
2.68
2.68
2.67992
2.67941
2.67611
2.65535
2.53514
2.06262
1.40242
1.22663
1.22126
1.22125
1.22125
1.22125
1.22125
1.22125
1.22125
1.22125
1.22125
1.22125
1.22125
1.22125
1.22125
1.22125
1.22125
1.22125
1.22125
1.22125
1.22125
1.22125
1.22125
1.22125
1.22125
1.22125
1.22125
1.22125
1.22125
1.22125
1.22125
1.22125
1.22125
1.22125
1.22125
1.22125
1.22125
1.22125
1.22125
1.22125
1.22125
1.22125
1.22125
1.22125
1.22125
1.22125
1.22125
1.22125
1.22125
1.22125
1.22125
1.22125
1.22125
1.22125
1.22125
1.22125
1.22125
4.32005
4.32005
4.32005
4.32005
4.32005
4.32005
4.32005
4.32005
4.32005
4.32005
4.32005
4.32005
4.32005
4.32006
4.32023
4.32464
4.40648
4.67276
4.73534
4.73507
4.73516
4.73568
4.73642
4.73719
4.73816
4.73941
4.74027
4.74059
4.7406
4.74023
4.73949
4.73904
4.73912
4.73937
4.73977
4.74037
4.74115
4.74158
4.7417
4.74171
4.7415
4.74097
4.74022
4.73991
4.73981
4.73985
4.74012
4.74063
4.74117
4.74126
4.74115
4.7409
4.74042
4.73975
4.73921
4.73909
4.73912
4.73928
4.73964
4.74007
4.74029
4.74031
4.74026
4.74008
4.73978
4.73962
4.73964
4.73974
4.7399
4.74016
4.74045
4.7406
4.7406
4.74055
4.74043
4.74028
4.74018
4.7401
4.74005
4.74009
4.74015
4.74019
4.74016
4.74012
4.74011
4.74005
4.73998
4.73995
4.73996
4.73998
4.74
4.74002
4.74007
4.74011
4.74014
4.74016
4.74016
4.74013
4.74009
4.74005
4.74001
4.73994
4.73988
4.73984
4.73983
4.73984
4.73988
4.73991
4.73995
4.73999
4.74003
4.74009
4.74014
4.74018
4.7402
4.74022
4.74024
4.74024
4.74023
4.74021
4.74017
4.74015
4.74013
4.74011
4.74008
4.74005
4.74001
4.73996
4.73992
4.73989
4.73988
4.7399
4.73994
4.74001
4.74008
4.74014
4.74015
4.74013
4.7401
4.74007
4.74006
4.74006
4.74006
4.74006
4.74008
4.74008
4.74006
4.74003
4.74002
4.74
4.73999
4.73999
4.74
4.74002
4.74003
4.74004
4.74004
4.74007
4.7401
4.74009
4.74008
4.7402
4.74075
4.74139
4.7407
4.73679
4.72772
4.71463
4.70122
4.69085
4.68538
4.68471
4.68477
4.68467
4.68351
4.68175
4.68042
4.68061
4.68127
4.68231
4.68326
4.68402
4.68438
4.68506
4.68549
4.68621
4.68684
4.68806
4.69132
4.69706
4.70263
4.70637
4.70916
4.7116
4.71408
4.71651
4.7187
4.72057
4.72216
4.72363
4.72496
4.72631
4.72739
4.7283
4.72898
4.72945
4.72957
4.72937
4.72864
4.72709
4.72438
4.71995
4.71309
4.70234
4.68561
4.66007
4.62229
4.56762
4.49177
4.38988
4.25864
4.09633
3.90443
3.68852
3.45889
3.23034
3.02165
2.8541
2.74141
2.68445
2.67197
2.67127
2.67135
2.67125
2.67133
2.67213
2.6734
2.67507
2.67677
2.67823
2.67947
2.68017
2.68023
2.6801
2.6797
2.67903
2.67812
2.67712
2.67645
2.67625
2.67621
2.67636
2.67665
2.67683
2.67689
2.67693
2.67686
2.67666
2.67647
2.67643
2.67646
2.67651
2.67664
2.67674
2.67672
2.67663
2.67647
2.6762
2.67584
2.67545
2.67515
2.67506
2.67506
2.6751
2.67518
2.67529
2.67541
2.67552
2.6756
2.67566
2.67569
2.67572
2.67575
2.67579
2.67584
2.67589
2.67594
2.67598
2.67602
2.67604
2.67607
2.67611
2.67617
2.67627
2.6764
2.67658
2.67681
2.67709
2.67739
2.67769
2.678
2.67829
2.67851
2.67873
2.67884
2.67895
2.67912
2.6794
2.67979
2.6803
2.68091
2.6816
2.68222
2.68256
2.68261
2.68255
2.68247
2.68233
2.6821
2.68179
2.68143
2.68109
2.68083
2.68073
2.68071
2.68069
2.68065
2.6806
2.68055
2.68052
2.6805
2.68046
2.68042
2.68037
2.68032
2.68029
2.68029
2.68029
2.68028
2.68026
2.68025
2.68025
2.68025
2.68026
2.68028
2.6803
2.68032
2.68032
2.6803
2.68029
2.68026
2.68023
2.68019
2.68016
2.68015
2.68014
2.68013
2.68014
2.68016
2.68017
2.68017
2.68017
2.68016
2.68015
2.68014
2.68013
2.68013
2.68013
2.68014
2.68014
2.68014
2.68013
2.68012
2.6801
2.68007
2.68003
2.67999
2.67996
2.67995
2.67995
2.67995
2.67996
2.67996
2.67997
2.67997
2.67997
2.67997
2.67996
2.67995
2.67994
2.67993
2.67993
2.67993
2.67994
2.67996
2.67997
2.67999
2.67999
2.68
2.68
2.68
2.67992
2.67941
2.67611
2.65535
2.53514
2.06262
1.40242
1.22663
1.22126
1.22125
1.22125
1.22125
1.22125
1.22125
1.22125
1.22125
1.22125
1.22125
1.22125
1.22125
1.22125
1.22125
1.22125
1.22125
1.22125
1.22125
1.22125
1.22125
1.22125
1.22125
1.22125
1.22125
1.22125
1.22125
1.22125
1.22125
1.22125
1.22125
1.22125
1.22125
1.22125
1.22125
1.22125
1.22125
1.22125
1.22125
1.22125
1.22125
1.22125
1.22125
1.22125
1.22125
1.22125
1.22125
1.22125
1.22125
1.22125
1.22125
1.22125
1.22125
1.22125
1.22125
1.22125
4.32005
4.32005
4.32005
4.32005
4.32005
4.32005
4.32005
4.32005
4.32005
4.32005
4.32005
4.32005
4.32005
4.32006
4.32023
4.32464
4.40648
4.67276
4.73534
4.73507
4.73516
4.73568
4.73642
4.73719
4.73816
4.73941
4.74027
4.74059
4.7406
4.74023
4.73949
4.73904
4.73912
4.73937
4.73977
4.74037
4.74115
4.74158
4.7417
4.74171
4.7415
4.74097
4.74022
4.73991
4.73981
4.73985
4.74012
4.74063
4.74117
4.74126
4.74115
4.7409
4.74042
4.73975
4.73921
4.73909
4.73912
4.73928
4.73964
4.74007
4.74029
4.74031
4.74026
4.74008
4.73978
4.73962
4.73964
4.73974
4.7399
4.74016
4.74045
4.7406
4.7406
4.74055
4.74043
4.74028
4.74018
4.7401
4.74005
4.74009
4.74015
4.74019
4.74016
4.74012
4.74011
4.74005
4.73998
4.73995
4.73996
4.73998
4.74
4.74002
4.74007
4.74011
4.74014
4.74016
4.74016
4.74013
4.74009
4.74005
4.74001
4.73994
4.73988
4.73984
4.73983
4.73984
4.73988
4.73991
4.73995
4.73999
4.74003
4.74009
4.74014
4.74018
4.7402
4.74022
4.74024
4.74024
4.74023
4.74021
4.74017
4.74015
4.74013
4.74011
4.74008
4.74005
4.74001
4.73996
4.73992
4.73989
4.73988
4.7399
4.73994
4.74001
4.74008
4.74014
4.74015
4.74013
4.7401
4.74007
4.74006
4.74006
4.74006
4.74006
4.74008
4.74008
4.74006
4.74003
4.74002
4.74
4.73999
4.73999
4.74
4.74002
4.74003
4.74004
4.74004
4.74007
4.7401
4.74009
4.74008
4.7402
4.74075
4.74139
4.7407
4.73681
4.72773
4.71458
4.7012
4.69079
4.68535
4.68474
4.68485
4.68476
4.68359
4.68171
4.68033
4.68056
4.68122
4.68231
4.68328
4.68402
4.68439
4.68508
4.68552
4.68626
4.68686
4.68804
4.69121
4.69709
4.70271
4.70644
4.70912
4.71152
4.71402
4.7165
4.71872
4.72059
4.72219
4.72365
4.72497
4.72631
4.72737
4.72827
4.72894
4.72943
4.72957
4.7294
4.72867
4.72705
4.72426
4.71978
4.71294
4.7023
4.68572
4.66038
4.62268
4.56802
4.49211
4.39011
4.25881
4.0964
3.90437
3.68839
3.45875
3.23018
3.02156
2.85414
2.74152
2.68404
2.67173
2.67115
2.67134
2.67136
2.67144
2.6722
2.67344
2.67507
2.67674
2.67819
2.67942
2.68014
2.68022
2.6801
2.67972
2.67906
2.67816
2.67717
2.67647
2.67625
2.67619
2.67633
2.67662
2.67682
2.67689
2.67693
2.67687
2.67667
2.67648
2.67643
2.67646
2.67651
2.67663
2.67673
2.67671
2.67663
2.67647
2.67621
2.67585
2.67545
2.67515
2.67506
2.67506
2.6751
2.67518
2.67529
2.67541
2.67552
2.6756
2.67566
2.67569
2.67572
2.67575
2.67579
2.67584
2.67589
2.67594
2.67598
2.67602
2.67604
2.67607
2.67611
2.67617
2.67627
2.6764
2.67658
2.67681
2.67709
2.67739
2.6777
2.67801
2.67827
2.6785
2.67874
2.67883
2.67897
2.67915
2.67942
2.67983
2.68034
2.68094
2.68164
2.68228
2.68264
2.68271
2.68265
2.68257
2.68241
2.68217
2.68181
2.68142
2.68103
2.68077
2.6807
2.68069
2.68067
2.68065
2.68061
2.68056
2.68054
2.68052
2.68049
2.68044
2.68037
2.68032
2.68028
2.68028
2.68028
2.68028
2.68026
2.68026
2.68026
2.68026
2.68027
2.68029
2.68031
2.68032
2.68031
2.6803
2.68028
2.68026
2.68023
2.68019
2.68017
2.68015
2.68014
2.68014
2.68014
2.68015
2.68016
2.68017
2.68017
2.68016
2.68015
2.68014
2.68013
2.68013
2.68013
2.68014
2.68014
2.68014
2.68013
2.68011
2.68009
2.68007
2.68003
2.68
2.67996
2.67995
2.67995
2.67995
2.67996
2.67996
2.67997
2.67997
2.67997
2.67997
2.67996
2.67995
2.67994
2.67993
2.67993
2.67993
2.67994
2.67996
2.67997
2.67998
2.67999
2.68
2.68
2.68
2.67992
2.67941
2.67611
2.65535
2.53514
2.06262
1.40242
1.22663
1.22126
1.22125
1.22125
1.22125
1.22125
1.22125
1.22125
1.22125
1.22125
1.22125
1.22125
1.22125
1.22125
1.22125
1.22125
1.22125
1.22125
1.22125
1.22125
1.22125
1.22125
1.22125
1.22125
1.22125
1.22125
1.22125
1.22125
1.22125
1.22125
1.22125