/*--------------------------------*- C++ -*----------------------------------*\
| =========                 |                                                 |
| \\      /  F ield         | OpenFOAM: The Open Source CFD Toolbox           |
|  \\    /   O peration     | Version:  2406                                  |
|   \\  /    A nd           | Website:  www.openfoam.com                      |
|    \\/     M anipulation  |                                                 |
\*---------------------------------------------------------------------------*/
FoamFile
{
    version     2.0;
    format      ascii;
    arch        "LSB;label=32;scalar=64";
    class       volScalarField;
    location    "0.03";
    object      T;
}
// * * * * * * * * * * * * * * * * * * * * * * * * * * * * * * * * * * * * * //

dimensions      [0 0 0 1 0 0 0];

internalField   nonuniform List<scalar> 
13962
(
233.19
233.19
233.19
233.19
233.19
233.19
233.19
233.19
233.19
233.19
233.19
233.19
233.19
233.19
233.194
233.29
235.049
240.646
241.851
241.982
242.017
242.035
242.037
242.033
242.022
242.007
241.991
241.989
241.998
242.021
242.057
242.093
242.11
242.109
242.1
242.079
242.05
242.025
242.02
242.023
242.035
242.06
242.091
242.109
242.108
242.103
242.087
242.061
242.034
242.02
242.019
242.024
242.037
242.057
242.071
242.074
242.072
242.065
242.049
242.031
242.024
242.024
242.027
242.036
242.051
242.063
242.068
242.068
242.064
242.056
242.047
242.045
242.045
242.047
242.053
242.063
242.068
242.069
242.066
242.061
242.054
242.046
242.042
242.042
242.044
242.049
242.056
242.062
242.063
242.063
242.061
242.056
242.049
242.044
242.043
242.044
242.046
242.049
242.053
242.056
242.056
242.056
242.054
242.05
242.047
242.046
242.046
242.046
242.047
242.049
242.052
242.054
242.056
242.058
242.058
242.058
242.058
242.057
242.056
242.054
242.053
242.053
242.053
242.053
242.053
242.053
242.053
242.052
242.051
242.05
242.049
242.049
242.049
242.05
242.052
242.054
242.055
242.054
242.054
242.054
242.054
242.053
242.053
242.053
242.053
242.053
242.052
242.052
242.052
242.052
242.052
242.052
242.053
242.053
242.053
242.053
242.053
242.053
242.054
242.053
242.054
242.056
242.068
242.08
242.065
241.984
241.799
241.54
241.271
241.059
240.935
240.9
240.891
240.887
240.876
240.862
240.85
240.851
240.857
240.871
240.885
240.898
240.907
240.917
240.924
240.934
240.956
240.994
241.07
241.173
241.272
241.356
241.427
241.486
241.536
241.578
241.616
241.652
241.687
241.719
241.748
241.775
241.798
241.819
241.837
241.856
241.885
241.925
241.984
242.076
242.223
242.457
242.828
243.411
244.314
245.69
247.749
250.755
255.051
261.034
269.166
279.933
293.802
311.106
331.852
355.362
379.811
402.019
418.016
425.943
428.381
428.713
428.708
428.609
428.44
428.211
427.907
427.57
427.274
427.092
427.032
427.017
427.019
427.031
427.051
427.077
427.113
427.163
427.233
427.297
427.343
427.375
427.389
427.389
427.377
427.349
427.304
427.252
427.209
427.183
427.17
427.168
427.175
427.185
427.193
427.204
427.214
427.221
427.223
427.22
427.215
427.215
427.215
427.214
427.211
427.207
427.2
427.192
427.183
427.175
427.17
427.167
427.167
427.17
427.178
427.19
427.204
427.218
427.23
427.24
427.248
427.253
427.258
427.262
427.267
427.274
427.284
427.299
427.317
427.338
427.36
427.381
427.397
427.403
427.403
427.396
427.378
427.351
427.307
427.244
427.167
427.084
427.016
426.975
426.956
426.948
426.948
426.953
426.968
426.993
427.027
427.066
427.105
427.138
427.163
427.179
427.187
427.192
427.194
427.197
427.204
427.212
427.221
427.233
427.245
427.256
427.266
427.273
427.277
427.279
427.28
427.281
427.283
427.285
427.287
427.291
427.296
427.3
427.303
427.306
427.31
427.313
427.316
427.319
427.323
427.327
427.33
427.333
427.335
427.337
427.337
427.337
427.336
427.334
427.332
427.331
427.331
427.331
427.333
427.335
427.338
427.341
427.344
427.346
427.349
427.35
427.35
427.35
427.35
427.351
427.351
427.351
427.351
427.35
427.35
427.349
427.348
427.348
427.348
427.349
427.35
427.352
427.354
427.356
427.358
427.36
427.361
427.362
427.362
427.362
427.361
427.356
427.322
427.109
425.774
417.847
383.353
317.112
293.677
293.001
293
293
293
293
293
293
293
293
293
293
293
293
293
293
293
293
293
293
293
293
293
293
293
293
293
293
293
293
293
293
293
293
293
293
293
293
293
293
293
293
293
293
293
293
293
293
293
293
293
293
293
293
293
293
233.19
233.19
233.19
233.19
233.19
233.19
233.19
233.19
233.19
233.19
233.19
233.19
233.19
233.19
233.194
233.29
235.049
240.647
241.851
241.982
242.017
242.035
242.037
242.033
242.022
242.007
241.991
241.989
241.998
242.021
242.057
242.093
242.11
242.109
242.1
242.079
242.05
242.025
242.02
242.023
242.035
242.06
242.091
242.109
242.108
242.103
242.087
242.061
242.034
242.02
242.019
242.024
242.037
242.057
242.071
242.074
242.072
242.065
242.049
242.031
242.024
242.024
242.027
242.036
242.051
242.063
242.068
242.068
242.064
242.056
242.047
242.045
242.045
242.047
242.053
242.063
242.068
242.069
242.066
242.061
242.054
242.046
242.042
242.042
242.044
242.049
242.056
242.062
242.063
242.063
242.061
242.056
242.049
242.044
242.043
242.044
242.046
242.049
242.053
242.056
242.056
242.056
242.054
242.05
242.047
242.046
242.046
242.046
242.047
242.049
242.052
242.054
242.056
242.058
242.058
242.058
242.058
242.057
242.056
242.054
242.053
242.053
242.053
242.053
242.053
242.053
242.053
242.052
242.051
242.05
242.049
242.049
242.049
242.05
242.052
242.054
242.055
242.054
242.054
242.054
242.054
242.053
242.053
242.053
242.053
242.053
242.052
242.052
242.052
242.052
242.052
242.052
242.053
242.053
242.053
242.053
242.053
242.053
242.054
242.053
242.054
242.056
242.068
242.081
242.066
241.985
241.799
241.539
241.268
241.055
240.935
240.905
240.896
240.892
240.878
240.861
240.846
240.847
240.855
240.87
240.885
240.899
240.908
240.919
240.925
240.937
240.956
240.993
241.068
241.172
241.272
241.356
241.427
241.486
241.535
241.577
241.615
241.652
241.686
241.719
241.747
241.774
241.797
241.819
241.837
241.855
241.884
241.924
241.983
242.074
242.221
242.456
242.827
243.409
244.311
245.684
247.74
250.743
255.035
261.012
269.134
279.889
293.741
311.027
331.76
355.267
379.73
401.965
417.999
425.944
428.38
428.713
428.709
428.612
428.441
428.211
427.907
427.57
427.273
427.091
427.031
427.018
427.019
427.032
427.052
427.078
427.114
427.163
427.232
427.296
427.342
427.374
427.389
427.389
427.377
427.35
427.305
427.252
427.209
427.183
427.17
427.168
427.174
427.185
427.193
427.204
427.214
427.221
427.223
427.22
427.215
427.215
427.215
427.213
427.211
427.207
427.201
427.192
427.183
427.175
427.17
427.167
427.167
427.17
427.178
427.19
427.204
427.218
427.23
427.24
427.248
427.254
427.258
427.262
427.267
427.274
427.285
427.299
427.317
427.338
427.36
427.381
427.397
427.402
427.402
427.396
427.378
427.35
427.306
427.243
427.165
427.083
427.014
426.973
426.954
426.947
426.948
426.953
426.967
426.993
427.027
427.067
427.106
427.139
427.163
427.179
427.187
427.191
427.193
427.197
427.203
427.211
427.221
427.233
427.245
427.257
427.266
427.273
427.278
427.279
427.28
427.281
427.283
427.285
427.287
427.291
427.296
427.3
427.303
427.307
427.31
427.313
427.316
427.319
427.323
427.327
427.33
427.333
427.335
427.337
427.337
427.337
427.336
427.334
427.332
427.331
427.331
427.331
427.333
427.335
427.338
427.341
427.344
427.346
427.349
427.35
427.35
427.35
427.35
427.351
427.351
427.351
427.351
427.35
427.35
427.349
427.348
427.348
427.348
427.349
427.35
427.352
427.354
427.356
427.358
427.36
427.361
427.362
427.362
427.362
427.361
427.356
427.322
427.109
425.774
417.847
383.353
317.112
293.677
293.001
293
293
293
293
293
293
293
293
293
293
293
293
293
293
293
293
293
293
293
293
293
293
293
293
293
293
293
293
293
293
293
293
293
293
293
293
293
293
293
293
293
293
293
293
293
293
293
293
293
293
293
293
293
293
233.19
233.19
233.19
233.19
233.19
233.19
233.19
233.19
233.19
233.19
233.19
233.19
233.19
233.19
233.194
233.29
235.049
240.647
241.851
241.982
242.017
242.035
242.037
242.033
242.022
242.007
241.991
241.989
241.998
242.021
242.057
242.093
242.11
242.109
242.1
242.079
242.05
242.025
242.02
242.023
242.035
242.06
242.091
242.109
242.108
242.103
242.087
242.061
242.034
242.02
242.019
242.024
242.037
242.057
242.071
242.074
242.072
242.065
242.049
242.031
242.024
242.024
242.027
242.036
242.051
242.063
242.068
242.068
242.064
242.056
242.047
242.045
242.045
242.047
242.053
242.063
242.068
242.069
242.066
242.061
242.054
242.046
242.042
242.042
242.044
242.049
242.056
242.062
242.063
242.063
242.061
242.056
242.049
242.044
242.043
242.044
242.046
242.049
242.053
242.056
242.056
242.056
242.054
242.05
242.047
242.046
242.046
242.046
242.047
242.049
242.052
242.054
242.056
242.058
242.058
242.058
242.058
242.057
242.056
242.054
242.053
242.053
242.053
242.053
242.053
242.053
242.053
242.052
242.051
242.05
242.049
242.049
242.049
242.05
242.052
242.054
242.055
242.054
242.054
242.054
242.054
242.053
242.053
242.053
242.053
242.053
242.052
242.052
242.052
242.052
242.052
242.052
242.053
242.053
242.053
242.053
242.053
242.053
242.054
242.053
242.054
242.056
242.068
242.081
242.066
241.985
241.8
241.537
241.265
241.05
240.935
240.908
240.9
240.897
240.881
240.86
240.842
240.844
240.852
240.869
240.885
240.9
240.908
240.92
240.927
240.939
240.957
240.991
241.065
241.171
241.273
241.358
241.427
241.485
241.533
241.576
241.616
241.652
241.686
241.718
241.746
241.773
241.797
241.818
241.836
241.855
241.884
241.923
241.982
242.073
242.22
242.453
242.823
243.402
244.3
245.669
247.719
250.715
254.998
260.96
269.063
279.793
293.615
310.87
331.576
355.076
379.561
401.844
417.942
425.926
428.372
428.711
428.71
428.617
428.445
428.214
427.908
427.571
427.273
427.089
427.029
427.017
427.019
427.032
427.053
427.079
427.115
427.163
427.231
427.294
427.34
427.373
427.389
427.389
427.378
427.35
427.306
427.254
427.209
427.183
427.17
427.167
427.173
427.184
427.193
427.204
427.214
427.222
427.223
427.22
427.215
427.215
427.214
427.213
427.211
427.207
427.201
427.192
427.183
427.175
427.17
427.167
427.167
427.17
427.178
427.19
427.204
427.218
427.23
427.24
427.248
427.254
427.258
427.262
427.267
427.274
427.285
427.299
427.317
427.337
427.359
427.38
427.395
427.401
427.401
427.396
427.377
427.35
427.305
427.242
427.164
427.08
427.01
426.969
426.95
426.943
426.944
426.95
426.965
426.992
427.028
427.069
427.109
427.142
427.166
427.18
427.188
427.191
427.193
427.196
427.202
427.21
427.22
427.232
427.245
427.257
427.267
427.274
427.278
427.279
427.28
427.281
427.282
427.284
427.287
427.291
427.296
427.3
427.303
427.307
427.31
427.314
427.316
427.319
427.323
427.326
427.33
427.333
427.335
427.337
427.337
427.337
427.336
427.334
427.332
427.331
427.331
427.331
427.333
427.335
427.338
427.341
427.344
427.346
427.349
427.35
427.35
427.35
427.35
427.351
427.351
427.351
427.351
427.35
427.35
427.349
427.348
427.348
427.348
427.349
427.35
427.352
427.354
427.356
427.359
427.36
427.361
427.362
427.362
427.362
427.361
427.356
427.322
427.109
425.774
417.847
383.353
317.112
293.677
293.001
293
293
293
293
293
293
293
293
293
293
293
293
293
293
293
293
293
293
293
293
293
293
293
293
293
293
293
293
293
293
293
293
293
293
293
293
293
293
293
293
293
293
293
293
293
293
293
293
293
293
293
293
293
293
233.19
233.19
233.19
233.19
233.19
233.19
233.19
233.19
233.19
233.19
233.19
233.19
233.19
233.19
233.194
233.29
235.049
240.647
241.851
241.982
242.017
242.035
242.037
242.033
242.022
242.007
241.991
241.989
241.998
242.021
242.057
242.093
242.11
242.109
242.1
242.079
242.05
242.025
242.02
242.023
242.035
242.06
242.091
242.109
242.108
242.103
242.087
242.061
242.034
242.02
242.019
242.024
242.037
242.057
242.071
242.074
242.072
242.065
242.049
242.031
242.024
242.024
242.027
242.036
242.051
242.063
242.068
242.068
242.064
242.056
242.047
242.045
242.045
242.047
242.053
242.063
242.068
242.069
242.066
242.061
242.054
242.046
242.042
242.042
242.044
242.049
242.056
242.062
242.063
242.063
242.061
242.056
242.049
242.044
242.043
242.044
242.046
242.049
242.053
242.056
242.056
242.056
242.054
242.05
242.047
242.046
242.046
242.046
242.047
242.049
242.052
242.054
242.056
242.058
242.058
242.058
242.058
242.057
242.056
242.054
242.053
242.053
242.053
242.053
242.053
242.053
242.053
242.052
242.051
242.05
242.049
242.049
242.049
242.05
242.052
242.054
242.055
242.054
242.054
242.054
242.054
242.053
242.053
242.053
242.053
242.053
242.052
242.052
242.052
242.052
242.052
242.052
242.053
242.053
242.053
242.053
242.053
242.053
242.054
242.053
242.054
242.056
242.068
242.081
242.067
241.986
241.8
241.536
241.262
241.047
240.935
240.91
240.905
240.902
240.884
240.859
240.838
240.84
240.85
240.868
240.885
240.901
240.909
240.921
240.929
240.941
240.957
240.99
241.062
241.171
241.275
241.359
241.426
241.482
241.531
241.575
241.616
241.653
241.686
241.718
241.745
241.773
241.796
241.818
241.836
241.855
241.884
241.923
241.981
242.073
242.219
242.45
242.817
243.391
244.284
245.645
247.688
250.674
254.944
260.891
268.975
279.681
293.475
310.701
331.386
354.877
379.372
401.692
417.86
425.895
428.361
428.711
428.712
428.625
428.451
428.218
427.911
427.572
427.273
427.088
427.026
427.016
427.018
427.031
427.054
427.081
427.117
427.164
427.229
427.293
427.338
427.371
427.388
427.388
427.377
427.351
427.308
427.255
427.21
427.183
427.17
427.167
427.173
427.184
427.192
427.203
427.214
427.222
427.223
427.22
427.215
427.215
427.214
427.213
427.211
427.207
427.201
427.192
427.183
427.175
427.17
427.167
427.167
427.17
427.178
427.19
427.204
427.218
427.23
427.24
427.248
427.254
427.258
427.263
427.267
427.275
427.285
427.299
427.316
427.336
427.357
427.377
427.392
427.399
427.399
427.394
427.377
427.348
427.304
427.241
427.161
427.075
427.003
426.96
426.94
426.934
426.935
426.942
426.959
426.988
427.028
427.073
427.115
427.149
427.171
427.183
427.188
427.19
427.191
427.193
427.199
427.208
427.219
427.232
427.246
427.258
427.268
427.275
427.278
427.279
427.279
427.28
427.281
427.283
427.287
427.291
427.296
427.301
427.304
427.308
427.311
427.314
427.316
427.319
427.322
427.326
427.329
427.333
427.335
427.337
427.337
427.337
427.336
427.334
427.332
427.331
427.331
427.331
427.333
427.335
427.338
427.341
427.344
427.347
427.349
427.35
427.35
427.35
427.35
427.351
427.351
427.351
427.351
427.351
427.35
427.349
427.348
427.348
427.348
427.349
427.35
427.352
427.354
427.356
427.359
427.36
427.361
427.362
427.362
427.362
427.361
427.356
427.322
427.109
425.774
417.847
383.353
317.113
293.677
293.001
293
293
293
293
293
293
293
293
293
293
293
293
293
293
293
293
293
293
293
293
293
293
293
293
293
293
293
293
293
293
293
293
293
293
293
293
293
293
293
293
293
293
293
293
293
293
293
293
293
293
293
293
293
293
233.19
233.19
233.19
233.19
233.19
233.19
233.19
233.19
233.19
233.19
233.19
233.19
233.19
233.19
233.194
233.29
235.049
240.647
241.851
241.982
242.017
242.035
242.037
242.033
242.022
242.007
241.991
241.989
241.998
242.021
242.057
242.093
242.11
242.109
242.1
242.079
242.05
242.025
242.02
242.023
242.035
242.06
242.091
242.109
242.108
242.103
242.087
242.061
242.034
242.02
242.019
242.024
242.037
242.057
242.071
242.074
242.072
242.065
242.049
242.031
242.024
242.024
242.027
242.036
242.051
242.063
242.068
242.068
242.064
242.056
242.047
242.045
242.045
242.047
242.053
242.063
242.068
242.069
242.066
242.061
242.054
242.046
242.042
242.042
242.044
242.049
242.056
242.062
242.063
242.063
242.061
242.056
242.049
242.044
242.043
242.044
242.046
242.049
242.053
242.056
242.056
242.056
242.054
242.05
242.047
242.046
242.046
242.046
242.047
242.049
242.052
242.054
242.056
242.058
242.058
242.058
242.058
242.057
242.056
242.054
242.053
242.053
242.053
242.053
242.053
242.053
242.053
242.052
242.051
242.05
242.049
242.049
242.049
242.05
242.052
242.054
242.055
242.054
242.054
242.054
242.054
242.053
242.053
242.053
242.053
242.053
242.052
242.052
242.052
242.052
242.052
242.052
242.053
242.053
242.053
242.053
242.053
242.053
242.054
242.053
242.054
242.056
242.068
242.081
242.067
241.986
241.8
241.535
241.259
241.045
240.933
240.911
240.91
240.907
240.886
240.857
240.834
240.837
240.849
240.868
240.886
240.901
240.909
240.922
240.93
240.944
240.958
240.988
241.059
241.171
241.279
241.361
241.425
241.479
241.529
241.575
241.617
241.654
241.687
241.717
241.744
241.772
241.796
241.818
241.836
241.855
241.884
241.923
241.981
242.073
242.217
242.446
242.811
243.382
244.269
245.625
247.66
250.636
254.895
260.83
268.902
279.597
293.382
310.603
331.285
354.769
379.249
401.57
417.781
425.855
428.346
428.713
428.718
428.636
428.46
428.225
427.916
427.575
427.274
427.085
427.021
427.013
427.017
427.031
427.054
427.083
427.12
427.166
427.228
427.291
427.336
427.369
427.386
427.387
427.377
427.352
427.309
427.257
427.212
427.184
427.17
427.167
427.172
427.183
427.192
427.203
427.214
427.222
427.224
427.22
427.215
427.215
427.214
427.213
427.211
427.207
427.201
427.192
427.183
427.175
427.17
427.167
427.167
427.17
427.178
427.19
427.204
427.218
427.23
427.24
427.248
427.254
427.259
427.263
427.268
427.275
427.285
427.298
427.315
427.335
427.355
427.374
427.388
427.396
427.396
427.39
427.375
427.347
427.304
427.24
427.158
427.069
426.992
426.946
426.925
426.92
426.922
426.93
426.949
426.983
427.028
427.079
427.125
427.159
427.178
427.186
427.189
427.188
427.188
427.19
427.195
427.204
427.216
427.231
427.246
427.26
427.27
427.276
427.279
427.279
427.279
427.279
427.28
427.282
427.286
427.291
427.297
427.301
427.305
427.309
427.312
427.314
427.315
427.318
427.322
427.325
427.329
427.333
427.336
427.337
427.338
427.337
427.336
427.334
427.332
427.331
427.33
427.331
427.333
427.335
427.338
427.341
427.344
427.347
427.349
427.35
427.35
427.35
427.35
427.35
427.351
427.351
427.351
427.351
427.35
427.349
427.349
427.348
427.348
427.349
427.35
427.352
427.354
427.357
427.359
427.36
427.361
427.362
427.362
427.362
427.361
427.355
427.322
427.109
425.774
417.847
383.353
317.113
293.677
293.001
293
293
293
293
293
293
293
293
293
293
293
293
293
293
293
293
293
293
293
293
293
293
293
293
293
293
293
293
293
293
293
293
293
293
293
293
293
293
293
293
293
293
293
293
293
293
293
293
293
293
293
293
293
293
233.19
233.19
233.19
233.19
233.19
233.19
233.19
233.19
233.19
233.19
233.19
233.19
233.19
233.19
233.194
233.29
235.049
240.647
241.851
241.982
242.017
242.035
242.037
242.033
242.022
242.007
241.991
241.989
241.998
242.021
242.057
242.093
242.11
242.109
242.1
242.079
242.05
242.025
242.02
242.023
242.035
242.06
242.091
242.109
242.108
242.103
242.087
242.061
242.034
242.02
242.019
242.024
242.037
242.057
242.071
242.074
242.072
242.065
242.049
242.031
242.024
242.024
242.027
242.036
242.051
242.063
242.068
242.068
242.064
242.056
242.047
242.045
242.045
242.047
242.053
242.063
242.068
242.069
242.066
242.061
242.054
242.046
242.042
242.042
242.044
242.049
242.056
242.062
242.063
242.063
242.061
242.056
242.049
242.044
242.043
242.044
242.046
242.049
242.053
242.056
242.056
242.056
242.054
242.05
242.047
242.046
242.046
242.046
242.047
242.049
242.052
242.054
242.056
242.058
242.058
242.058
242.058
242.057
242.056
242.054
242.053
242.053
242.053
242.053
242.053
242.053
242.053
242.052
242.051
242.05
242.049
242.049
242.049
242.05
242.052
242.054
242.055
242.054
242.054
242.054
242.054
242.053
242.053
242.053
242.053
242.053
242.052
242.052
242.052
242.052
242.052
242.052
242.053
242.053
242.053
242.053
242.053
242.053
242.054
242.053
242.054
242.056
242.068
242.081
242.067
241.987
241.801
241.534
241.257
241.044
240.93
240.913
240.913
240.911
240.889
240.856
240.831
240.834
240.847
240.867
240.886
240.902
240.909
240.923
240.931
240.945
240.959
240.986
241.056
241.171
241.283
241.363
241.424
241.476
241.527
241.575
241.618
241.655
241.687
241.716
241.743
241.771
241.795
241.817
241.836
241.855
241.884
241.924
241.983
242.073
242.216
242.442
242.805
243.375
244.262
245.615
247.646
250.616
254.867
260.795
268.862
279.553
293.338
310.559
331.244
354.724
379.191
401.505
417.73
425.81
428.328
428.715
428.726
428.651
428.472
428.234
427.921
427.577
427.275
427.083
427.016
427.011
427.015
427.03
427.055
427.086
427.123
427.167
427.227
427.289
427.334
427.367
427.384
427.386
427.376
427.352
427.311
427.259
427.213
427.184
427.17
427.166
427.171
427.182
427.191
427.202
427.214
427.222
427.224
427.221
427.215
427.215
427.214
427.213
427.211
427.207
427.201
427.192
427.183
427.176
427.17
427.167
427.167
427.17
427.178
427.189
427.204
427.218
427.23
427.24
427.248
427.254
427.259
427.263
427.268
427.275
427.284
427.298
427.314
427.333
427.352
427.37
427.384
427.392
427.392
427.386
427.372
427.346
427.303
427.239
427.156
427.062
426.98
426.928
426.906
426.901
426.904
426.914
426.936
426.976
427.029
427.087
427.137
427.17
427.185
427.19
427.189
427.187
427.185
427.186
427.19
427.2
427.213
427.23
427.247
427.263
427.273
427.278
427.279
427.278
427.278
427.278
427.278
427.281
427.285
427.291
427.297
427.302
427.306
427.31
427.312
427.314
427.315
427.317
427.32
427.324
427.329
427.333
427.336
427.338
427.338
427.338
427.336
427.334
427.331
427.33
427.33
427.331
427.332
427.335
427.338
427.342
427.345
427.347
427.349
427.35
427.349
427.349
427.35
427.35
427.351
427.351
427.351
427.351
427.35
427.349
427.349
427.348
427.348
427.349
427.35
427.352
427.354
427.357
427.359
427.36
427.361
427.362
427.362
427.362
427.361
427.355
427.322
427.109
425.774
417.847
383.354
317.113
293.677
293.001
293
293
293
293
293
293
293
293
293
293
293
293
293
293
293
293
293
293
293
293
293
293
293
293
293
293
293
293
293
293
293
293
293
293
293
293
293
293
293
293
293
293
293
293
293
293
293
293
293
293
293
293
293
293
233.19
233.19
233.19
233.19
233.19
233.19
233.19
233.19
233.19
233.19
233.19
233.19
233.19
233.19
233.194
233.29
235.049
240.647
241.851
241.982
242.017
242.035
242.037
242.033
242.022
242.007
241.991
241.989
241.998
242.021
242.057
242.093
242.11
242.109
242.1
242.079
242.05
242.025
242.02
242.023
242.035
242.06
242.091
242.109
242.108
242.103
242.087
242.061
242.034
242.02
242.019
242.024
242.037
242.057
242.071
242.074
242.072
242.065
242.049
242.031
242.024
242.024
242.027
242.036
242.051
242.063
242.068
242.068
242.064
242.056
242.047
242.045
242.045
242.047
242.053
242.063
242.068
242.069
242.066
242.061
242.054
242.046
242.042
242.042
242.044
242.049
242.056
242.062
242.063
242.063
242.061
242.056
242.049
242.044
242.043
242.044
242.046
242.049
242.053
242.056
242.056
242.056
242.054
242.05
242.047
242.046
242.046
242.046
242.047
242.049
242.052
242.054
242.056
242.058
242.058
242.058
242.058
242.057
242.056
242.054
242.053
242.053
242.053
242.053
242.053
242.053
242.053
242.052
242.051
242.05
242.049
242.049
242.049
242.05
242.052
242.054
242.055
242.054
242.054
242.054
242.054
242.053
242.053
242.053
242.053
242.053
242.052
242.052
242.052
242.052
242.052
242.052
242.053
242.053
242.053
242.053
242.053
242.053
242.054
242.053
242.054
242.056
242.068
242.081
242.067
241.987
241.801
241.532
241.256
241.044
240.928
240.914
240.916
240.914
240.891
240.855
240.828
240.832
240.846
240.867
240.887
240.902
240.91
240.924
240.932
240.947
240.96
240.985
241.052
241.171
241.286
241.364
241.423
241.474
241.525
241.574
241.619
241.656
241.687
241.716
241.743
241.771
241.795
241.817
241.835
241.855
241.885
241.926
241.985
242.074
242.215
242.438
242.8
243.371
244.259
245.614
247.646
250.613
254.862
260.786
268.851
279.541
293.325
310.551
331.239
354.718
379.172
401.474
417.694
425.763
428.308
428.715
428.734
428.666
428.484
428.242
427.925
427.579
427.274
427.079
427.011
427.008
427.014
427.029
427.056
427.088
427.126
427.17
427.226
427.288
427.332
427.365
427.383
427.385
427.376
427.352
427.312
427.261
427.215
427.185
427.17
427.166
427.17
427.181
427.191
427.202
427.214
427.222
427.224
427.221
427.215
427.215
427.215
427.213
427.211
427.207
427.201
427.193
427.184
427.176
427.17
427.167
427.167
427.17
427.177
427.189
427.203
427.218
427.23
427.24
427.248
427.254
427.259
427.263
427.268
427.275
427.284
427.297
427.313
427.332
427.351
427.369
427.381
427.39
427.389
427.382
427.369
427.343
427.302
427.239
427.154
427.057
426.968
426.911
426.887
426.882
426.885
426.897
426.923
426.969
427.03
427.096
427.149
427.181
427.192
427.193
427.191
427.186
427.182
427.182
427.186
427.195
427.21
427.229
427.248
427.265
427.275
427.279
427.279
427.278
427.276
427.276
427.277
427.279
427.284
427.291
427.298
427.304
427.308
427.311
427.313
427.314
427.314
427.316
427.319
427.323
427.328
427.333
427.336
427.338
427.339
427.338
427.336
427.334
427.331
427.33
427.33
427.33
427.332
427.335
427.339
427.342
427.345
427.347
427.349
427.349
427.349
427.349
427.349
427.35
427.351
427.351
427.351
427.351
427.35
427.349
427.349
427.348
427.348
427.349
427.35
427.352
427.354
427.357
427.359
427.36
427.361
427.362
427.362
427.362
427.361
427.355
427.322
427.109
425.774
417.847
383.354
317.113
293.677
293.001
293
293
293
293
293
293
293
293
293
293
293
293
293
293
293
293
293
293
293
293
293
293
293
293
293
293
293
293
293
293
293
293
293
293
293
293
293
293
293
293
293
293
293
293
293
293
293
293
293
293
293
293
293
293
233.19
233.19
233.19
233.19
233.19
233.19
233.19
233.19
233.19
233.19
233.19
233.19
233.19
233.19
233.194
233.29
235.049
240.647
241.851
241.982
242.017
242.035
242.037
242.033
242.022
242.007
241.991
241.989
241.998
242.021
242.057
242.093
242.11
242.109
242.1
242.079
242.05
242.025
242.02
242.023
242.035
242.06
242.091
242.109
242.108
242.103
242.087
242.061
242.034
242.02
242.019
242.024
242.037
242.057
242.071
242.074
242.072
242.065
242.049
242.031
242.024
242.024
242.027
242.036
242.051
242.063
242.068
242.068
242.064
242.056
242.047
242.045
242.045
242.047
242.053
242.063
242.068
242.069
242.066
242.061
242.054
242.046
242.042
242.042
242.044
242.049
242.056
242.062
242.063
242.063
242.061
242.056
242.049
242.044
242.043
242.044
242.046
242.049
242.053
242.056
242.056
242.056
242.054
242.05
242.047
242.046
242.046
242.046
242.047
242.049
242.052
242.054
242.056
242.058
242.058
242.058
242.058
242.057
242.056
242.054
242.053
242.053
242.053
242.053
242.053
242.053
242.053
242.052
242.051
242.05
242.049
242.049
242.049
242.05
242.052
242.054
242.055
242.054
242.054
242.054
242.054
242.053
242.053
242.053
242.053
242.053
242.052
242.052
242.052
242.052
242.052
242.052
242.053
242.053
242.053
242.053
242.053
242.053
242.054
242.053
242.054
242.056
242.068
242.081
242.067
241.988
241.801
241.532
241.255
241.043
240.927
240.915
240.918
240.916
240.892
240.854
240.826
240.831
240.845
240.867
240.887
240.902
240.91
240.924
240.933
240.948
240.96
240.985
241.05
241.172
241.288
241.366
241.422
241.472
241.524
241.574
241.619
241.656
241.687
241.716
241.743
241.771
241.795
241.816
241.835
241.856
241.886
241.928
241.987
242.075
242.213
242.436
242.796
243.369
244.259
245.617
247.649
250.616
254.863
260.786
268.85
279.539
293.321
310.549
331.241
354.721
379.168
401.46
417.68
425.724
428.291
428.714
428.739
428.678
428.495
428.248
427.929
427.58
427.274
427.077
427.007
427.007
427.013
427.029
427.057
427.09
427.128
427.172
427.226
427.287
427.33
427.363
427.381
427.385
427.376
427.352
427.313
427.262
427.216
427.185
427.17
427.166
427.17
427.181
427.19
427.202
427.214
427.222
427.224
427.221
427.215
427.215
427.215
427.214
427.211
427.207
427.201
427.193
427.184
427.176
427.17
427.167
427.167
427.17
427.177
427.189
427.203
427.217
427.23
427.24
427.248
427.255
427.259
427.263
427.268
427.275
427.284
427.297
427.313
427.331
427.351
427.366
427.378
427.387
427.385
427.38
427.367
427.342
427.303
427.241
427.155
427.056
426.963
426.898
426.872
426.866
426.869
426.882
426.912
426.963
427.031
427.103
427.159
427.188
427.196
427.195
427.192
427.185
427.18
427.18
427.183
427.192
427.207
427.228
427.249
427.267
427.277
427.28
427.28
427.278
427.276
427.275
427.275
427.278
427.283
427.29
427.298
427.305
427.309
427.312
427.314
427.314
427.314
427.315
427.318
427.322
427.327
427.333
427.337
427.339
427.339
427.339
427.337
427.334
427.331
427.33
427.329
427.33
427.332
427.335
427.339
427.342
427.345
427.348
427.349
427.349
427.349
427.349
427.349
427.35
427.351
427.351
427.351
427.351
427.35
427.35
427.349
427.348
427.348
427.349
427.35
427.352
427.354
427.357
427.359
427.361
427.361
427.362
427.362
427.362
427.361
427.355
427.321
427.109
425.774
417.847
383.354
317.113
293.677
293.001
293
293
293
293
293
293
293
293
293
293
293
293
293
293
293
293
293
293
293
293
293
293
293
293
293
293
293
293
293
293
293
293
293
293
293
293
293
293
293
293
293
293
293
293
293
293
293
293
293
293
293
293
293
293
233.19
233.19
233.19
233.19
233.19
233.19
233.19
233.19
233.19
233.19
233.19
233.19
233.19
233.19
233.194
233.29
235.049
240.647
241.851
241.982
242.017
242.035
242.037
242.033
242.022
242.007
241.991
241.989
241.998
242.021
242.057
242.093
242.11
242.109
242.1
242.079
242.05
242.025
242.02
242.023
242.035
242.06
242.091
242.109
242.108
242.103
242.087
242.061
242.034
242.02
242.019
242.024
242.037
242.057
242.071
242.074
242.072
242.065
242.049
242.031
242.024
242.024
242.027
242.036
242.051
242.063
242.068
242.068
242.064
242.056
242.047
242.045
242.045
242.047
242.053
242.063
242.068
242.069
242.066
242.061
242.054
242.046
242.042
242.042
242.044
242.049
242.056
242.062
242.063
242.063
242.061
242.056
242.049
242.044
242.043
242.044
242.046
242.049
242.053
242.056
242.056
242.056
242.054
242.05
242.047
242.046
242.046
242.046
242.047
242.049
242.052
242.054
242.056
242.058
242.058
242.058
242.058
242.057
242.056
242.054
242.053
242.053
242.053
242.053
242.053
242.053
242.053
242.052
242.051
242.05
242.049
242.049
242.049
242.05
242.052
242.054
242.055
242.054
242.054
242.054
242.054
242.053
242.053
242.053
242.053
242.053
242.052
242.052
242.052
242.052
242.052
242.052
242.053
242.053
242.053
242.053
242.053
242.053
242.054
242.053
242.054
242.056
242.068
242.081
242.068
241.988
241.801
241.531
241.255
241.043
240.927
240.916
240.919
240.917
240.893
240.853
240.825
240.83
240.844
240.867
240.887
240.903
240.91
240.924
240.933
240.948
240.96
240.984
241.049
241.172
241.288
241.366
241.421
241.471
241.523
241.574
241.619
241.656
241.687
241.716