/*--------------------------------*- C++ -*----------------------------------*\
| =========                 |                                                 |
| \\      /  F ield         | OpenFOAM: The Open Source CFD Toolbox           |
|  \\    /   O peration     | Version:  2406                                  |
|   \\  /    A nd           | Website:  www.openfoam.com                      |
|    \\/     M anipulation  |                                                 |
\*---------------------------------------------------------------------------*/
FoamFile
{
    version     2.0;
    format      ascii;
    arch        "LSB;label=32;scalar=64";
    class       volScalarField;
    location    "0.075";
    object      Ma;
}
// * * * * * * * * * * * * * * * * * * * * * * * * * * * * * * * * * * * * * //

dimensions      [0 0 0 0 0 0 0];

internalField   nonuniform List<scalar> 
13818
(
7.01175e-14
4.62774e-14
3.11961e-14
4.43141e-14
4.06979e-14
2.93818e-14
4.68173e-14
5.56427e-14
5.57791e-14
5.16579e-14
5.00269e-14
5.66544e-14
6.62832e-14
7.74428e-14
8.22329e-14
8.48126e-14
8.65072e-14
9.68504e-14
1.1234e-13
1.10071e-13
1.08994e-13
1.06299e-13
1.03509e-13
8.49756e-14
6.46792e-14
6.36494e-14
6.09822e-14
5.92368e-14
5.77423e-14
5.09674e-14
5.47318e-14
5.23952e-14
5.38754e-14
4.60644e-14
3.95543e-14
6.25503e-14
8.73533e-14
7.9357e-14
6.84688e-14
5.38002e-14
3.56698e-14
3.71471e-14
2.84496e-14
4.11157e-14
4.67251e-14
4.27742e-14
5.54573e-14
4.50959e-14
2.62876e-14
4.27116e-14
6.07473e-14
5.45223e-14
5.72208e-14
4.50392e-14
3.73571e-14
3.38137e-14
3.74855e-14
3.94849e-14
3.58561e-14
3.00406e-14
3.13704e-14
3.50143e-14
4.08974e-14
4.01624e-14
5.04604e-14
5.24169e-14
3.94006e-14
1.96886e-14
2.33621e-14
2.92518e-14
3.43108e-14
2.96395e-14
2.63483e-14
3.51371e-14
3.66636e-14
3.92928e-14
4.89997e-14
5.9306e-14
4.60893e-14
3.40102e-14
2.27896e-14
2.04554e-14
2.06409e-14
2.57715e-14
2.82084e-14
3.27199e-14
3.44909e-14
3.75559e-14
3.30413e-14
4.05466e-14
3.34834e-14
3.45584e-14
2.56667e-14
3.06456e-14
2.27059e-14
2.04085e-14
2.30261e-14
2.09617e-14
3.17646e-14
3.45113e-14
2.85454e-14
3.62427e-14
5.58474e-14
7.09363e-14
4.95215e-14
2.11971e-14
6.23897e-14
4.85902e-14
3.99744e-14
5.48215e-14
4.38303e-14
3.56769e-14
5.3232e-14
5.32889e-14
5.00407e-14
4.93715e-14
5.39592e-14
5.80131e-14
6.86602e-14
7.82566e-14
8.21781e-14
8.869e-14
9.65021e-14
1.10647e-13
1.23108e-13
1.15389e-13
1.14869e-13
1.09526e-13
9.48131e-14
8.01287e-14
7.58633e-14
7.56445e-14
6.32484e-14
6.85514e-14
6.41527e-14
5.5923e-14
6.19521e-14
5.73407e-14
4.93285e-14
5.07373e-14
4.52002e-14
5.91668e-14
7.87337e-14
7.35859e-14
7.57057e-14
5.8478e-14
3.97742e-14
3.80623e-14
3.39806e-14
3.92164e-14
4.95027e-14
4.6639e-14
5.85798e-14
4.85274e-14
3.28201e-14
5.19828e-14
5.1308e-14
5.33436e-14
5.85023e-14
5.80335e-14
5.40365e-14
4.98441e-14
4.5887e-14
4.37216e-14
4.53611e-14
4.14625e-14
3.24202e-14
3.53814e-14
3.91932e-14
4.22077e-14
4.23872e-14
5.86483e-14
5.12112e-14
3.95585e-14
3.37211e-14
4.45753e-14
4.31876e-14
3.9983e-14
3.73327e-14
4.31216e-14
4.47855e-14
4.49675e-14
5.68244e-14
6.78237e-14
6.00714e-14
3.84293e-14
2.8757e-14
3.81604e-14
4.36053e-14
4.59856e-14
4.59951e-14
4.78498e-14
4.8699e-14
4.61919e-14
4.23304e-14
4.57965e-14
4.54388e-14
3.88898e-14
3.41909e-14
2.99258e-14
2.59106e-14
3.22973e-14
2.54226e-14
2.59125e-14
3.80953e-14
4.68005e-14
4.16586e-14
4.20197e-14
4.35984e-14
5.65483e-14
4.84549e-14
2.48735e-14
5.35986e-14
5.02449e-14
4.93267e-14
4.9554e-14
3.71702e-14
4.04282e-14
5.03824e-14
5.47526e-14
5.10617e-14
5.53263e-14
5.88935e-14
6.06203e-14
6.88905e-14
7.65589e-14
8.30615e-14
9.20098e-14
1.00889e-13
1.1238e-13
1.15572e-13
1.04922e-13
1.0411e-13
9.94151e-14
8.33419e-14
7.98533e-14
8.51492e-14
7.30087e-14
6.76617e-14
6.96029e-14
6.21639e-14
5.82782e-14
6.08968e-14
5.75558e-14
5.48858e-14
4.56513e-14
4.42822e-14
5.2053e-14
6.63594e-14
5.82357e-14
5.41315e-14
4.80168e-14
5.06191e-14
4.34096e-14
4.01443e-14
3.93541e-14
4.64463e-14
4.66593e-14
4.21515e-14
3.77046e-14
4.1316e-14
4.69573e-14
5.07291e-14
5.60749e-14
6.66762e-14
6.4036e-14
6.41716e-14
5.84091e-14
4.82084e-14
4.85934e-14
4.12505e-14
5.07682e-14
4.51704e-14
3.32585e-14
3.19248e-14
4.10937e-14
4.61594e-14
5.59962e-14
5.45735e-14
5.0526e-14
5.51516e-14
4.05309e-14
4.09616e-14
3.54446e-14
4.24521e-14
4.26751e-14
4.54763e-14
5.09971e-14
6.02751e-14
6.4502e-14
6.02879e-14
4.54478e-14
4.42523e-14
5.16887e-14
5.21035e-14
5.49452e-14
5.47549e-14
5.49065e-14
4.53426e-14
4.28403e-14
4.67833e-14
5.44434e-14
5.37476e-14
4.1216e-14
3.76347e-14
2.72333e-14
3.19745e-14
3.57071e-14
2.9851e-14
2.91781e-14
3.27865e-14
3.59455e-14
3.99808e-14
3.73043e-14
3.28778e-14
3.5668e-14
3.56655e-14
3.08331e-14
5.51226e-14
5.29689e-14
5.26579e-14
4.41076e-14
3.67489e-14
4.74949e-14
5.25611e-14
4.9002e-14
4.64308e-14
5.78318e-14
5.54292e-14
5.91045e-14
7.12543e-14
7.50658e-14
8.20823e-14
8.72381e-14
9.71606e-14
1.01535e-13
9.35889e-14
8.89891e-14
9.73301e-14
9.40216e-14
7.99717e-14
8.16614e-14
7.80486e-14
6.71781e-14
6.84218e-14
6.66266e-14
6.55534e-14
5.98618e-14
5.56324e-14
5.68836e-14
5.17151e-14
4.31005e-14
4.87672e-14
4.98769e-14
5.38974e-14
4.92761e-14
3.68454e-14
3.57119e-14
4.35121e-14
3.88379e-14
3.664e-14
3.42931e-14
4.13978e-14
4.39355e-14
3.91835e-14
3.72407e-14
3.90288e-14
3.7663e-14
4.38018e-14
5.34429e-14
7.11241e-14
7.1322e-14
6.95541e-14
6.20987e-14
5.13633e-14
5.04066e-14
4.19303e-14
4.95424e-14
5.36599e-14
4.06312e-14
4.50756e-14
4.95656e-14
5.53886e-14
6.51631e-14
6.93963e-14
6.9921e-14
7.39884e-14
4.65614e-14
2.95672e-14
3.21559e-14
4.70954e-14
5.06989e-14
4.85746e-14
5.2336e-14
5.78378e-14
6.02864e-14
6.39387e-14
5.46975e-14
5.90856e-14
5.76915e-14
5.33071e-14
5.94435e-14
6.41913e-14
6.64617e-14
4.83561e-14
3.81997e-14
4.95958e-14
6.29519e-14
5.97982e-14
3.84756e-14
3.94049e-14
2.88551e-14
3.4017e-14
3.7521e-14
3.49144e-14
3.11053e-14
2.38518e-14
2.0885e-14
3.33644e-14
5.00184e-14
4.47213e-14
3.91695e-14
3.58878e-14
5.04063e-14
5.50967e-14
5.52917e-14
4.86783e-14
4.1421e-14
4.76678e-14
4.64678e-14
4.55055e-14
4.56339e-14
5.04932e-14
4.72412e-14
5.34381e-14
6.84087e-14
8.01115e-14
8.1152e-14
8.82878e-14
9.03592e-14
9.09768e-14
8.71721e-14
9.14365e-14
1.02118e-13
8.97643e-14
7.3511e-14
7.84468e-14
7.42449e-14
6.89557e-14
7.09066e-14
7.31151e-14
6.29732e-14
5.89036e-14
5.44877e-14
5.65337e-14
4.89697e-14
3.8022e-14
3.87048e-14
3.68501e-14
3.74534e-14
3.97877e-14
3.80485e-14
3.5865e-14
3.06271e-14
4.11866e-14
3.92083e-14
3.83636e-14
3.68871e-14
4.43359e-14
4.72543e-14
4.07798e-14
3.63796e-14
3.52001e-14
3.42618e-14
4.19732e-14
6.3552e-14
7.04706e-14
8.03562e-14
7.66385e-14
5.73122e-14
4.30664e-14
4.14354e-14
4.14763e-14
4.61794e-14
5.7831e-14
6.20033e-14
6.66102e-14
6.90388e-14
7.95718e-14
8.82001e-14
8.35608e-14
8.07806e-14
5.71997e-14
2.46387e-14
3.62116e-14
5.16017e-14
5.92903e-14
4.68449e-14
5.53017e-14
6.00543e-14
5.99975e-14
6.11648e-14
5.84726e-14
5.8633e-14
4.88642e-14
4.51132e-14
5.63114e-14
6.91039e-14
7.56549e-14
5.43448e-14
3.41589e-14
4.86197e-14
7.22221e-14
5.85626e-14
4.04059e-14
3.04872e-14
3.66039e-14
4.07746e-14
4.41081e-14
3.17101e-14
2.87218e-14
1.9726e-14
1.86995e-14
2.8235e-14
4.64014e-14
4.95773e-14
4.68741e-14
3.27721e-14
5.21343e-14
5.55607e-14
5.33654e-14
4.34952e-14
3.7892e-14
4.05659e-14
4.60834e-14
4.7163e-14
4.51569e-14
4.83264e-14
4.24202e-14
4.69463e-14
6.80356e-14
8.24042e-14
8.83514e-14
9.53548e-14
8.95225e-14
8.70022e-14
9.07146e-14
9.62592e-14
9.73755e-14
8.15282e-14
7.23517e-14
8.19363e-14
7.67218e-14
7.06037e-14
7.6686e-14
7.64921e-14
6.39841e-14
6.02469e-14
5.83205e-14
5.60184e-14
4.21982e-14
3.24784e-14
2.64652e-14
2.79831e-14
3.34859e-14
3.42896e-14
4.02007e-14
3.09041e-14
2.66258e-14
3.75189e-14
3.88896e-14
4.28623e-14
3.82144e-14
3.89498e-14
4.25577e-14
4.1911e-14
3.9936e-14
3.72232e-14
3.55227e-14
2.72162e-14
3.72224e-14
5.50941e-14
6.82268e-14
6.62278e-14
5.36994e-14
4.45606e-14
5.58427e-14
5.81029e-14
5.67418e-14
7.36127e-14
7.62931e-14
7.72632e-14
7.51691e-14
8.92458e-14
9.40373e-14
9.83094e-14
8.60073e-14
5.50307e-14
2.93932e-14
3.47657e-14
4.61736e-14
5.66067e-14
5.16192e-14
5.98258e-14
5.50986e-14
4.78224e-14
4.81819e-14
4.89918e-14
4.54078e-14
3.32357e-14
3.53087e-14
4.72233e-14
5.73104e-14
6.75027e-14
5.21431e-14
4.22808e-14
5.36637e-14
7.34445e-14
6.45895e-14
4.55296e-14
2.88576e-14
3.52546e-14
3.66093e-14
3.90555e-14
2.72391e-14
2.88649e-14
1.62312e-14
1.28135e-14
2.37734e-14
4.14e-14
4.80924e-14
4.34292e-14
2.98399e-14
4.34778e-14
4.93181e-14
4.79352e-14
3.90835e-14
3.5908e-14
4.39905e-14
5.06843e-14
4.93271e-14
4.67529e-14
4.61734e-14
3.96006e-14
5.25245e-14
7.39282e-14
8.72852e-14
9.33308e-14
9.28167e-14
8.84711e-14
8.56549e-14
9.78134e-14
1.01673e-13
9.13561e-14
8.31393e-14
7.95812e-14
8.49578e-14
7.27153e-14
7.36631e-14
8.29013e-14
7.54258e-14
6.12369e-14
6.23874e-14
6.24851e-14
5.27867e-14
4.52989e-14
3.78077e-14
3.45301e-14
2.90653e-14
3.46549e-14
3.19395e-14
3.19753e-14
3.59543e-14
3.83644e-14
4.34475e-14
3.87789e-14
4.31475e-14
4.67429e-14
4.5793e-14
3.8618e-14
4.23861e-14
4.41315e-14
4.8592e-14
4.54335e-14
3.62518e-14
3.0856e-14
3.76098e-14
5.71418e-14
5.45811e-14
5.87438e-14
5.27481e-14
6.90268e-14
6.97235e-14
6.93114e-14
8.26972e-14
8.75414e-14
8.20694e-14
7.23879e-14
8.90944e-14
9.66267e-14
1.04321e-13
8.26823e-14
4.40588e-14
4.28004e-14
4.11212e-14
5.00424e-14
5.43459e-14
5.47422e-14
6.37078e-14
5.03306e-14
4.16246e-14
4.23216e-14
4.3689e-14
4.3447e-14
3.89729e-14
4.77896e-14
4.32796e-14
5.18276e-14
6.63187e-14
5.48859e-14
4.8168e-14
6.22189e-14
7.27091e-14
6.1569e-14
4.43271e-14
4.29756e-14
3.43837e-14
3.70048e-14
4.28176e-14
3.62785e-14
2.93546e-14
2.21301e-14
1.69442e-14
2.91955e-14
4.2086e-14
4.058e-14
3.92724e-14
3.50313e-14
4.00698e-14
4.65055e-14
4.27539e-14
4.06373e-14
4.01909e-14
5.30094e-14
6.22589e-14
5.11988e-14
4.81224e-14
4.83678e-14
4.50816e-14
5.60488e-14
7.15568e-14
8.76033e-14
9.65507e-14
9.72497e-14
8.66965e-14
8.69084e-14
1.01278e-13
1.04816e-13
9.19349e-14
8.61144e-14
8.58202e-14
8.84764e-14
7.96111e-14
7.94309e-14
8.20979e-14
7.12037e-14
7.36848e-14
7.96021e-14
7.58901e-14
6.4926e-14
5.73676e-14
5.55525e-14
4.78933e-14
4.31626e-14
4.09703e-14
3.429e-14
3.96233e-14
4.70245e-14
4.78074e-14
4.93602e-14
5.61823e-14
5.05793e-14
5.07278e-14
5.41245e-14
5.35102e-14
4.88567e-14
5.21867e-14
5.12991e-14
5.68341e-14
5.54761e-14
5.3844e-14
4.60187e-14
4.67856e-14
5.25806e-14
5.11902e-14
5.51479e-14
5.36324e-14
5.6369e-14
5.85415e-14
6.20826e-14
6.14423e-14
5.89742e-14
5.47733e-14
5.60541e-14
6.56822e-14
6.92365e-14
6.06151e-14
4.60189e-14
4.89841e-14
5.25348e-14
6.29116e-14
6.98545e-14
7.21336e-14
7.04887e-14
6.42573e-14
6.13019e-14
6.36663e-14
5.97679e-14
5.19349e-14
5.72685e-14
5.84209e-14
5.95035e-14
6.5572e-14
6.4057e-14
5.49566e-14
4.71429e-14
5.81166e-14
5.57009e-14
5.36238e-14
5.7587e-14
5.92026e-14
5.41207e-14
5.06944e-14
3.98799e-14
3.90372e-14
3.46045e-14
3.90594e-14
3.76593e-14
4.0453e-14
4.17613e-14
4.52337e-14
4.77973e-14
5.28692e-14
3.8751e-14
4.04328e-14
3.93119e-14
4.88638e-14
4.77595e-14
5.40649e-14
6.31606e-14
5.49651e-14
4.55123e-14
4.45257e-14
5.20593e-14
6.44176e-14
8.10986e-14
9.52239e-14
1.02478e-13
9.52302e-14
9.29513e-14
9.91211e-14
1.07763e-13
1.01332e-13
9.19183e-14
8.81872e-14
9.56088e-14
8.86152e-14
8.12034e-14
7.58499e-14
7.75576e-14
6.97561e-14
7.25657e-14
7.9649e-14
7.37769e-14
6.75977e-14
6.40992e-14
5.99312e-14
4.83775e-14
4.298e-14
3.89836e-14
4.24513e-14
4.91327e-14
4.30599e-14
4.40679e-14
4.22296e-14
4.88534e-14
4.89853e-14
4.87024e-14
5.18668e-14
5.81412e-14
5.28999e-14
5.1372e-14
5.33894e-14
5.47163e-14
5.50103e-14
6.37879e-14
6.2353e-14
5.37001e-14
4.70966e-14
4.45117e-14
5.0179e-14
4.42978e-14
5.05695e-14
5.01954e-14
4.36482e-14
4.7757e-14
4.99114e-14
4.87175e-14
3.78517e-14
3.85588e-14
4.45618e-14
5.08599e-14
5.13998e-14
4.81991e-14
5.60197e-14
6.3762e-14
6.93787e-14
7.40893e-14
6.93732e-14
6.3339e-14
5.69219e-14
5.89103e-14
6.16604e-14
5.48091e-14
5.71887e-14
5.99456e-14
6.46782e-14
6.48715e-14
6.34065e-14
5.48051e-14
5.80269e-14
5.66041e-14
5.83161e-14
5.60103e-14
5.85306e-14
6.0356e-14
5.99068e-14
4.87815e-14
4.02725e-14
4.17574e-14
3.77734e-14
3.97306e-14
4.40648e-14
4.79312e-14
5.20576e-14
5.23784e-14
5.16566e-14
3.54418e-14
3.58674e-14
5.15206e-14
5.64413e-14
5.65861e-14
5.68509e-14
5.61191e-14
6.17682e-14
5.65915e-14
4.945e-14
6.30125e-14
7.15392e-14
7.95551e-14
8.99822e-14
9.85418e-14
9.64357e-14
9.70794e-14
1.02347e-13
1.00346e-13
9.90804e-14
9.91815e-14
9.25642e-14
9.24251e-14
8.21821e-14
7.15563e-14
7.53902e-14
7.54118e-14
7.02703e-14
7.4277e-14
7.31832e-14
6.10605e-14
6.17091e-14
5.84768e-14
5.05023e-14
5.15202e-14
4.58588e-14
4.14192e-14
4.80569e-14
4.66883e-14
3.97817e-14
3.14524e-14
3.18483e-14
3.20785e-14
3.62648e-14
3.87458e-14
4.6696e-14
5.46994e-14
5.83396e-14
5.88362e-14
5.93876e-14
6.52898e-14
6.08835e-14
5.96228e-14
6.41976e-14
5.51783e-14
4.95444e-14
3.95336e-14
3.56569e-14
2.81323e-14
3.31649e-14
3.33164e-14
2.9364e-14
3.4145e-14
3.55511e-14
3.26726e-14
3.83868e-14
3.84373e-14
4.08159e-14
4.35532e-14
4.7747e-14
4.88171e-14
5.16762e-14
5.20597e-14
5.69304e-14
5.67429e-14
5.28737e-14
4.77552e-14
4.8892e-14
5.08044e-14
5.20615e-14
5.20344e-14
5.16557e-14
5.9208e-14
5.43891e-14
5.31106e-14
5.12577e-14
4.61351e-14
4.99876e-14
4.45421e-14
4.58736e-14
4.75781e-14
4.92772e-14
4.47081e-14
5.18709e-14
4.40003e-14
4.20494e-14
4.02421e-14
4.10242e-14
3.95255e-14
3.57114e-14
4.17583e-14
4.03223e-14
3.7675e-14
3.87441e-14
4.34335e-14
5.50671e-14
6.25901e-14
6.15091e-14
6.18079e-14
5.98995e-14
6.10649e-14
6.7737e-14
6.61912e-14
5.62028e-14
6.15846e-14
7.28822e-14
8.10706e-14
8.70457e-14
9.8074e-14
9.40188e-14
9.83418e-14
1.02028e-13
9.87865e-14
1.01515e-13
9.71338e-14
8.34795e-14
8.24127e-14
7.76332e-14
6.67937e-14
7.21622e-14
6.9284e-14
6.74945e-14
6.48348e-14
6.06988e-14
5.4918e-14
4.98483e-14
4.55788e-14
4.05645e-14
4.24971e-14
3.95699e-14
3.59512e-14
3.63357e-14
2.64243e-14
2.06736e-14
2.04826e-14
2.40715e-14
2.6254e-14
3.43609e-14
4.49905e-14
5.2803e-14
5.86751e-14
5.67944e-14
5.67474e-14
5.69393e-14
6.15393e-14
7.14308e-14
6.3272e-14
5.32755e-14
4.78098e-14
3.83594e-14
3.33669e-14
2.09973e-14
9.94226e-15
7.45441e-15
1.36134e-14
1.74523e-14
1.11495e-14
2.08085e-14
2.31639e-14
2.62387e-14
2.69482e-14
3.70913e-14
4.42016e-14
4.38395e-14
4.103e-14
4.40752e-14
4.64254e-14
4.4202e-14
4.3516e-14
4.68952e-14
4.80893e-14
5.08343e-14
3.8514e-14
2.73432e-14
3.51626e-14
4.34484e-14
3.9258e-14
3.04671e-14
2.80041e-14
2.81243e-14
2.96502e-14
2.7753e-14
2.94492e-14
2.69701e-14
3.821e-14
2.49648e-14
2.47923e-14
2.6428e-14
2.89126e-14
2.83084e-14
2.85116e-14
3.4821e-14
3.0368e-14
2.73604e-14
7.67762e-14
8.41184e-14
8.84856e-14
8.44727e-14
7.75457e-14
6.81302e-14
6.53482e-14
6.45993e-14
6.44706e-14
6.80016e-14
7.27777e-14
7.98898e-14
8.43697e-14
8.66477e-14
9.17286e-14
9.45422e-14
1.02756e-13
1.06486e-13
1.01482e-13
1.01865e-13
8.84884e-14
7.83323e-14
8.23429e-14
7.19216e-14
6.3568e-14
6.40542e-14
5.88623e-14
5.08389e-14
5.38976e-14
5.91258e-14
5.1816e-14
4.8872e-14
4.28122e-14
4.29595e-14
3.5619e-14
3.83909e-14
3.20105e-14
2.31163e-14
1.82224e-14
1.31648e-14
9.90364e-15
1.85934e-14
2.91447e-14
4.21341e-14
6.77782e-14
8.21521e-14
9.25671e-14
9.26778e-14
8.65782e-14
8.6443e-14
8.83065e-14
9.30594e-14
8.86144e-14
7.71605e-14
6.47159e-14
5.13974e-14
4.02432e-14
4.0301e-14
3.17291e-14
1.86308e-14
6.66101e-15
6.29797e-15
1.29648e-14
1.84071e-14
1.91844e-14
3.30529e-14
4.72126e-14
7.01627e-14
8.41166e-14
8.67556e-14
7.39312e-14
5.87818e-14
5.55532e-14
5.27495e-14
5.26188e-14
5.19656e-14
5.244e-14
3.94185e-14
2.72999e-14
1.90312e-14
3.314e-14
3.95053e-14
3.7728e-14
3.45096e-14
3.09963e-14
3.31144e-14
2.99535e-14
2.6295e-14
2.41037e-14
1.72037e-14
1.51261e-14
1.15497e-14
6.4047e-15
9.75458e-15
4.81188e-15
1.61335e-14
3.04872e-14
2.60293e-14
2.18109e-14
1.54105e-14
9.85061e-14
1.04387e-13
1.08567e-13
1.01713e-13
9.55652e-14
8.0259e-14
6.75534e-14
6.50549e-14
7.06089e-14
7.47591e-14
8.20761e-14
9.64687e-14
9.82981e-14
9.68598e-14
9.18874e-14
9.94271e-14
1.11484e-13
1.06102e-13
1.04598e-13
9.54551e-14
8.00874e-14
7.24874e-14
6.46785e-14
5.91217e-14
4.97465e-14
5.02666e-14
4.79807e-14
3.96585e-14
5.31455e-14
5.84904e-14
4.69106e-14
4.07764e-14
3.4739e-14
3.3583e-14
3.12708e-14
2.75358e-14
2.15844e-14
2.17107e-14
2.5542e-14
2.46877e-14
2.68914e-14
3.26506e-14
2.7169e-14
3.5402e-14
7.24893e-14
1.08436e-13
1.32025e-13
1.30705e-13
1.24931e-13
1.21808e-13
1.25952e-13
1.29993e-13
1.16899e-13
9.57662e-14
7.92827e-14
6.42412e-14
5.07642e-14
4.85778e-14
4.73043e-14
3.24632e-14
2.14294e-14
2.48007e-14
2.97925e-14
2.94074e-14
2.58191e-14
4.17245e-14
5.30524e-14
9.32457e-14
1.11675e-13
1.22054e-13
1.03496e-13
6.98007e-14
5.90563e-14
6.49137e-14
6.39241e-14
6.03968e-14
4.63344e-14
4.02917e-14
1.72411e-14
2.12274e-14
4.62086e-14
4.98071e-14
5.03338e-14
4.45552e-14
3.81929e-14
4.10856e-14
3.9757e-14
4.04436e-14
2.53539e-14
1.60923e-14
1.06194e-14
7.82002e-15
3.09785e-15
7.59341e-15
1.30431e-14
7.56549e-15
2.42096e-14
1.9192e-14
6.39875e-15
2.19923e-14
1.00925e-13
1.02926e-13
1.10482e-13
1.12811e-13
1.0276e-13
8.49196e-14
7.80951e-14
7.36923e-14
8.26898e-14
8.60899e-14
9.55796e-14
1.05134e-13
1.0158e-13
1.00435e-13
9.77637e-14
1.02369e-13
1.04859e-13
1.00865e-13
9.48291e-14
8.30324e-14
7.12296e-14
5.92072e-14
5.70262e-14
5.12795e-14
4.40733e-14
4.90358e-14
4.57889e-14
4.37988e-14
5.47747e-14
6.52054e-14
5.4623e-14
4.05819e-14
4.34608e-14
4.5499e-14
4.28695e-14
3.34617e-14
2.55379e-14
2.77547e-14
3.30556e-14
3.54817e-14
3.60342e-14
3.25488e-14
2.4452e-14
2.96803e-14
7.77538e-14
1.26786e-13
1.47683e-13
1.49139e-13
1.51941e-13
1.50869e-13
1.54871e-13
1.56397e-13
1.48448e-13
1.29962e-13
1.00802e-13
7.73769e-14
5.66651e-14
5.14254e-14
4.43113e-14
3.72166e-14
3.23739e-14
4.13061e-14
3.65762e-14
2.97222e-14
2.11464e-14
3.33009e-14
6.15041e-14
1.04225e-13
1.30837e-13
1.30611e-13
1.05208e-13
7.14204e-14
5.48708e-14
4.99365e-14
5.56351e-14
5.87253e-14
4.09405e-14
2.5893e-14
1.6591e-14
4.40334e-14
6.4493e-14
6.25376e-14
6.42551e-14
5.96772e-14
5.43227e-14
5.32752e-14
5.63951e-14
5.53334e-14
4.19076e-14
3.61342e-14
2.69085e-14
1.36567e-14
1.31188e-14
8.2735e-14
8.60661e-14
9.66447e-14
1.03479e-13
9.30532e-14
8.25837e-14
8.64478e-14
8.50386e-14
8.86222e-14
9.53563e-14
1.05723e-13
1.02803e-13
1.00442e-13
9.40332e-14
9.976e-14
1.07797e-13
9.97941e-14
8.87208e-14
8.72088e-14
8.49984e-14
6.68119e-14
5.89341e-14
5.86992e-14
5.30252e-14
4.88488e-14
4.6619e-14
4.38752e-14
4.72969e-14
5.50509e-14
6.00245e-14
5.15062e-14
4.0593e-14
5.09575e-14
5.9918e-14
5.28054e-14
2.98487e-14
2.30452e-14
2.78442e-14
2.94213e-14
2.99344e-14
3.36567e-14
3.1887e-14
1.10439e-14
2.83961e-14
7.24129e-14
1.33225e-13
1.63358e-13
1.70053e-13
1.75851e-13
1.79464e-13
1.81754e-13
1.73053e-13
1.7136e-13
1.50248e-13
1.15875e-13
8.44279e-14
6.11655e-14
5.37938e-14
4.96076e-14
5.14055e-14
5.49281e-14
5.27673e-14
4.74885e-14
4.23946e-14
3.87163e-14
4.10655e-14
6.21355e-14
9.54554e-14
1.11277e-13
1.09946e-13
8.71769e-14
6.30741e-14
5.50117e-14
3.87179e-14
2.93716e-14
2.82052e-14
1.75339e-14
2.59241e-14
2.8068e-14
4.19247e-14
5.75504e-14
7.12888e-14
7.54348e-14
6.60623e-14
5.66611e-14
5.10289e-14
4.65748e-14
5.45067e-14
5.05873e-14
4.30241e-14
3.69112e-14
2.70214e-14
1.01682e-14
6.29594e-14
7.54772e-14
7.7827e-14
7.96631e-14
7.74606e-14
8.22125e-14
8.73067e-14
8.61422e-14
9.08557e-14
1.06072e-13
1.08782e-13
9.91723e-14
1.00974e-13
1.09065e-13
1.12046e-13
9.93827e-14
9.79868e-14
9.48488e-14
8.89403e-14
7.736e-14
6.50905e-14
6.5066e-14
5.94733e-14
5.9032e-14
5.51376e-14
4.57699e-14
4.83371e-14
4.98643e-14
5.62133e-14
5.91098e-14
4.92313e-14
3.54311e-14
4.20798e-14
5.15769e-14
4.2545e-14
2.95207e-14
2.91405e-14
1.56421e-14
2.63417e-14
3.39869e-14
3.14627e-14
2.81178e-14
1.98678e-14
1.38396e-14
6.19256e-14
1.17094e-13
1.58754e-13
1.85062e-13
1.97222e-13
1.98538e-13
1.91977e-13
1.85501e-13
1.79233e-13
1.62233e-13
1.28416e-13
9.23144e-14
6.90024e-14
5.67014e-14
5.59827e-14
6.42968e-14
6.8279e-14
6.39135e-14
6.17983e-14
6.10507e-14
5.73287e-14
5.90066e-14
6.62526e-14
8.62044e-14
9.91352e-14
9.38948e-14
6.94804e-14
4.62924e-14
3.1006e-14
2.19794e-14
1.60235e-14
1.96112e-14
2.7549e-14
2.99188e-14
2.97301e-14
3.71108e-14
4.35187e-14
6.44022e-14
7.39859e-14
7.28909e-14
6.7814e-14
5.54735e-14
4.73192e-14
4.93893e-14
5.23318e-14
5.08858e-14
3.58497e-14
2.48294e-14
1.28711e-14
6.35028e-14
7.05542e-14
7.08799e-14
7.39649e-14
7.00718e-14
8.39757e-14
8.50494e-14
7.77479e-14
9.40816e-14
1.1578e-13
1.14019e-13
1.01174e-13
1.04746e-13
1.08159e-13
1.02721e-13
9.48713e-14
8.94286e-14
8.59551e-14
8.10416e-14
7.46353e-14
7.15038e-14
6.0157e-14
5.92806e-14
5.97455e-14
4.73604e-14
4.74931e-14
4.31834e-14
4.43673e-14
4.64105e-14
4.45885e-14
3.22959e-14
2.19592e-14
2.51482e-14
3.24588e-14
3.36914e-14
2.84672e-14
1.71738e-14
1.0829e-14
2.10905e-14
2.60471e-14
2.62604e-14
2.74928e-14
2.10811e-14
1.06392e-14
3.57285e-14
7.03979e-14
1.13201e-13
1.52012e-13
1.73842e-13
1.77895e-13
1.68491e-13
1.61366e-13
1.56919e-13
1.39388e-13
1.11632e-13
8.17298e-14
6.45712e-14
5.45597e-14
5.27147e-14
5.58201e-14
6.28504e-14
6.38586e-14
6.63464e-14
6.48981e-14
6.11844e-14
5.61454e-14
5.8204e-14
6.42693e-14
7.3501e-14
7.05177e-14
4.76664e-14
3.28576e-14
2.63318e-14
2.43895e-14
2.14158e-14
2.82005e-14
2.78943e-14
2.90826e-14
2.9824e-14
3.4318e-14
3.48155e-14
3.98794e-14
5.39038e-14
5.73434e-14
5.79476e-14
4.96522e-14
4.10165e-14
3.94334e-14
4.42375e-14
4.39224e-14
3.30482e-14
1.95323e-14
6.43867e-14
6.44765e-14
6.60443e-14
7.87825e-14
8.1204e-14
7.83534e-14
6.90845e-14
7.07687e-14
8.87845e-14
1.06714e-13
1.04689e-13
9.19739e-14
9.82538e-14
1.07971e-13
1.00953e-13
9.04057e-14
8.03523e-14
7.59419e-14
7.42292e-14
8.01535e-14
7.98302e-14
6.46207e-14
5.68777e-14
4.76061e-14
3.95251e-14
3.31219e-14
2.85115e-14
2.64652e-14
2.6932e-14
2.5157e-14
1.65564e-14
2.03311e-14
2.60775e-14
2.61987e-14
2.4604e-14
1.90208e-14
1.65373e-14
2.33689e-14
3.26507e-14
3.3518e-14
2.94137e-14
2.89646e-14
2.86213e-14
1.81978e-14
7.26299e-15
2.21674e-14
5.20236e-14
9.38571e-14
1.26765e-13
1.3204e-13
1.21339e-13
1.05464e-13
9.30857e-14
8.03917e-14
6.74094e-14
5.3601e-14
4.55171e-14
4.23798e-14
4.61736e-14
4.63755e-14
5.07037e-14
5.94417e-14
6.35388e-14
6.37373e-14
6.36008e-14
5.28773e-14
3.71024e-14
2.36432e-14
3.3254e-14
2.82504e-14
1.47102e-14
9.84062e-15
1.29623e-14
1.39419e-14
1.92476e-14
2.83918e-14
2.84116e-14
2.77731e-14
1.9954e-14
1.35079e-14
1.11432e-14
1.38053e-14
3.17447e-14
4.24739e-14
4.66464e-14
4.24404e-14
3.65552e-14
3.21317e-14
2.89347e-14
2.82045e-14
2.2984e-14
1.08537e-14
8.28512e-14
7.93476e-14
9.48936e-14
9.73351e-14
7.38403e-14
6.72092e-14
5.94626e-14
6.80788e-14
8.48713e-14
8.1541e-14
9.01255e-14
9.73567e-14
9.62745e-14
1.08656e-13
1.01686e-13
9.40364e-14
9.72217e-14
8.01154e-14
6.71487e-14
7.02126e-14
7.95092e-14
7.0784e-14
5.54762e-14
4.19017e-14
3.45104e-14
3.4834e-14
3.13107e-14
2.05299e-14
9.71588e-15
1.77047e-14
1.15067e-14
1.76099e-14
2.45827e-14
1.54455e-14
1.81844e-14
2.49314e-14
3.31784e-14
4.30742e-14
4.77913e-14
3.76922e-14
3.08589e-14
3.56411e-14
2.53296e-14
2.51168e-14
2.00998e-14
1.24415e-14
1.75886e-14
3.07092e-14
4.93935e-14
5.51432e-14
5.2408e-14
4.14326e-14
2.51688e-14
3.36677e-14
3.73381e-14
3.33322e-14
3.52027e-14
3.06682e-14
3.93716e-14
4.28025e-14
4.75728e-14
5.09659e-14
6.15854e-14
5.90175e-14
6.53204e-14
4.68838e-14
1.52987e-14
2.46348e-14
3.43502e-14
2.65035e-14
2.47866e-14
1.82462e-14
2.39171e-14
2.56833e-14
2.876e-14
4.52666e-14
3.83214e-14
1.56996e-14
1.22494e-14
1.30054e-14
1.49383e-14
1.54715e-14
2.61742e-14
3.91516e-14
4.57546e-14
4.98787e-14
4.14431e-14
3.93837e-14
3.21954e-14
2.77365e-14
2.65595e-14
8.27461e-14
9.46882e-14
1.13502e-13
1.03523e-13
7.85794e-14
5.53224e-14
4.47986e-14
6.11677e-14
5.74558e-14
5.46366e-14
6.8613e-14
9.22729e-14
9.9224e-14
1.1303e-13
1.12565e-13
1.1322e-13
1.12759e-13
8.64096e-14
5.87746e-14
4.73776e-14
7.12458e-14
7.35474e-14
5.4816e-14
3.04027e-14
1.20172e-14
2.28637e-14
3.8102e-14
3.54913e-14
1.47252e-14
2.28176e-14
2.18099e-14
2.53951e-14
2.48565e-14
2.37252e-14
1.8926e-14
3.18144e-14
2.96919e-14
3.81504e-14
3.14659e-14
3.3649e-14
2.82079e-14
2.41053e-14
2.10223e-14
1.86104e-14
3.22695e-14
2.29362e-14
3.16813e-14
2.15861e-14
1.78001e-14
1.59193e-14
1.69207e-14
2.68598e-14
4.12662e-14
4.1196e-14
2.47132e-14
2.75998e-14
2.49675e-14
2.58612e-14
2.65854e-14
3.62008e-14
3.7414e-14
4.31094e-14
4.75853e-14
5.23985e-14
5.90449e-14
3.48061e-14
5.65971e-15
2.85536e-14
4.80705e-14
4.74205e-14
3.527e-14
2.13279e-14
1.34495e-14
3.48459e-14
4.04224e-14
4.33194e-14
4.71596e-14
2.6956e-14
1.00869e-14
2.55935e-14
3.16664e-14
1.63972e-14
3.09e-14
3.83041e-14
4.73322e-14
3.82307e-14
3.57254e-14
3.97478e-14
3.65822e-14
3.52353e-14
3.17413e-14
9.08606e-14
8.69492e-14
9.58546e-14
9.07388e-14
7.41961e-14
6.92362e-14
6.82948e-14
5.6118e-14
5.81912e-14
5.29504e-14
5.90677e-14
8.7413e-14
9.80066e-14
1.15953e-13
1.29221e-13
1.217e-13
9.73843e-14
7.87202e-14
6.2329e-14
5.20526e-14
4.86868e-14
5.80733e-14
6.72958e-14
4.87826e-14
2.1505e-14
9.72207e-15
2.37961e-14
2.5121e-14
2.04053e-14
1.52747e-14
1.45706e-14
1.9686e-14
1.67568e-14
2.25163e-14
1.86097e-14
1.84834e-14
3.00868e-14
1.8714e-14
2.15747e-14
2.14506e-14
2.93038e-14
2.78538e-14
2.37086e-14
2.39032e-14
2.58236e-14
2.99751e-14
3.62825e-14
3.6266e-14
3.7398e-14
3.86607e-14
4.39511e-14
3.71849e-14
3.66213e-14
3.19107e-14
1.77379e-14
1.56812e-14
9.92219e-15
1.69103e-14
1.6769e-14
2.56199e-14
2.19062e-14
2.50982e-14
2.39671e-14
2.717e-14
2.955e-14
1.98958e-14
1.96174e-14
2.35076e-14
2.66601e-14
2.5229e-14
2.08298e-14
1.80859e-14
1.97162e-14
3.40001e-14
4.32493e-14
3.64812e-14
2.43295e-14
2.82643e-14
2.20225e-14
3.1772e-14
2.98603e-14
2.31157e-14
2.39334e-14
2.37058e-14
2.18907e-14
1.32808e-14
2.3847e-14
1.66946e-14
2.26963e-14
2.6727e-14
2.29288e-14
8.37218e-14
8.40982e-14
8.15722e-14
8.41206e-14
8.18067e-14
7.27599e-14
6.73801e-14
7.39961e-14
7.338e-14
7.22269e-14
9.04515e-14
1.00973e-13
1.06364e-13
1.07875e-13
1.01266e-13
1.04844e-13
1.03288e-13
8.82135e-14
6.47276e-14
5.39659e-14
5.4351e-14
5.81555e-14
5.07891e-14
4.05485e-14
2.15611e-14
1.04901e-14
1.98399e-14
2.56664e-14
1.96168e-14
1.57399e-14
5.85712e-15
2.10031e-14
2.09381e-14
1.78e-14
1.66308e-14
1.98198e-14
1.4389e-14
2.52483e-15
6.18758e-15
7.06955e-15
1.9577e-14
2.25043e-14
1.51525e-14
1.93054e-14
2.22601e-14
2.15702e-14
3.7939e-14
4.35866e-14
4.00568e-14
3.75902e-14
3.60549e-14
3.20383e-14
2.74683e-14
2.86542e-14
2.30216e-14
1.79378e-14
2.05804e-14
1.53125e-14
2.15421e-14
1.99604e-14
1.6294e-14
2.11833e-14
1.98833e-14
2.27785e-14
2.48654e-14
1.87422e-14
2.57048e-14
4.05773e-14
4.66076e-14
5.26969e-14
5.05599e-14
4.06602e-14
4.1831e-14
4.89036e-14
4.42276e-14
3.56576e-14
1.98616e-14
7.75035e-15
6.93209e-15
1.91269e-14
2.10271e-14
2.30359e-14
2.06545e-14
2.08536e-14
1.72709e-14
1.36456e-14
1.7957e-14
1.93103e-14
1.23859e-14
1.74468e-14
1.07559e-14
7.75352e-14
8.14442e-14
8.58271e-14
8.61108e-14
7.96531e-14
7.34195e-14
8.08401e-14
8.26054e-14
7.828e-14
8.84726e-14
1.01494e-13
1.08548e-13
1.11026e-13
1.06323e-13
1.07975e-13
9.80279e-14
9.55748e-14
8.34111e-14
6.88592e-14
6.60661e-14
4.85667e-14
4.02191e-14
5.09748e-14
4.59542e-14
2.24571e-14
2.23462e-14
2.37393e-14
2.26555e-14
2.51818e-14
2.93118e-14
2.15849e-14
2.79359e-14
3.94427e-14
3.62071e-14
3.46501e-14
3.30374e-14
3.56602e-14
2.93563e-14
2.5675e-14
3.13332e-14
3.90468e-14
4.08087e-14
4.48515e-14
3.47689e-14
2.84894e-14
2.99454e-14
3.70401e-14
4.10237e-14
4.52267e-14
4.30495e-14
4.40043e-14
4.26751e-14
4.19562e-14
3.82913e-14
4.16952e-14
4.61846e-14
5.18049e-14
5.1097e-14
5.03897e-14
4.61173e-14
4.33806e-14
4.95656e-14
5.02976e-14
5.66497e-14
6.27397e-14
5.95508e-14
6.14785e-14
6.21978e-14
6.46517e-14
6.79146e-14
6.63229e-14
6.19463e-14
6.48376e-14
6.07158e-14
6.41764e-14
5.9249e-14
5.16185e-14
4.97918e-14
4.33271e-14
4.44164e-14
4.52215e-14
4.4661e-14
4.54185e-14
4.55754e-14
4.3904e-14
3.90195e-14
4.24168e-14
4.52157e-14
4.56175e-14
4.6703e-14
4.47488e-14
8.65386e-14
8.36533e-14
9.3617e-14
9.07445e-14
7.84831e-14
7.8059e-14
8.46694e-14
9.03317e-14
9.20986e-14
8.89966e-14
9.64522e-14
1.08725e-13
1.09279e-13
9.97399e-14
9.45156e-14
9.60363e-14
9.18127e-14
7.83812e-14
7.52376e-14
6.67162e-14
5.27355e-14
5.68253e-14
6.00635e-14
4.68562e-14
3.61757e-14
3.56479e-14
4.26254e-14
4.35018e-14
4.05608e-14
3.76009e-14
3.35729e-14
3.36294e-14
3.79278e-14
4.28463e-14
4.63251e-14
4.44655e-14
4.6016e-14
5.22744e-14
5.04021e-14
4.91368e-14
5.59727e-14
6.18787e-14
6.29275e-14
5.92131e-14
5.10356e-14
4.98871e-14
4.75856e-14
5.0864e-14
5.54477e-14
5.46708e-14
4.91777e-14
4.81075e-14
4.57485e-14
4.37232e-14
5.22393e-14
6.15975e-14
7.00371e-14
6.63512e-14
6.01877e-14
5.88743e-14
5.83398e-14
6.01601e-14
6.23484e-14
6.56551e-14
7.12044e-14
7.54239e-14
7.55527e-14
7.0343e-14
7.19408e-14
7.03363e-14
6.89635e-14
7.28543e-14
6.9993e-14
7.11394e-14
6.78727e-14
6.85265e-14
7.32766e-14
6.87259e-14
6.73077e-14
6.53088e-14
6.93356e-14
6.82232e-14
7.17993e-14
7.01269e-14
6.48412e-14
5.80527e-14
5.61693e-14
5.67906e-14
7.03118e-14
7.43909e-14
7.55699e-14
9.2041e-14
9.04478e-14
9.10959e-14
8.72171e-14
8.63063e-14
8.26171e-14
7.23106e-14
7.82062e-14
9.01504e-14
9.88966e-14
1.05618e-13
1.01736e-13
1.0527e-13
1.04502e-13
9.16518e-14
8.17461e-14
8.26759e-14
8.55829e-14
7.70744e-14
7.08481e-14
6.23616e-14
6.42648e-14
5.43736e-14
4.52456e-14
2.98224e-14
2.85883e-14
4.00136e-14
3.57428e-14
4.08001e-14
3.726e-14
3.40211e-14
3.07803e-14
2.83761e-14
2.57094e-14
2.49549e-14
2.87396e-14
2.31361e-14
3.1343e-14
3.4924e-14
3.42314e-14
3.34394e-14
3.99587e-14
4.19826e-14
4.81187e-14
5.03822e-14
4.72823e-14
4.33313e-14
3.61505e-14
3.68871e-14
3.84027e-14
4.07566e-14
4.71256e-14
4.37517e-14
4.69226e-14
4.88577e-14
5.12775e-14
5.89224e-14
5.9577e-14
5.68857e-14
5.56398e-14
5.7409e-14
5.51971e-14
5.54136e-14
5.34762e-14
5.99158e-14
5.86124e-14
6.1485e-14
6.429e-14
6.36679e-14
6.25287e-14
6.21994e-14
5.82681e-14
6.20746e-14
6.06152e-14
5.46784e-14
5.40653e-14
5.23475e-14
5.00754e-14
5.30817e-14
5.77488e-14
6.36784e-14
6.37328e-14
6.36487e-14
6.54154e-14
6.23438e-14
6.27295e-14