/*--------------------------------*- C++ -*----------------------------------*\
| =========                 |                                                 |
| \\      /  F ield         | OpenFOAM: The Open Source CFD Toolbox           |
|  \\    /   O peration     | Version:  2406                                  |
|   \\  /    A nd           | Website:  www.openfoam.com                      |
|    \\/     M anipulation  |                                                 |
\*---------------------------------------------------------------------------*/
FoamFile
{
    version     2.0;
    format      ascii;
    arch        "LSB;label=32;scalar=64";
    class       volVectorField;
    location    "0.065";
    object      U;
}
// * * * * * * * * * * * * * * * * * * * * * * * * * * * * * * * * * * * * * //

dimensions      [0 1 -1 0 0 0 0];

internalField   nonuniform List<vector> 
13818
(
(4.13825e-13 -4.19053e-12 -1.40708e-11)
(-6.41727e-13 -2.10088e-12 -1.56747e-11)
(-9.61302e-13 -2.06084e-13 -6.72195e-12)
(2.33444e-12 -2.07117e-12 1.77383e-12)
(3.08328e-13 -3.18221e-13 1.13156e-11)
(-8.13552e-12 1.81502e-12 1.47143e-11)
(-1.40826e-11 7.31246e-12 1.1933e-11)
(-1.9023e-11 8.20073e-12 7.32125e-12)
(-1.95143e-11 1.15246e-11 2.4414e-13)
(-1.99034e-11 1.31172e-11 -5.71114e-12)
(-2.22839e-11 1.53708e-11 -3.41742e-12)
(-2.4237e-11 1.51006e-11 -2.86689e-12)
(-2.26315e-11 1.60067e-11 5.15306e-12)
(-2.30097e-11 1.86386e-11 1.37152e-11)
(-2.52044e-11 2.00687e-11 1.30336e-11)
(-2.42293e-11 1.90339e-11 1.49905e-11)
(-2.22055e-11 1.7146e-11 1.68994e-11)
(-2.37727e-11 1.44981e-11 2.73417e-11)
(-2.63368e-11 1.53792e-11 3.09501e-11)
(-2.35239e-11 1.50436e-11 2.90111e-11)
(-2.05983e-11 1.24725e-11 2.94796e-11)
(-1.94107e-11 1.31396e-11 2.28457e-11)
(-1.49113e-11 1.47343e-11 1.61822e-11)
(-1.92935e-11 1.45182e-11 3.05109e-12)
(-1.66349e-11 1.3439e-11 -8.30796e-12)
(-1.31347e-11 1.2009e-11 -1.40424e-11)
(-1.48303e-11 1.37049e-11 -1.46728e-11)
(-1.60126e-11 1.15279e-11 -1.45208e-11)
(-1.39463e-11 1.6021e-11 -1.51758e-11)
(-1.12903e-11 1.52638e-11 -1.76933e-11)
(-7.13673e-12 1.23347e-11 -1.74922e-11)
(-4.95958e-12 1.00172e-11 -1.13331e-11)
(-4.62608e-12 1.03399e-11 -5.31139e-12)
(-1.7339e-12 8.62193e-12 -4.24046e-12)
(1.37136e-12 7.68236e-12 -9.96642e-12)
(-9.65886e-13 6.81612e-12 -1.79531e-11)
(-8.38266e-13 1.01446e-11 -1.88271e-11)
(-2.83918e-12 9.12979e-12 -1.58128e-11)
(-1.08477e-12 7.89432e-12 -6.13299e-12)
(8.80984e-14 9.30848e-12 2.74924e-12)
(1.27374e-12 1.13744e-11 2.27067e-12)
(2.74349e-12 9.49622e-12 4.02162e-12)
(2.20247e-12 1.26404e-11 6.52583e-12)
(4.17846e-12 1.24678e-11 8.64658e-12)
(3.08249e-12 1.36986e-11 1.00423e-11)
(6.55318e-13 1.19842e-11 8.84241e-12)
(5.03307e-12 9.64174e-12 6.28824e-12)
(5.85939e-12 1.00402e-11 -6.00702e-13)
(2.22738e-12 1.01328e-11 -2.76219e-12)
(4.98124e-12 8.56846e-12 -5.20401e-12)
(6.56205e-12 5.50047e-12 -1.40752e-11)
(5.22804e-12 5.82396e-12 -1.64945e-11)
(6.4576e-12 7.88249e-12 -1.69834e-11)
(5.84525e-12 6.5011e-12 -1.79642e-11)
(4.37818e-12 4.53134e-12 -9.02481e-12)
(4.91071e-12 5.71179e-12 -9.48132e-13)
(5.08959e-12 8.62348e-12 4.0413e-12)
(4.44506e-12 7.20701e-12 5.34345e-12)
(1.4654e-12 6.87768e-12 1.34846e-12)
(-7.69015e-13 6.6026e-12 2.78368e-12)
(-1.83086e-12 9.18803e-12 -2.37834e-12)
(1.44339e-12 7.08764e-12 -7.34659e-12)
(1.90873e-12 5.87292e-12 -9.41131e-12)
(3.38076e-13 6.25365e-12 -9.5774e-12)
(1.2045e-12 8.2374e-12 -1.4147e-11)
(3.16913e-12 7.68349e-12 -1.56966e-11)
(2.08111e-12 6.63732e-12 -1.63809e-11)
(1.84196e-12 7.11257e-12 -1.6875e-11)
(2.31038e-12 6.94858e-12 -1.11902e-11)
(6.28351e-13 4.73109e-12 -7.20264e-12)
(1.69806e-12 4.58994e-12 -3.62969e-12)
(2.31821e-12 7.55981e-12 -3.45106e-13)
(-1.52203e-12 1.08613e-11 7.01381e-13)
(-3.21104e-12 1.31242e-11 -2.67703e-12)
(8.60606e-13 1.10767e-11 -5.0015e-12)
(2.28954e-12 1.06234e-11 -1.12692e-11)
(-2.16631e-12 1.2489e-11 -1.16275e-11)
(-4.01407e-12 9.30795e-12 -1.04057e-11)
(-4.03425e-12 7.41457e-12 -6.67338e-12)
(-4.68595e-13 1.18456e-11 -4.3036e-12)
(1.59431e-12 1.03316e-11 -2.03981e-12)
(-1.15922e-12 1.08727e-11 -3.09264e-12)
(-1.59852e-12 9.65009e-12 -5.08278e-12)
(-2.32644e-12 1.06702e-11 -7.21749e-12)
(-2.31892e-12 8.03634e-12 -8.92949e-12)
(-3.7576e-12 8.07034e-12 -1.59444e-11)
(-5.26305e-12 9.54062e-12 -1.63356e-11)
(-4.35441e-12 1.0563e-11 -1.81158e-11)
(-3.19057e-12 1.41645e-11 -2.32689e-11)
(-5.14111e-12 1.44232e-11 -2.2719e-11)
(-5.64618e-12 1.75007e-11 -2.52387e-11)
(-4.8326e-12 1.87911e-11 -2.14876e-11)
(-2.1791e-12 1.69856e-11 -1.51148e-11)
(-4.00717e-12 1.26944e-11 -8.67732e-12)
(-4.68873e-12 1.34957e-11 -2.63347e-12)
(-1.33281e-12 1.50414e-11 -1.57676e-12)
(9.02633e-14 1.55103e-11 -4.8513e-12)
(-9.94313e-13 1.30383e-11 -6.6076e-12)
(-3.79513e-12 1.34834e-11 -3.15379e-12)
(-9.18427e-13 1.41941e-11 1.65871e-12)
(1.5021e-12 1.33632e-11 7.81716e-13)
(1.71632e-12 1.32542e-11 -1.29549e-12)
(3.1769e-12 1.14733e-11 6.95759e-12)
(4.00854e-12 1.3343e-11 1.36271e-11)
(3.99684e-12 1.56493e-11 1.49422e-11)
(1.60641e-12 1.50895e-11 1.54173e-11)
(1.75591e-12 -2.30134e-12 -9.72247e-12)
(-2.72212e-12 -1.23064e-12 -9.83126e-12)
(-4.02731e-14 -1.98739e-12 -5.5198e-12)
(1.10014e-12 -1.3023e-12 5.58431e-12)
(-2.90507e-12 2.87326e-12 1.56842e-11)
(-1.05922e-11 5.23214e-12 1.56596e-11)
(-1.36945e-11 7.69179e-12 1.06694e-11)
(-1.78781e-11 8.00983e-12 9.03262e-12)
(-2.01786e-11 1.0238e-11 2.04197e-12)
(-2.25967e-11 1.28186e-11 -2.06784e-12)
(-2.41987e-11 1.74894e-11 -1.70175e-12)
(-2.35228e-11 1.52125e-11 -2.11946e-13)
(-2.39662e-11 1.50785e-11 5.67289e-12)
(-2.59977e-11 1.81993e-11 1.0586e-11)
(-2.4157e-11 2.07424e-11 1.11761e-11)
(-2.16397e-11 1.65024e-11 1.30927e-11)
(-2.23084e-11 1.5646e-11 1.93637e-11)
(-2.43519e-11 1.59468e-11 2.49504e-11)
(-2.42181e-11 1.82272e-11 2.50914e-11)
(-2.14586e-11 1.166e-11 2.35964e-11)
(-2.03726e-11 1.2603e-11 2.39577e-11)
(-2.16261e-11 1.06466e-11 1.76449e-11)
(-1.72379e-11 1.61149e-11 1.04433e-11)
(-1.55215e-11 1.38565e-11 5.63883e-13)
(-1.46016e-11 1.32872e-11 -7.91942e-12)
(-1.57026e-11 1.18643e-11 -1.108e-11)
(-1.49722e-11 1.44227e-11 -1.38294e-11)
(-1.54482e-11 1.02277e-11 -1.32315e-11)
(-1.51047e-11 1.17974e-11 -1.38635e-11)
(-9.28153e-12 1.09978e-11 -1.3886e-11)
(-4.64967e-12 1.18652e-11 -1.35824e-11)
(-6.11906e-12 1.02815e-11 -1.00832e-11)
(-4.83445e-12 1.17814e-11 -5.26969e-12)
(-5.2055e-13 9.53571e-12 -7.16442e-13)
(5.16109e-13 9.14847e-12 -7.16842e-12)
(-4.69073e-12 9.95792e-12 -1.52392e-11)
(-1.81983e-12 1.40024e-11 -1.95617e-11)
(1.23489e-12 1.28728e-11 -1.50722e-11)
(4.94917e-13 9.66477e-12 -6.98871e-12)
(-8.73215e-13 1.05059e-11 -2.55505e-12)
(8.51503e-13 9.79454e-12 -2.70637e-12)
(5.83224e-13 1.0667e-11 4.64727e-12)
(1.05071e-12 1.38792e-11 1.00136e-11)
(3.25557e-12 1.29637e-11 1.15187e-11)
(2.80108e-12 1.50726e-11 1.00188e-11)
(3.91344e-12 1.13765e-11 8.55269e-12)
(5.1295e-12 8.64783e-12 9.66718e-12)
(4.95434e-12 1.02766e-11 4.51345e-12)
(4.76718e-12 9.62556e-12 -9.55663e-13)
(7.38372e-12 5.53124e-12 -1.24031e-12)
(7.0779e-12 6.65378e-12 -1.14337e-11)
(2.4829e-12 6.18968e-12 -1.8751e-11)
(5.62831e-12 8.07846e-12 -2.33234e-11)
(8.19128e-12 8.16926e-12 -1.77256e-11)
(4.96051e-12 7.62622e-12 -8.77458e-12)
(2.52116e-12 8.51944e-12 -1.59185e-12)
(4.04336e-12 1.22544e-11 2.23836e-12)
(5.05306e-12 1.26642e-11 3.46403e-12)
(2.28207e-12 9.97674e-12 2.50673e-12)
(-1.0232e-12 1.05161e-11 1.60017e-12)
(-8.69198e-13 8.53333e-12 -2.63671e-12)
(1.3903e-12 6.73363e-12 -7.38376e-12)
(1.56802e-12 9.48985e-12 -8.50685e-12)
(-5.9418e-14 8.40309e-12 -6.27407e-12)
(1.6516e-12 8.08888e-12 -1.11034e-11)
(4.50641e-12 6.47848e-12 -1.5472e-11)
(1.73129e-12 6.16989e-12 -1.7248e-11)
(5.11338e-13 7.03112e-12 -1.6071e-11)
(2.20277e-12 7.01312e-12 -1.33122e-11)
(2.02997e-12 9.55374e-12 -7.20045e-12)
(1.00804e-12 7.06679e-12 1.94471e-15)
(-2.35194e-12 1.08744e-11 6.94662e-12)
(-5.38922e-12 1.53577e-11 9.03608e-12)
(-1.52978e-12 1.36568e-11 5.28245e-12)
(3.1653e-12 1.26348e-11 3.38396e-12)
(4.83101e-13 1.23132e-11 -1.5359e-12)
(-2.52949e-12 1.42863e-11 -2.67114e-12)
(-2.31977e-12 9.31199e-12 -4.53709e-13)
(-4.29073e-12 9.42814e-12 -1.40099e-12)
(-1.21479e-12 8.89186e-12 -1.779e-12)
(1.2936e-12 1.50408e-11 -1.54281e-12)
(6.19311e-14 1.58654e-11 -2.45311e-12)
(-1.03382e-12 1.38911e-11 -2.64053e-12)
(-1.82004e-12 1.17408e-11 -5.27189e-12)
(-2.41374e-12 1.03541e-11 -6.74567e-12)
(-4.26612e-12 1.19109e-11 -8.41599e-12)
(-4.96129e-12 1.22367e-11 -6.07269e-12)
(-5.20854e-12 1.19347e-11 -1.18586e-11)
(-3.9086e-12 1.30662e-11 -2.02226e-11)
(-6.48478e-12 1.41947e-11 -2.3291e-11)
(-7.18472e-12 1.61215e-11 -2.43247e-11)
(-3.13331e-12 1.64462e-11 -2.14513e-11)
(2.39246e-13 1.49984e-11 -1.43774e-11)
(-4.04486e-12 1.57413e-11 -6.25176e-12)
(-4.57897e-12 1.1716e-11 3.25279e-12)
(-2.57561e-12 1.34149e-11 4.21163e-12)
(2.70118e-13 1.57709e-11 -1.00925e-12)
(1.79123e-13 1.48634e-11 -2.88818e-12)
(-2.43817e-12 1.58594e-11 -1.39242e-12)
(-1.13017e-12 1.49019e-11 3.40347e-12)
(3.90381e-13 1.60483e-11 1.52618e-12)
(7.19077e-13 1.53741e-11 1.53135e-13)
(2.31049e-12 1.4482e-11 2.4545e-12)
(2.97139e-12 1.59948e-11 1.39855e-11)
(3.57849e-12 1.81386e-11 1.80413e-11)
(1.58849e-12 1.71941e-11 1.33454e-11)
(8.21756e-13 6.55419e-12 -1.26692e-11)
(-2.6158e-12 5.57401e-12 -9.06892e-12)
(-4.04171e-13 2.46946e-12 -2.15695e-12)
(-1.63718e-12 5.45107e-12 8.74511e-12)
(-4.18946e-12 8.38659e-12 1.7376e-11)
(-1.008e-11 8.47819e-12 1.80439e-11)
(-1.44447e-11 7.24542e-12 1.43479e-11)
(-1.92479e-11 1.01091e-11 1.10993e-11)
(-2.11816e-11 1.22752e-11 2.16879e-12)
(-2.46699e-11 1.65271e-11 -7.04675e-13)
(-2.50201e-11 1.77084e-11 7.16826e-14)
(-2.28642e-11 1.8814e-11 5.02771e-13)
(-2.41975e-11 1.88466e-11 4.32408e-12)
(-2.65285e-11 1.81093e-11 6.73171e-12)
(-2.40171e-11 1.86571e-11 8.88916e-12)
(-2.02847e-11 1.78088e-11 9.71231e-12)
(-2.22761e-11 1.72076e-11 1.41921e-11)
(-2.62374e-11 1.90656e-11 1.69902e-11)
(-2.30275e-11 1.91805e-11 1.50951e-11)
(-1.96321e-11 1.56775e-11 1.40394e-11)
(-2.11478e-11 1.871e-11 1.24005e-11)
(-2.1201e-11 1.64273e-11 9.92733e-12)
(-1.78373e-11 1.66451e-11 4.06823e-12)
(-1.53057e-11 1.90722e-11 -2.99982e-12)
(-1.44776e-11 1.98752e-11 -8.74089e-12)
(-1.56386e-11 1.78406e-11 -1.20501e-11)
(-1.40688e-11 1.63965e-11 -1.51099e-11)
(-1.41161e-11 1.38913e-11 -1.30711e-11)
(-1.42991e-11 1.23803e-11 -1.14776e-11)
(-1.04162e-11 1.25883e-11 -9.91683e-12)
(-6.4454e-12 1.57307e-11 -1.08377e-11)
(-5.47558e-12 1.50223e-11 -9.33992e-12)
(-4.21864e-12 1.53719e-11 -6.17808e-12)
(-2.66806e-13 1.36681e-11 -3.68114e-12)
(8.78457e-14 1.47247e-11 -6.50423e-12)
(-4.8656e-12 1.58088e-11 -9.03166e-12)
(-3.49814e-12 1.64089e-11 -1.42129e-11)
(1.00194e-12 1.76908e-11 -1.34438e-11)
(9.86743e-13 1.57946e-11 -7.76749e-12)
(-8.46007e-13 1.57456e-11 -3.55019e-12)
(1.48714e-12 1.39225e-11 -2.43947e-12)
(3.95962e-13 1.47834e-11 7.09557e-12)
(7.1139e-13 1.42486e-11 1.40828e-11)
(2.61037e-12 1.66442e-11 1.32755e-11)
(3.3941e-12 1.69856e-11 9.07473e-12)
(5.43522e-12 1.3535e-11 4.87182e-12)
(5.21379e-12 1.15211e-11 5.05444e-12)
(4.64805e-12 1.17978e-11 1.12271e-12)
(6.16561e-12 1.29e-11 -1.01031e-12)
(7.72043e-12 1.07261e-11 -3.01518e-12)
(6.81467e-12 1.15975e-11 -1.18207e-11)
(2.53579e-12 1.18682e-11 -1.90235e-11)
(4.7793e-12 1.09493e-11 -2.42977e-11)
(7.16584e-12 1.41634e-11 -1.8239e-11)
(5.04785e-12 1.36999e-11 -9.2594e-12)
(1.74399e-12 1.52892e-11 -2.84636e-12)
(3.10992e-12 1.65456e-11 7.33572e-13)
(6.12962e-12 1.72791e-11 8.93111e-13)
(2.98965e-12 1.46484e-11 1.23261e-12)
(-3.07002e-13 1.55775e-11 8.44097e-13)
(-8.40772e-14 1.2705e-11 -2.10612e-12)
(-1.18325e-13 1.21941e-11 -8.08402e-12)
(8.11033e-13 1.1985e-11 -1.1224e-11)
(1.35568e-12 1.18167e-11 -9.72298e-12)
(2.74019e-12 9.19298e-12 -1.30464e-11)
(4.24863e-12 1.13106e-11 -1.68599e-11)
(1.16648e-12 1.11622e-11 -1.89344e-11)
(1.06101e-12 9.62266e-12 -2.04265e-11)
(1.07015e-12 1.22987e-11 -1.729e-11)
(1.70663e-12 1.41292e-11 -9.6564e-12)
(2.21081e-12 1.29019e-11 1.1714e-12)
(-4.00167e-12 1.59822e-11 1.15384e-11)
(-3.6224e-12 1.64137e-11 1.78906e-11)
(-1.92443e-12 1.22949e-11 1.8769e-11)
(6.62901e-13 1.51052e-11 1.68376e-11)
(3.05853e-13 1.63686e-11 1.03535e-11)
(-4.85107e-13 1.52356e-11 4.66522e-12)
(4.19217e-13 1.39378e-11 3.70654e-12)
(-2.49336e-12 1.44316e-11 2.38631e-12)
(-3.72934e-12 1.05513e-11 1.64929e-12)
(-1.9781e-12 1.75846e-11 2.91092e-13)
(9.5924e-13 1.81595e-11 -6.62401e-13)
(1.60293e-13 1.84375e-11 -1.06802e-12)
(-5.82385e-13 1.64273e-11 -3.86586e-12)
(-3.35611e-12 1.55704e-11 -5.14611e-12)
(-4.85508e-12 1.78124e-11 -5.01467e-12)
(-4.91919e-12 1.7336e-11 -4.41236e-12)
(-4.66442e-12 1.76941e-11 -9.51522e-12)
(-3.59471e-12 1.70902e-11 -1.83745e-11)
(-6.98117e-12 1.68736e-11 -2.3008e-11)
(-6.75106e-12 1.54184e-11 -2.20161e-11)
(-2.80091e-12 1.53754e-11 -1.93552e-11)
(-1.39323e-12 1.76121e-11 -1.37812e-11)
(-2.42097e-12 1.73185e-11 -7.15499e-12)
(-2.95343e-12 1.43593e-11 -7.91218e-13)
(-3.59341e-12 1.66019e-11 1.80789e-12)
(-5.35622e-13 1.74596e-11 -6.48138e-13)
(-7.6638e-13 1.78187e-11 -1.12094e-12)
(-2.36311e-12 1.88971e-11 -2.84334e-12)
(-1.11234e-12 1.90373e-11 -7.0558e-13)
(2.4744e-13 2.13654e-11 -2.34609e-12)
(2.14627e-12 2.06354e-11 -5.7505e-12)
(1.8487e-12 1.64052e-11 -3.42248e-12)
(1.24938e-12 1.91309e-11 5.12479e-12)
(3.14394e-12 2.0698e-11 8.99276e-12)
(2.27083e-12 2.17307e-11 8.98251e-12)
(-5.14015e-12 6.66853e-12 -1.78912e-11)
(-3.64044e-12 7.14423e-12 -8.93284e-12)
(8.18329e-14 7.4835e-12 2.05211e-13)
(-3.53449e-12 1.05242e-11 9.94136e-12)
(-5.30832e-12 1.13759e-11 1.86199e-11)
(-1.026e-11 1.23025e-11 1.83372e-11)
(-1.40469e-11 9.25715e-12 1.68876e-11)
(-1.90459e-11 1.21737e-11 1.24539e-11)
(-2.30158e-11 1.18266e-11 3.73271e-12)
(-2.51657e-11 1.50711e-11 -8.73396e-13)
(-2.5725e-11 1.50019e-11 1.64182e-13)
(-2.42401e-11 1.87354e-11 -1.64427e-12)
(-2.31409e-11 2.15041e-11 2.10396e-12)
(-2.50302e-11 1.9342e-11 3.46464e-12)
(-2.31106e-11 1.74298e-11 6.72631e-12)
(-2.04258e-11 1.71683e-11 5.93746e-12)
(-2.28416e-11 1.78634e-11 9.61707e-12)
(-2.55744e-11 1.76349e-11 1.17097e-11)
(-2.16855e-11 1.73105e-11 1.19642e-11)
(-2.07262e-11 1.82742e-11 7.95025e-12)
(-2.203e-11 1.99753e-11 4.37234e-12)
(-1.9815e-11 1.97389e-11 5.74807e-12)
(-1.99848e-11 1.90735e-11 1.58138e-12)
(-1.88323e-11 1.95802e-11 -5.07637e-12)
(-1.39094e-11 1.88736e-11 -8.76432e-12)
(-1.36283e-11 1.59637e-11 -1.13757e-11)
(-1.18052e-11 1.52704e-11 -1.23644e-11)
(-1.27828e-11 1.54234e-11 -1.00076e-11)
(-1.44156e-11 1.41504e-11 -8.59124e-12)
(-1.10978e-11 1.3769e-11 -9.12863e-12)
(-7.38692e-12 1.26471e-11 -1.00977e-11)
(-6.33908e-12 1.39675e-11 -9.58661e-12)
(-3.35376e-12 1.45984e-11 -6.91345e-12)
(9.59512e-13 1.3632e-11 -4.81883e-12)
(-3.34424e-13 1.67905e-11 -3.81318e-12)
(-4.92519e-12 1.85041e-11 -2.14808e-12)
(-4.00305e-12 1.81041e-11 -7.12524e-12)
(4.26209e-13 1.84745e-11 -7.39625e-12)
(9.28677e-13 1.59508e-11 -5.5769e-12)
(-5.80992e-13 1.5395e-11 -3.31364e-12)
(2.38492e-12 1.48682e-11 7.21392e-13)
(1.29108e-12 1.56083e-11 9.19958e-12)
(-1.55688e-13 1.32461e-11 1.38069e-11)
(1.2127e-12 1.62367e-11 1.35911e-11)
(5.28564e-12 1.71126e-11 8.61809e-12)
(7.64358e-12 1.60512e-11 2.89435e-12)
(5.54981e-12 1.38327e-11 1.648e-12)
(4.06823e-12 1.28214e-11 -1.1447e-12)
(5.21951e-12 1.15816e-11 -1.33045e-12)
(7.83022e-12 1.13318e-11 -3.34345e-12)
(5.97495e-12 1.03648e-11 -9.88542e-12)
(2.72759e-12 1.20149e-11 -1.7707e-11)
(4.32323e-12 1.13453e-11 -2.30501e-11)
(6.15756e-12 1.37485e-11 -1.86797e-11)
(4.36857e-12 1.5237e-11 -1.18274e-11)
(2.85625e-12 1.43391e-11 -4.72523e-12)
(3.67614e-12 1.24602e-11 -1.29228e-12)
(6.26173e-12 1.48835e-11 -3.0404e-13)
(2.52953e-12 1.69557e-11 -8.94389e-14)
(-7.73014e-13 1.46617e-11 -1.62238e-12)
(6.47461e-13 1.27873e-11 -3.29227e-12)
(1.77744e-12 1.45871e-11 -9.21792e-12)
(1.94942e-12 1.25635e-11 -1.40053e-11)
(2.30784e-12 1.33694e-11 -1.37133e-11)
(2.37959e-12 1.11342e-11 -1.35435e-11)
(2.49681e-12 1.13889e-11 -1.75634e-11)
(2.87607e-12 1.11381e-11 -2.18912e-11)
(-2.65091e-13 9.90734e-12 -2.40344e-11)
(-9.25968e-13 1.33173e-11 -2.18963e-11)
(2.07597e-12 1.02341e-11 -1.25987e-11)
(5.52733e-13 1.06255e-11 1.19859e-12)
(-4.48928e-12 1.36409e-11 1.28819e-11)
(-1.0842e-12 1.44209e-11 2.17035e-11)
(-2.21568e-13 1.55378e-11 2.76505e-11)
(-7.35975e-13 1.75573e-11 2.53387e-11)
(-4.95335e-13 1.9309e-11 1.72666e-11)
(-5.85411e-13 1.73349e-11 6.94346e-12)
(-9.75449e-13 1.81544e-11 4.17301e-12)
(-8.15814e-13 1.66163e-11 6.11838e-12)
(-2.96308e-12 1.48266e-11 5.58958e-12)
(-4.03913e-12 1.44297e-11 3.76139e-12)
(-8.07342e-13 1.47711e-11 1.76379e-12)
(8.2643e-14 1.71858e-11 8.29202e-13)
(9.26205e-13 1.82172e-11 -7.114e-16)
(-2.94563e-12 1.85123e-11 1.24163e-13)
(-5.92434e-12 1.56821e-11 5.05608e-13)
(-5.87757e-12 1.56209e-11 1.49657e-12)
(-6.23913e-12 1.68065e-11 -3.56081e-12)
(-3.66055e-12 1.71362e-11 -1.41368e-11)
(-4.29353e-12 1.58988e-11 -2.24865e-11)
(-5.2214e-12 1.28996e-11 -2.01065e-11)
(-4.67453e-12 1.36225e-11 -1.63186e-11)
(-2.21549e-12 1.60424e-11 -1.09782e-11)
(-1.0521e-12 1.60542e-11 -7.70889e-12)
(-3.83263e-12 1.6125e-11 -5.85905e-12)
(-4.52899e-12 1.65394e-11 -3.41394e-12)
(-2.19482e-13 1.66637e-11 -2.72869e-12)
(-7.70573e-13 1.60842e-11 -3.11711e-12)
(-3.14181e-12 1.67511e-11 -3.63788e-12)
(-3.02063e-12 1.84934e-11 -3.33941e-12)
(-7.66954e-13 1.98139e-11 -5.31413e-12)
(4.34729e-12 1.95612e-11 -9.58034e-12)
(3.62808e-12 1.95574e-11 -8.00569e-12)
(1.84922e-14 1.94887e-11 -3.90914e-12)
(2.04388e-12 1.92433e-11 -6.27046e-13)
(-6.43571e-12 7.11479e-12 -1.51688e-11)
(-6.39551e-12 8.27466e-12 -8.39114e-12)
(-2.98983e-12 8.44332e-12 -6.26365e-13)
(-4.20291e-12 1.29867e-11 6.69193e-12)
(-6.27543e-12 1.32602e-11 1.34877e-11)
(-9.46175e-12 1.36151e-11 1.66906e-11)
(-1.32335e-11 8.40714e-12 1.79804e-11)
(-1.92205e-11 9.82165e-12 1.42578e-11)
(-2.15329e-11 1.10479e-11 5.24698e-12)
(-2.63998e-11 1.22077e-11 1.06368e-12)
(-2.80364e-11 1.49768e-11 2.22671e-13)
(-2.70484e-11 1.69269e-11 5.80508e-14)
(-2.46704e-11 1.93036e-11 1.8146e-12)
(-2.30701e-11 1.89414e-11 4.12593e-12)
(-2.13249e-11 1.6584e-11 5.03571e-12)
(-2.04865e-11 1.75991e-11 6.44714e-12)
(-2.2621e-11 1.92544e-11 8.56022e-12)
(-2.47346e-11 1.80127e-11 9.9896e-12)
(-2.30398e-11 1.83132e-11 1.16031e-11)
(-2.17562e-11 2.10689e-11 7.59399e-12)
(-2.21371e-11 2.00502e-11 5.6178e-12)
(-1.99579e-11 2.00447e-11 7.93749e-12)
(-1.78588e-11 1.83515e-11 2.37231e-12)
(-1.70014e-11 1.49547e-11 -4.973e-12)
(-1.2648e-11 1.25939e-11 -7.68088e-12)
(-1.28535e-11 1.12411e-11 -1.08784e-11)
(-1.30832e-11 9.48642e-12 -1.09659e-11)
(-1.29917e-11 1.36351e-11 -7.36405e-12)
(-1.33626e-11 1.27762e-11 -6.15036e-12)
(-9.8424e-12 1.3269e-11 -7.19443e-12)
(-7.03748e-12 9.51785e-12 -6.81343e-12)
(-6.66842e-12 9.83402e-12 -9.54499e-12)
(-3.72167e-12 1.16296e-11 -6.88055e-12)
(-1.63253e-12 1.09571e-11 -4.29379e-12)
(-3.81708e-12 1.63232e-11 -3.01324e-12)
(-4.6328e-12 1.93323e-11 -3.08818e-12)
(-2.42137e-12 1.57953e-11 -6.11856e-12)
(2.09804e-12 1.56441e-11 -5.0986e-12)
(1.81507e-12 1.44079e-11 -4.94263e-12)
(-2.63733e-13 1.44324e-11 -4.6449e-12)
(2.26066e-12 1.08027e-11 3.4429e-13)
(2.34309e-12 1.14403e-11 1.00861e-11)
(3.44906e-13 1.05778e-11 1.54018e-11)
(1.05472e-13 1.41842e-11 1.3976e-11)
(3.82011e-12 1.57213e-11 8.15389e-12)
(7.86843e-12 1.71157e-11 3.03228e-12)
(7.31985e-12 1.21547e-11 2.01524e-12)
(5.56637e-12 9.09201e-12 9.84674e-13)
(6.95078e-12 6.3165e-12 3.02423e-12)
(7.79445e-12 6.81094e-12 2.4764e-13)
(5.81897e-12 5.37562e-12 -7.33814e-12)
(2.27068e-12 7.02685e-12 -1.65999e-11)
(3.2613e-12 7.4366e-12 -2.36234e-11)
(3.65475e-12 1.02285e-11 -1.96154e-11)
(4.52002e-12 1.31202e-11 -1.45399e-11)
(5.61331e-12 9.58131e-12 -6.10956e-12)
(2.79325e-12 7.15615e-12 -1.99323e-12)
(2.4553e-12 1.17737e-11 -2.29854e-12)
(2.5226e-12 1.35989e-11 -3.46647e-12)
(1.44793e-12 1.18839e-11 -3.97053e-12)
(-3.59088e-13 1.14819e-11 -4.45185e-12)
(1.90631e-13 1.11687e-11 -9.63658e-12)
(1.51688e-12 1.07289e-11 -1.40679e-11)
(2.42255e-12 1.2698e-11 -1.52178e-11)
(4.28894e-12 1.1685e-11 -1.31077e-11)
(4.23956e-12 8.9442e-12 -1.75421e-11)
(2.3142e-12 8.59803e-12 -2.25052e-11)
(-8.08286e-13 9.09752e-12 -2.48038e-11)
(2.34744e-13 9.21849e-12 -2.57829e-11)
(3.87349e-12 8.60045e-12 -1.56648e-11)
(3.34166e-13 6.36282e-12 5.3161e-13)
(-5.63681e-12 8.43271e-12 1.25934e-11)
(-3.46965e-12 1.30836e-11 2.00555e-11)
(-3.25739e-12 1.53192e-11 2.3361e-11)
(-2.27967e-12 1.87803e-11 1.88213e-11)
(6.93254e-14 2.09814e-11 1.22527e-11)
(-3.80779e-13 1.86792e-11 6.02562e-12)
(4.17916e-13 2.05851e-11 2.58565e-12)
(1.94896e-13 1.86071e-11 5.75763e-12)
(-1.66655e-12 1.47094e-11 9.73337e-12)
(-2.43865e-12 1.05088e-11 9.37542e-12)
(-1.05069e-12 1.12474e-11 6.46133e-12)
(-1.69338e-12 1.25616e-11 3.45218e-12)
(-1.8768e-12 1.68863e-11 4.11759e-12)
(-8.91526e-13 1.90075e-11 4.79465e-12)
(-3.3477e-12 1.49707e-11 7.00367e-12)
(-6.18976e-12 1.4424e-11 8.40155e-12)
(-6.59539e-12 1.71239e-11 1.74951e-12)
(-2.76745e-12 1.39575e-11 -1.11579e-11)
(-2.7269e-12 1.24349e-11 -1.76836e-11)
(-4.27982e-12 1.10455e-11 -1.68675e-11)
(-5.63338e-12 1.04105e-11 -1.33715e-11)
(-4.69602e-12 1.22039e-11 -8.82265e-12)
(-2.08527e-12 1.24367e-11 -8.62196e-12)
(-2.93144e-12 1.29012e-11 -8.25708e-12)
(-4.09338e-12 1.23242e-11 -5.90382e-12)
(-6.40358e-13 1.30581e-11 -4.88262e-12)
(-8.7757e-13 1.34509e-11 -3.55042e-12)
(-3.87717e-12 1.26856e-11 -4.1394e-12)
(-3.69976e-12 1.49994e-11 -3.83821e-12)
(-1.29081e-12 1.62569e-11 -5.13615e-12)
(2.35115e-12 1.64738e-11 -9.18881e-12)
(2.77242e-12 1.9855e-11 -1.22153e-11)
(2.89031e-12 1.71937e-11 -8.89902e-12)
(2.22191e-12 1.49757e-11 -2.41644e-12)
(-1.23668e-11 5.06845e-12 -1.12222e-11)
(-7.48557e-12 5.37386e-12 -7.99691e-12)
(-3.68562e-12 5.25425e-12 -5.05141e-12)
(-5.47615e-12 6.40717e-12 2.70409e-12)
(-7.21154e-12 5.74123e-12 6.9101e-12)
(-6.99826e-12 6.4521e-12 1.3217e-11)
(-1.06265e-11 8.26306e-12 1.39252e-11)
(-2.00492e-11 7.80833e-12 1.2413e-11)
(-2.40844e-11 9.76545e-12 5.14273e-12)
(-2.87329e-11 1.07886e-11 1.2331e-12)
(-2.98029e-11 1.3776e-11 -9.89949e-13)
(-2.87295e-11 1.25067e-11 -1.6366e-12)
(-2.64582e-11 1.48315e-11 -1.80218e-12)
(-2.31702e-11 1.70583e-11 2.90494e-13)
(-2.19694e-11 1.52763e-11 2.65954e-12)
(-2.21633e-11 1.63935e-11 6.87618e-12)
(-2.27449e-11 1.69388e-11 8.21577e-12)
(-2.40372e-11 1.63174e-11 8.30278e-12)
(-2.33441e-11 1.46449e-11 8.05577e-12)
(-2.22795e-11 1.65506e-11 6.11918e-12)
(-2.14457e-11 1.55335e-11 5.67787e-12)
(-1.88548e-11 1.56345e-11 8.39134e-12)
(-1.63012e-11 1.28801e-11 4.37842e-12)
(-1.57366e-11 1.25031e-11 -3.38238e-12)
(-1.23355e-11 1.00901e-11 -5.09314e-12)
(-1.04952e-11 1.09781e-11 -9.88329e-12)
(-1.34802e-11 1.06995e-11 -1.13271e-11)
(-1.51787e-11 1.45641e-11 -1.07091e-11)
(-1.39795e-11 1.43722e-11 -7.93777e-12)
(-7.95624e-12 1.27616e-11 -5.78416e-12)
(-4.57559e-12 1.03263e-11 -2.92244e-12)
(-7.17696e-12 8.77943e-12 -6.85234e-12)
(-4.39755e-12 8.35024e-12 -6.5791e-12)
(-3.60975e-12 8.89031e-12 -3.5565e-12)
(-6.67684e-12 9.88197e-12 -1.32467e-12)
(-3.2676e-12 1.09884e-11 -1.88271e-12)
(-8.76564e-13 8.57095e-12 -5.94922e-12)
(1.20856e-12 1.07329e-11 -5.2009e-12)
(1.71588e-12 1.24133e-11 -7.15977e-12)
(1.75921e-12 1.06764e-11 -1.75948e-12)
(5.13733e-12 7.85915e-12 2.7534e-12)
(1.69616e-12 9.02035e-12 8.37819e-12)
(-1.75517e-12 1.22397e-11 1.11846e-11)
(-1.52838e-12 1.10078e-11 1.17405e-11)
(3.40565e-12 1.04688e-11 7.82911e-12)
(9.26055e-12 1.42933e-11 3.84989e-12)
(9.98994e-12 1.14983e-11 3.04524e-12)
(7.88874e-12 8.62059e-12 3.80209e-12)
(7.30322e-12 6.97236e-12 8.28174e-12)
(7.28014e-12 5.47812e-12 6.46488e-12)
(6.15414e-12 5.26833e-12 -2.08766e-12)
(8.07336e-13 4.87259e-12 -1.00587e-11)
(-5.51628e-13 4.93396e-12 -1.68272e-11)
(1.1495e-12 5.48965e-12 -1.40249e-11)
(5.87219e-12 8.96656e-12 -1.08692e-11)
(7.28505e-12 8.11188e-12 -2.42142e-12)
(1.83845e-12 7.99277e-12 -1.36724e-12)
(9.6721e-13 9.35499e-12 -3.59294e-12)
(2.50979e-12 1.30372e-11 -5.96799e-12)
(6.05071e-13 1.40686e-11 -6.92267e-12)
(9.91614e-13 1.2283e-11 -7.65971e-12)
(1.78428e-12 1.12151e-11 -1.08363e-11)
(1.18031e-13 1.04392e-11 -1.35731e-11)
(1.38946e-12 9.68637e-12 -1.41543e-11)
(5.47609e-12 8.53113e-12 -1.2117e-11)
(5.20023e-12 9.19017e-12 -1.74397e-11)
(2.45029e-12 9.69373e-12 -2.24533e-11)
(-1.27812e-12 9.12946e-12 -2.51275e-11)
(-5.10399e-13 6.94107e-12 -2.88386e-11)
(5.44224e-12 7.52383e-12 -1.61022e-11)
(8.49751e-13 7.10535e-12 1.18113e-12)
(-7.57714e-12 6.90245e-12 1.13027e-11)
(-4.48775e-12 8.3487e-12 1.7595e-11)
(-3.85757e-12 8.9021e-12 2.13277e-11)
(-5.38796e-12 1.14835e-11 1.48703e-11)
(-1.63997e-12 1.35152e-11 1.04374e-11)
(-2.17561e-12 1.46768e-11 4.82584e-12)
(-9.17818e-13 1.65701e-11 8.9506e-13)
(2.4956e-12 1.6092e-11 3.76336e-12)
(1.80543e-12 1.30421e-11 8.4489e-12)
(-1.79155e-12 1.19359e-11 1.2782e-11)
(-1.83665e-12 1.09189e-11 1.04418e-11)
(-3.71753e-12 1.13108e-11 5.67174e-12)
(-4.30103e-12 1.26065e-11 6.76048e-12)
(-1.32815e-12 1.42599e-11 7.85254e-12)
(-1.99573e-12 1.57582e-11 9.91964e-12)
(-6.99963e-12 1.517e-11 7.79946e-12)
(-6.1503e-12 1.53718e-11 -1.96903e-12)
(-2.96276e-13 1.39427e-11 -1.19805e-11)
(-2.18492e-12 1.31586e-11 -1.53112e-11)
(-3.49869e-12 1.31125e-11 -1.48867e-11)
(-4.70112e-12 1.11993e-11 -1.14322e-11)
(-4.01117e-12 1.01973e-11 -8.29294e-12)
(-2.43456e-12 1.03527e-11 -7.12518e-12)
(-3.64258e-12 1.02254e-11 -6.88545e-12)
(-5.02914e-12 1.11689e-11 -4.93536e-12)
(-1.74677e-12 1.03237e-11 -3.77772e-12)
(-3.95737e-13 1.28757e-11 -1.26255e-12)
(-3.60744e-12 1.08778e-11 4.67569e-13)
(-5.47394e-12 8.7772e-12 -2.31354e-12)
(-8.12204e-13 9.88358e-12 -5.47262e-12)
(2.03587e-12 1.0848e-11 -9.69988e-12)
(2.34759e-12 1.20453e-11 -1.23927e-11)
(4.3365e-12 1.15734e-11 -8.02297e-12)
(1.01393e-12 1.21814e-11 -4.91644e-12)
(-1.0928e-11 -9.28488e-13 -9.72656e-12)
(-8.569e-12 1.74399e-13 -6.92901e-12)
(-5.93225e-12 2.66655e-12 -5.299e-12)
(-5.94413e-12 1.92024e-12 1.84418e-12)
(-7.79759e-12 6.99827e-13 6.13599e-12)
(-1.18471e-11 1.72631e-12 8.90485e-12)
(-1.34999e-11 8.69011e-12 9.28296e-12)
(-1.93003e-11 1.01129e-11 8.92131e-12)
(-2.5037e-11 8.6901e-12 3.6404e-12)
(-3.01049e-11 8.37029e-12 4.57021e-13)
(-2.9312e-11 1.01173e-11 -1.59051e-12)
(-2.89527e-11 8.97021e-12 -3.31864e-12)
(-2.91139e-11 8.19684e-12 -4.61399e-12)
(-2.3594e-11 9.77418e-12 -2.3851e-12)
(-2.13709e-11 1.28662e-11 -1.89636e-14)
(-2.21081e-11 1.21048e-11 3.04795e-12)
(-2.21938e-11 1.19896e-11 5.02559e-12)
(-2.22559e-11 1.24867e-11 5.77778e-12)
(-2.28362e-11 1.10579e-11 7.13468e-12)
(-2.27663e-11 1.17435e-11 4.35115e-12)
(-2.08783e-11 1.18835e-11 3.72749e-12)
(-1.79389e-11 1.37913e-11 6.92533e-12)
(-1.66192e-11 1.34632e-11 5.31736e-12)
(-1.58448e-11 1.47718e-11 -3.25833e-12)
(-1.24036e-11 1.09898e-11 -7.01733e-12)
(-1.26057e-11 1.23543e-11 -1.06444e-11)
(-1.63579e-11 1.58681e-11 -1.19999e-11)
(-1.56233e-11 1.61078e-11 -1.38006e-11)
(-1.12108e-11 1.31092e-11 -9.64836e-12)
(-6.51254e-12 9.55735e-12 -6.08337e-12)
(-3.88128e-12 1.20882e-11 -6.95095e-12)
(-4.53221e-12 1.11208e-11 -7.4902e-12)
(-4.6333e-12 1.00513e-11 -6.47698e-12)
(-3.60844e-12 1.10692e-11 -3.26627e-12)
(-5.93687e-12 8.05367e-12 1.25873e-12)
(-3.40713e-12 6.19053e-12 2.89621e-12)
(-2.46134e-12 6.64485e-12 -1.18696e-12)
(-1.3565e-12 6.798e-12 -3.66209e-12)
(2.78363e-12 7.57558e-12 -4.88912e-12)
(3.65165e-12 9.15791e-12 1.65065e-12)
(3.01663e-12 9.20569e-12 4.60031e-12)
(-4.19084e-13 1.21167e-11 6.34264e-12)
(1.98381e-13 1.25541e-11 6.89193e-12)
(2.11598e-12 1.04629e-11 1.1173e-11)
(1.07012e-12 8.99172e-12 7.62588e-12)
(6.06514e-12 1.218e-11 3.12643e-12)
(9.43718e-12 1.25586e-11 5.67611e-12)
(9.04531e-12 1.22698e-11 4.03708e-12)
(9.40713e-12 1.21095e-11 5.89588e-12)
(6.83089e-12 1.04438e-11 5.57091e-12)
(4.36297e-12 1.21766e-11 1.91226e-12)
(1.84589e-12 9.27676e-12 -1.50392e-13)
(3.39487e-12 7.8725e-12 -3.7433e-12)
(2.48197e-12 6.11208e-12 -5.89908e-12)
(3.27734e-12 7.10514e-12 -7.72458e-12)
(4.99167e-12 1.06899e-11 -3.36801e-12)
(1.61414e-12 1.40406e-11 -2.21142e-12)
(-7.80855e-13 1.30498e-11 -3.29945e-12)
(-1.16563e-13 1.51279e-11 -7.39469e-12)
(2.09902e-12 1.58446e-11 -8.9918e-12)
(2.035e-12 1.58242e-11 -8.92402e-12)
(1.50331e-12 1.36763e-11 -1.16687e-11)
(2.34973e-12 1.2784e-11 -1.40028e-11)
(3.93375e-12 9.19541e-12 -1.32919e-11)
(3.57418e-12 8.47687e-12 -1.1074e-11)
(1.96176e-12 9.38209e-12 -1.68549e-11)
(1.59511e-12 1.19528e-11 -2.12273e-11)
(1.1784e-12 1.05291e-11 -2.32522e-11)
(2.24751e-12 7.44176e-12 -2.27167e-11)
(4.56608e-12 7.3217e-12 -1.36244e-11)
(4.04094e-13 1.0761e-11 1.25109e-12)
(-4.31582e-12 9.55576e-12 1.17231e-11)
(-3.75424e-12 6.5105e-12 1.25548e-11)
(-5.63042e-12 7.47728e-12 1.23828e-11)
(-4.98391e-12 7.69235e-12 8.75061e-12)
(-2.63551e-12 8.75879e-12 1.00017e-11)
(-3.67278e-12 1.27983e-11 6.22748e-12)
(-5.46776e-13 1.23433e-11 3.79627e-12)
(2.11068e-12 1.18591e-11 3.28485e-12)
(-2.33135e-13 1.46568e-11 4.91983e-12)
(-1.3176e-12 1.71141e-11 6.71475e-12)
(-1.62461e-12 1.56423e-11 5.46025e-12)
(-2.52294e-12 1.67243e-11 5.48986e-12)
(-3.52808e-12 1.34319e-11 9.5777e-12)
(-3.64756e-12 1.4723e-11 1.26868e-11)
(-3.51987e-12 1.49584e-11 1.25106e-11)
(-5.53112e-12 1.60017e-11 8.15441e-12)
(-5.70322e-12 1.10385e-11 -3.33328e-12)
(-1.51212e-12 1.17191e-11 -1.05683e-11)
(-2.16889e-12 1.19096e-11 -1.52423e-11)
(-2.68191e-12 1.22853e-11 -1.41266e-11)
(-2.48884e-12 1.16985e-11 -7.9354e-12)
(-3.9987e-12 1.07267e-11 -6.31101e-12)
(-2.94896e-12 1.11861e-11 -4.49517e-12)
(-3.57795e-12 1.12038e-11 -4.95923e-12)
(-4.16376e-12 1.19888e-11 -8.401e-12)
(-2.05766e-12 1.10359e-11 -6.66349e-12)
(-9.74623e-13 1.04859e-11 -4.93301e-12)
(-4.85726e-13 9.39236e-12 1.13853e-13)
(-2.54722e-12 6.68051e-12 -5.64419e-13)
(-2.53723e-12 7.08837e-12 -6.57155e-12)
(1.22428e-12 6.29571e-12 -1.11702e-11)
(2.13329e-12 9.71373e-12 -8.85325e-12)
(2.1181e-12 8.88018e-12 -7.50332e-12)
(7.38183e-13 1.18246e-11 -9.22148e-12)
(-9.69706e-12 2.59415e-12 -4.45392e-12)
(-1.20499e-11 3.09001e-12 -3.94802e-12)
(-9.42559e-12 4.23667e-12 -4.87457e-12)
(-7.02452e-12 3.95257e-12 -5.79015e-13)
(-9.49084e-12 5.16684e-12 3.06373e-12)
(-1.52378e-11 6.87147e-12 4.53139e-12)
(-1.72153e-11 9.86802e-12 6.37853e-12)
(-1.90572e-11 1.06558e-11 5.07769e-12)
(-2.38377e-11 1.09156e-11 1.93271e-12)