/*--------------------------------*- C++ -*----------------------------------*\
| =========                 |                                                 |
| \\      /  F ield         | OpenFOAM: The Open Source CFD Toolbox           |
|  \\    /   O peration     | Version:  2406                                  |
|   \\  /    A nd           | Website:  www.openfoam.com                      |
|    \\/     M anipulation  |                                                 |
\*---------------------------------------------------------------------------*/
FoamFile
{
    version     2.0;
    format      ascii;
    arch        "LSB;label=32;scalar=64";
    class       volScalarField;
    location    "0.09";
    object      Ma;
}
// * * * * * * * * * * * * * * * * * * * * * * * * * * * * * * * * * * * * * //

dimensions      [0 0 0 0 0 0 0];

internalField   nonuniform List<scalar> 
13946
(
4.46842e-14
5.28019e-14
5.18541e-14
5.3775e-14
4.84922e-14
4.51075e-14
4.66504e-14
4.86482e-14
3.30702e-14
3.74736e-14
3.23528e-14
3.43895e-14
3.55558e-14
2.97848e-14
4.04628e-14
5.42329e-14
5.48431e-14
5.93002e-14
6.44065e-14
6.42505e-14
6.04816e-14
6.27443e-14
6.3032e-14
6.54454e-14
7.06242e-14
6.23215e-14
4.19714e-14
3.00538e-14
2.6806e-14
2.38655e-14
2.29378e-14
2.45366e-14
3.09342e-14
3.35676e-14
4.33624e-14
2.80924e-14
1.80002e-14
1.90856e-14
2.13456e-14
3.79925e-14
5.19534e-14
4.14663e-14
4.13087e-14
3.11608e-14
3.28473e-14
3.17976e-14
3.97859e-14
6.65656e-14
7.09618e-14
6.35889e-14
6.104e-14
7.84884e-14
8.10525e-14
7.92963e-14
7.65006e-14
7.14762e-14
6.84415e-14
6.32356e-14
4.36969e-14
1.84908e-14
1.9505e-14
2.52561e-14
2.88912e-14
2.45102e-14
2.46598e-14
2.20156e-14
2.9839e-14
2.42098e-14
2.37637e-14
2.16325e-14
2.07642e-14
2.01033e-14
2.3636e-14
1.92031e-14
2.47776e-14
1.91061e-14
2.47794e-14
2.40495e-14
2.72458e-14
1.60232e-14
1.06262e-14
1.28653e-14
1.52006e-14
2.53519e-14
4.31154e-14
4.98649e-14
5.16881e-14
4.3073e-14
4.09899e-14
3.33706e-14
3.12142e-14
1.46458e-14
4.27013e-14
4.65868e-14
5.3106e-14
5.09699e-14
5.02403e-14
4.73918e-14
4.89514e-14
5.8272e-14
4.33887e-14
3.87057e-14
3.17978e-14
3.7781e-14
3.40627e-14
3.24917e-14
4.66946e-14
6.59395e-14
6.17432e-14
6.33315e-14
5.91959e-14
6.74515e-14
6.77361e-14
6.18505e-14
6.01766e-14
6.93135e-14
7.7325e-14
7.60876e-14
6.06677e-14
4.3366e-14
4.15609e-14
3.81866e-14
3.62931e-14
3.52351e-14
4.03236e-14
4.22256e-14
4.01006e-14
3.73504e-14
3.60327e-14
3.27905e-14
2.53579e-14
4.20336e-14
4.53163e-14
4.60422e-14
4.58235e-14
3.82477e-14
4.11575e-14
3.66011e-14
5.19568e-14
6.75805e-14
7.27488e-14
7.29757e-14
7.57631e-14
8.85391e-14
9.09415e-14
9.09964e-14
9.25613e-14
9.3581e-14
9.08855e-14
7.95736e-14
6.01872e-14
3.50602e-14
3.40371e-14
3.80657e-14
4.20073e-14
3.75949e-14
3.43589e-14
3.04934e-14
3.63323e-14
4.1237e-14
3.10033e-14
2.60888e-14
2.18911e-14
1.90908e-14
2.93586e-14
3.52645e-14
3.7397e-14
2.91603e-14
3.61591e-14
4.20146e-14
3.84951e-14
2.98333e-14
2.61618e-14
2.94857e-14
3.91536e-14
4.21635e-14
5.5277e-14
6.09327e-14
6.34974e-14
4.93221e-14
4.41031e-14
4.55266e-14
3.6328e-14
2.06452e-14
5.03101e-14
5.40843e-14
5.67146e-14
5.81521e-14
5.55834e-14
5.17098e-14
5.21316e-14
5.53023e-14
5.55219e-14
3.66999e-14
3.99574e-14
5.01915e-14
5.09135e-14
5.13602e-14
5.76999e-14
6.30471e-14
6.36804e-14
6.30387e-14
6.06457e-14
6.22343e-14
5.96668e-14
5.02621e-14
5.97493e-14
6.97164e-14
7.45399e-14
6.92366e-14
6.19158e-14
5.39296e-14
5.77538e-14
4.99061e-14
4.41193e-14
3.82982e-14
4.50884e-14
4.71524e-14
5.06235e-14
4.99613e-14
4.61037e-14
3.91135e-14
4.01041e-14
3.9638e-14
3.82827e-14
4.02624e-14
3.96559e-14
4.20865e-14
3.99464e-14
5.39083e-14
6.47353e-14
7.41118e-14
8.16334e-14
8.23765e-14
8.96298e-14
1.01781e-13
1.09574e-13
1.12403e-13
1.1669e-13
1.18896e-13
1.14623e-13
9.59678e-14
6.62215e-14
3.82705e-14
3.65297e-14
3.78836e-14
4.24271e-14
4.03125e-14
4.36871e-14
4.29012e-14
3.81934e-14
3.94067e-14
4.40039e-14
3.94561e-14
3.83895e-14
3.91164e-14
4.5476e-14
4.72292e-14
4.66238e-14
4.14056e-14
4.07737e-14
3.57644e-14
2.92988e-14
3.27814e-14
3.0111e-14
3.50916e-14
4.54091e-14
4.18642e-14
5.41698e-14
6.55909e-14
6.89127e-14
5.97995e-14
4.72164e-14
4.13627e-14
3.18744e-14
2.56749e-14
4.8731e-14
5.90704e-14
6.87173e-14
6.60966e-14
6.7924e-14
6.24522e-14
5.63129e-14
5.18414e-14
6.01726e-14
5.88102e-14
4.20677e-14
4.80492e-14
6.26915e-14
7.41684e-14
7.48283e-14
7.36209e-14
6.76518e-14
6.30848e-14
6.41147e-14
7.00354e-14
6.6823e-14
6.38438e-14
6.13635e-14
6.65635e-14
6.94608e-14
6.88834e-14
6.54962e-14
5.95543e-14
5.98898e-14
5.86909e-14
5.13871e-14
4.52757e-14
3.97044e-14
4.12321e-14
4.39933e-14
5.26976e-14
5.10023e-14
5.23528e-14
5.20988e-14
5.62337e-14
4.87253e-14
4.45384e-14
4.12362e-14
4.42832e-14
5.0088e-14
4.88042e-14
5.43698e-14
7.46932e-14
9.53509e-14
1.03265e-13
1.03692e-13
1.06691e-13
1.24304e-13
1.34087e-13
1.38827e-13
1.4395e-13
1.47764e-13
1.39085e-13
1.12559e-13
7.65882e-14
4.56305e-14
3.54289e-14
3.4562e-14
3.70124e-14
3.91492e-14
4.68312e-14
5.41316e-14
4.70335e-14
4.2953e-14
4.71707e-14
5.05623e-14
5.0157e-14
5.47935e-14
5.36895e-14
5.67685e-14
5.79054e-14
5.29556e-14
4.11103e-14
3.2435e-14
3.00736e-14
3.98278e-14
4.08772e-14
4.90302e-14
5.18919e-14
5.36797e-14
6.62435e-14
7.59846e-14
7.89483e-14
6.91531e-14
4.67564e-14
4.54803e-14
3.51619e-14
2.84447e-14
3.0565e-14
4.4372e-14
6.69985e-14
8.22982e-14
7.44025e-14
6.50637e-14
5.67333e-14
4.43428e-14
4.52956e-14
4.65899e-14
4.52298e-14
4.23518e-14
4.45059e-14
6.05518e-14
8.25921e-14
8.70709e-14
8.13745e-14
6.94732e-14
6.33163e-14
6.25035e-14
7.27797e-14
7.51998e-14
7.17152e-14
6.68793e-14
6.41026e-14
6.5297e-14
6.08902e-14
5.9787e-14
5.63508e-14
5.58594e-14
4.76321e-14
5.22346e-14
4.66654e-14
5.13731e-14
4.85736e-14
5.14778e-14
5.38243e-14
5.1395e-14
5.81734e-14
6.3035e-14
5.95001e-14
4.71168e-14
4.3222e-14
4.52664e-14
4.38345e-14
4.66743e-14
4.72247e-14
4.97049e-14
8.28802e-14
1.12236e-13
1.20197e-13
1.20142e-13
1.2494e-13
1.38786e-13
1.47659e-13
1.53746e-13
1.65959e-13
1.72139e-13
1.55436e-13
1.22191e-13
8.36507e-14
5.07536e-14
4.8025e-14
4.31942e-14
4.18216e-14
4.50557e-14
4.99865e-14
5.42388e-14
5.69107e-14
5.98392e-14
6.33197e-14
6.81825e-14
6.51676e-14
6.96107e-14
6.63363e-14
6.37666e-14
6.41379e-14
6.13046e-14
5.22955e-14
4.9544e-14
5.02894e-14
4.84269e-14
4.91311e-14
5.36854e-14
5.59326e-14
6.14229e-14
6.83158e-14
7.27712e-14
6.92101e-14
6.23927e-14
4.51762e-14
4.82908e-14
3.94751e-14
4.09957e-14
3.57818e-14
4.86003e-14
7.72534e-14
1.00875e-13
9.94692e-14
8.68173e-14
6.29505e-14
4.83741e-14
4.77705e-14
4.98043e-14
5.16148e-14
5.05614e-14
4.77796e-14
6.74684e-14
8.14362e-14
8.64912e-14
8.34894e-14
7.66001e-14
6.85101e-14
6.57033e-14
7.78578e-14
8.13363e-14
7.83218e-14
7.4038e-14
7.31213e-14
7.23167e-14
6.87602e-14
6.722e-14
6.05646e-14
5.35391e-14
5.39834e-14
5.90188e-14
5.76247e-14
5.9425e-14
6.81986e-14
6.68615e-14
6.12551e-14
5.84412e-14
6.56027e-14
6.91767e-14
5.66138e-14
3.92932e-14
4.94972e-14
5.31453e-14
5.03055e-14
5.97213e-14
5.55907e-14
5.69177e-14
8.81364e-14
1.22489e-13
1.31274e-13
1.31555e-13
1.40304e-13
1.51998e-13
1.58553e-13
1.68129e-13
1.83503e-13
1.89222e-13
1.74353e-13
1.35463e-13
8.90446e-14
5.57532e-14
6.19037e-14
5.60268e-14
5.2565e-14
5.59558e-14
5.50216e-14
6.10642e-14
6.40802e-14
7.37045e-14
7.75893e-14
7.5659e-14
7.58383e-14
8.30672e-14
8.10493e-14
7.90222e-14
7.49127e-14
7.64943e-14
7.00926e-14
6.70751e-14
6.53382e-14
6.14015e-14
5.73172e-14
6.56648e-14
6.61909e-14
6.64199e-14
6.89635e-14
6.99737e-14
6.40985e-14
6.35145e-14
5.3403e-14
5.22293e-14
4.77497e-14
5.13057e-14
4.30932e-14
5.42898e-14
7.693e-14
1.11608e-13
1.1719e-13
1.04911e-13
6.33968e-14
5.73918e-14
6.69452e-14
5.70607e-14
4.98903e-14
4.91375e-14
5.52188e-14
6.89465e-14
7.95027e-14
8.94351e-14
8.60103e-14
7.04632e-14
6.57853e-14
6.14763e-14
7.18084e-14
7.99697e-14
7.03987e-14
6.6505e-14
6.47599e-14
6.76331e-14
6.66419e-14
6.67132e-14
6.77107e-14
5.66996e-14
5.61287e-14
5.93072e-14
5.81469e-14
6.4818e-14
7.42186e-14
6.55646e-14
5.34519e-14
6.53854e-14
6.17312e-14
5.81875e-14
5.05017e-14
4.37229e-14
5.30685e-14
5.72487e-14
6.20424e-14
6.7537e-14
6.21326e-14
5.46968e-14
8.08558e-14
1.20439e-13
1.39386e-13
1.40072e-13
1.51479e-13
1.6067e-13
1.62918e-13
1.6904e-13
1.92865e-13
2.00294e-13
1.8461e-13
1.43639e-13
9.10651e-14
6.87006e-14
5.83035e-14
4.81375e-14
4.61212e-14
5.05134e-14
4.79905e-14
5.53034e-14
5.812e-14
6.72503e-14
7.4604e-14
8.31552e-14
8.19071e-14
7.58564e-14
7.86869e-14
7.80555e-14
7.37888e-14
8.14877e-14
7.19882e-14
6.48444e-14
5.71749e-14
5.52603e-14
5.89661e-14
6.20564e-14
6.30404e-14
6.4094e-14
6.08025e-14
5.5397e-14
5.46797e-14
5.50241e-14
5.4742e-14
4.19458e-14
3.77811e-14
3.85502e-14
3.51303e-14
5.73487e-14
7.81009e-14
9.28831e-14
9.03794e-14
7.6913e-14
5.76565e-14
5.53789e-14
6.53284e-14
5.10525e-14
4.46435e-14
4.94619e-14
5.21737e-14
5.01176e-14
6.12018e-14
7.79733e-14
6.98351e-14
5.21437e-14
5.30068e-14
4.79822e-14
4.85015e-14
5.91469e-14
5.50148e-14
4.6146e-14
4.04063e-14
4.73554e-14
5.33017e-14
5.26661e-14
6.08345e-14
6.38286e-14
5.93504e-14
5.6334e-14
5.73424e-14
6.72088e-14
6.41196e-14
6.02448e-14
4.33957e-14
5.44238e-14
4.81269e-14
4.33102e-14
4.6636e-14
5.44519e-14
5.03191e-14
5.60668e-14
6.73092e-14
5.25248e-14
5.32244e-14
4.33918e-14
6.74044e-14
1.01754e-13
1.24829e-13
1.24613e-13
1.33757e-13
1.42721e-13
1.41988e-13
1.46585e-13
1.60665e-13
1.63808e-13
1.49169e-13
1.13365e-13
7.77617e-14
7.3229e-14
5.58316e-14
4.3558e-14
4.06162e-14
4.4284e-14
4.48304e-14
5.21747e-14
5.77637e-14
6.38168e-14
7.11264e-14
8.35205e-14
8.87866e-14
7.89003e-14
8.61424e-14
8.10222e-14
7.16882e-14
7.63537e-14
6.59809e-14
5.87331e-14
6.06623e-14
5.37078e-14
6.16476e-14
5.65722e-14
5.73164e-14
5.93401e-14
5.46816e-14
5.17613e-14
5.55951e-14
5.40193e-14
4.60761e-14
3.89815e-14
3.24217e-14
3.12094e-14
2.76679e-14
5.62591e-14
5.58667e-14
7.14173e-14
8.7611e-14
7.65741e-14
6.26173e-14
5.53883e-14
5.62338e-14
5.53152e-14
5.44436e-14
4.65831e-14
5.10475e-14
5.38656e-14
4.50849e-14
3.82717e-14
4.84308e-14
6.05614e-14
6.2077e-14
5.73918e-14
6.06384e-14
5.61925e-14
6.23145e-14
6.17499e-14
6.55873e-14
6.49447e-14
6.45815e-14
6.66787e-14
6.72014e-14
6.65581e-14
7.08913e-14
7.00945e-14
6.37906e-14
7.04284e-14
7.57104e-14
6.95355e-14
5.47758e-14
4.65766e-14
3.78105e-14
4.88614e-14
5.34881e-14
5.33319e-14
5.81461e-14
5.95438e-14
6.14464e-14
5.73787e-14
4.51859e-14
5.17993e-14
5.31916e-14
7.36273e-14
9.47605e-14
1.10534e-13
1.0462e-13
1.07674e-13
1.09488e-13
1.08705e-13
1.07087e-13
1.06729e-13
1.06287e-13
1.03228e-13
8.94834e-14
7.892e-14
6.91619e-14
6.1531e-14
6.3739e-14
6.16691e-14
6.35722e-14
6.87709e-14
6.83811e-14
6.34414e-14
6.35185e-14
6.44765e-14
6.86199e-14
8.24579e-14
9.08025e-14
9.25535e-14
8.97094e-14
8.21459e-14
7.28206e-14
7.27145e-14
7.29281e-14
6.93325e-14
6.02763e-14
6.47647e-14
6.56392e-14
6.4729e-14
5.97185e-14
5.86681e-14
5.67223e-14
5.72316e-14
4.86972e-14
3.8327e-14
3.87152e-14
4.16745e-14
3.72539e-14
4.01961e-14
3.86093e-14
4.11994e-14
5.50433e-14
6.59868e-14
5.81832e-14
4.82753e-14
4.09214e-14
4.1019e-14
3.85767e-14
3.53313e-14
3.44244e-14
3.79045e-14
4.66596e-14
5.24908e-14
5.88423e-14
6.24555e-14
7.29797e-14
8.17314e-14
7.94539e-14
7.87538e-14
8.09866e-14
8.28727e-14
7.54486e-14
7.02939e-14
6.98732e-14
6.77783e-14
7.18138e-14
6.94666e-14
6.70138e-14
6.46179e-14
6.54055e-14
6.4833e-14
6.25003e-14
5.67547e-14
5.24668e-14
4.5761e-14
3.62118e-14
2.5947e-14
3.33557e-14
3.92509e-14
3.99638e-14
4.10614e-14
4.02826e-14
4.07611e-14
4.12064e-14
4.51006e-14
4.74834e-14
5.5188e-14
5.6027e-14
6.38898e-14
7.23774e-14
7.95383e-14
7.36239e-14
6.86322e-14
6.12223e-14
5.9413e-14
6.0922e-14
5.92354e-14
5.71756e-14
5.73619e-14
5.26416e-14
4.89928e-14
3.79337e-14
4.28163e-14
4.79036e-14
6.11689e-14
6.26224e-14
5.24584e-14
4.38073e-14
3.68043e-14
4.19555e-14
4.90845e-14
6.04254e-14
7.45893e-14
8.08998e-14
7.37577e-14
6.8465e-14
5.74019e-14
5.71893e-14
5.89982e-14
5.90958e-14
5.90806e-14
5.35793e-14
5.15993e-14
4.80876e-14
4.30419e-14
4.61662e-14
4.68019e-14
4.43477e-14
3.33206e-14
2.46468e-14
2.09171e-14
2.59687e-14
1.94499e-14
2.27385e-14
2.47877e-14
2.08451e-14
2.43918e-14
2.14671e-14
2.45769e-14
3.35953e-14
4.34105e-14
4.76337e-14
4.67768e-14
3.90815e-14
3.49473e-14
2.60824e-14
3.19796e-14
3.37196e-14
3.61153e-14
4.60935e-14
5.83043e-14
6.8011e-14
7.53734e-14
8.32667e-14
9.25665e-14
1.01946e-13
1.04077e-13
1.07413e-13
1.0758e-13
1.04251e-13
1.01377e-13
9.95118e-14
9.49117e-14
9.23647e-14
9.28688e-14
9.02205e-14
8.51872e-14
7.84072e-14
6.74393e-14
6.23189e-14
5.24909e-14
4.12706e-14
3.50593e-14
3.5039e-14
2.28555e-14
1.9206e-14
2.66451e-14
3.52988e-14
4.23549e-14
4.55842e-14
4.6656e-14
4.80485e-14
4.95681e-14
4.72269e-14
4.53366e-14
4.19086e-14
3.94904e-14
3.89776e-14
4.35032e-14
4.55676e-14
4.03648e-14
3.81989e-14
3.05117e-14
3.04092e-14
3.38314e-14
3.69246e-14
3.45296e-14
3.2321e-14
2.97115e-14
2.41411e-14
1.81319e-14
2.42931e-14
3.5392e-14
4.22713e-14
3.98842e-14
3.41797e-14
2.47179e-14
2.10224e-14
2.45159e-14
2.74841e-14
3.92096e-14
5.22691e-14
6.13803e-14
5.55021e-14
4.99242e-14
4.82879e-14
3.61048e-14
3.21114e-14
3.32164e-14
3.74517e-14
3.21564e-14
2.62259e-14
2.52083e-14
2.31384e-14
2.70354e-14
2.90183e-14
2.52397e-14
1.6811e-14
1.28569e-14
1.03471e-14
1.05039e-14
9.76888e-15
5.29924e-15
2.8484e-14
2.95373e-14
2.85654e-14
3.54233e-14
3.60767e-14
3.99583e-14
4.26448e-14
5.21099e-14
5.15641e-14
4.56362e-14
3.74822e-14
3.2015e-14
3.84556e-14
3.97911e-14
4.64536e-14
5.83946e-14
7.08096e-14
8.2377e-14
8.92888e-14
1.00249e-13
1.12564e-13
1.21261e-13
1.25189e-13
1.32609e-13
1.34439e-13
1.32853e-13
1.2891e-13
1.22828e-13
1.17669e-13
1.13623e-13
1.16143e-13
1.10291e-13
1.02089e-13
9.28248e-14
8.20943e-14
6.81026e-14
5.24232e-14
4.45488e-14
3.77247e-14
3.65231e-14
3.24752e-14
3.74114e-14
3.57801e-14
4.69811e-14
5.29897e-14
5.74468e-14
5.89441e-14
5.85443e-14
5.63954e-14
5.2153e-14
4.83441e-14
4.01725e-14
3.74574e-14
3.37935e-14
3.30771e-14
2.39589e-14
1.65626e-14
1.40014e-14
1.64599e-14
1.18392e-14
1.50149e-14
1.85639e-14
2.4664e-14
3.19177e-14
2.94167e-14
2.16459e-14
2.40825e-14
3.07148e-14
4.39278e-14
5.50969e-14
5.21538e-14
4.61998e-14
3.50017e-14
2.55407e-14
2.36937e-14
2.80467e-14
3.71948e-14
4.59919e-14
5.06353e-14
5.30994e-14
4.86055e-14
4.52734e-14
3.62189e-14
2.95618e-14
2.94656e-14
2.57722e-14
2.97767e-14
2.84111e-14
2.55226e-14
2.26608e-14
2.09678e-14
1.8609e-14
1.79263e-14
1.78577e-14
1.65528e-14
1.6279e-14
1.73515e-14
1.49393e-14
1.15217e-14
1.62847e-14
1.66991e-14
1.55976e-14
1.89224e-14
2.22557e-14
2.43414e-14
2.77376e-14
3.26757e-14
3.41122e-14
3.3944e-14
3.08532e-14
3.30208e-14
3.68638e-14
4.08041e-14
5.19076e-14
6.84073e-14
7.95482e-14
8.98464e-14
9.50798e-14
1.07597e-13
1.16897e-13
1.24313e-13
1.2875e-13
1.31493e-13
1.35291e-13
1.36999e-13
1.34854e-13
1.3059e-13
1.29589e-13
1.23997e-13
1.27061e-13
1.24954e-13
1.18622e-13
1.07095e-13
9.02849e-14
7.19566e-14
5.08262e-14
3.21647e-14
1.59485e-14
1.00973e-14
1.97964e-14
2.6648e-14
3.59696e-14
5.23845e-14
6.04411e-14
5.99842e-14
6.26824e-14
6.25373e-14
6.19854e-14
6.0246e-14
5.54087e-14
4.33455e-14
3.27653e-14
2.97102e-14
2.0783e-14
2.42301e-14
2.23353e-14
1.89526e-14
1.56438e-14
2.32998e-14
2.50177e-14
2.49818e-14
1.614e-14
1.20678e-14
8.19182e-15
7.4937e-15
9.10655e-15
2.8691e-14
4.98574e-14
6.3687e-14
5.78989e-14
4.96937e-14
3.71094e-14
1.92764e-14
3.49343e-15
1.2745e-14
2.21071e-14
2.84084e-14
3.14935e-14
3.19405e-14
3.05566e-14
2.58515e-14
2.65859e-14
1.87604e-14
6.66412e-15
4.29002e-15
7.28958e-15
4.28417e-15
7.42135e-15
1.20262e-14
1.15825e-14
1.33532e-14
1.53245e-14
1.24005e-14
9.32685e-15
1.10004e-14
1.3564e-14
1.68645e-14
1.62396e-14
4.03301e-14
2.8445e-14
2.18356e-14
1.90516e-14
2.11007e-14
1.90706e-14
1.91641e-14
1.57005e-14
1.16309e-14
1.41063e-14
1.83862e-14
1.35792e-14
1.42917e-14
1.80562e-14
2.29871e-14
2.59907e-14
2.53466e-14
2.46369e-14
2.96475e-14
3.2364e-14
4.17109e-14
6.01568e-14
7.31358e-14
8.63358e-14
9.45759e-14
1.02527e-13
1.1089e-13
1.16867e-13
1.23859e-13
1.27049e-13
1.32024e-13
1.36782e-13
1.41247e-13
1.39612e-13
1.37387e-13
1.36874e-13
1.3617e-13
1.36721e-13
1.38754e-13
1.3041e-13
1.16824e-13
9.83787e-14
7.59631e-14
5.38203e-14
2.72196e-14
4.01977e-15
2.47961e-14
2.66062e-14
3.48486e-14
5.09653e-14
6.63632e-14
6.98208e-14
7.14778e-14
7.07092e-14
6.75688e-14
6.951e-14
7.01046e-14
6.24631e-14
5.16437e-14
3.78369e-14
2.83709e-14
2.39901e-14
2.36467e-14
2.01939e-14
2.00846e-14
2.50944e-14
2.86093e-14
2.72766e-14
3.1219e-14
3.25117e-14
3.22773e-14
2.65613e-14
2.25024e-14
3.40107e-14
4.45454e-14
6.22414e-14
6.94733e-14
6.49569e-14
5.45484e-14
4.16498e-14
3.10688e-14
1.78199e-14
1.0516e-14
8.2664e-15
1.69705e-14
2.19087e-14
2.27177e-14
2.91145e-14
2.91958e-14
2.68839e-14
2.50716e-14
2.11768e-14
1.30202e-14
1.9093e-14
1.63498e-14
1.85156e-14
1.69872e-14
1.68041e-14
1.73229e-14
1.96759e-14
1.80182e-14
2.19532e-14
2.26553e-14
3.33853e-14
2.74711e-14
2.50361e-14
3.47566e-14
2.98308e-14
2.44654e-14
2.15922e-14
2.28938e-14
2.03473e-14
1.96767e-14
1.78762e-14
1.17371e-14
1.55489e-14
1.60516e-14
1.48458e-14
1.27969e-14
2.35874e-14
2.00945e-14
2.0895e-14
2.17477e-14
2.20635e-14
2.72579e-14
3.36642e-14
4.03098e-14
5.4217e-14
7.20263e-14
8.62168e-14
9.16586e-14
9.79551e-14
1.05763e-13
1.13174e-13
1.21484e-13
1.27702e-13
1.29582e-13
1.38295e-13
1.38903e-13
1.4055e-13
1.39905e-13
1.41375e-13
1.39596e-13
1.38791e-13
1.38264e-13
1.31542e-13
1.19959e-13
9.60811e-14
7.21169e-14
4.80464e-14
2.5902e-14
9.82158e-16
1.93735e-14
3.11014e-14
4.12578e-14
5.4424e-14
6.60971e-14
7.33481e-14
7.53459e-14
7.54096e-14
7.28214e-14
8.11102e-14
7.65768e-14
6.45011e-14
4.97652e-14
3.95033e-14
3.02413e-14
2.4561e-14
1.68141e-14
1.79232e-14
1.96613e-14
1.93832e-14
2.07618e-14
2.37667e-14
2.49812e-14
2.59012e-14
2.52079e-14
2.59705e-14
3.11929e-14
3.11297e-14
4.27564e-14
5.42204e-14
5.96174e-14
6.66842e-14
5.71471e-14
4.51303e-14
3.58642e-14
2.19076e-14
1.12186e-14
1.22399e-14
9.5283e-15
1.32733e-14
1.64411e-14
2.53886e-14
2.48744e-14
2.4511e-14
2.11222e-14
1.45896e-14
1.22496e-14
1.90049e-14
2.54265e-14
2.73807e-14
2.53361e-14
1.50184e-14
1.43173e-14
1.74381e-14
1.97014e-14
2.1394e-14
2.25104e-14
2.31554e-14
1.44491e-14
2.02285e-14
3.21831e-14
3.10646e-14
3.33807e-14
3.27263e-14
3.01271e-14
2.18715e-14
1.73998e-14
2.02039e-14
1.91143e-14
1.20902e-14
1.58241e-14
1.15065e-14
1.08981e-14
1.13881e-14
9.90558e-15
1.46706e-14
2.01844e-14
2.31253e-14
2.64123e-14
3.32882e-14
4.27582e-14
5.72633e-14
6.58701e-14
7.69453e-14
8.17329e-14
8.74999e-14
9.26817e-14
1.02439e-13
1.09148e-13
1.10409e-13
1.18038e-13
1.32006e-13
1.37602e-13
1.43279e-13
1.41591e-13
1.38844e-13
1.38483e-13
1.3504e-13
1.37061e-13
1.32182e-13
1.17029e-13
9.01484e-14
5.6768e-14
3.19352e-14
2.22984e-14
5.62607e-15
2.59295e-14
3.64635e-14
5.4966e-14
5.80114e-14
6.44866e-14
7.43671e-14
8.33102e-14
8.73577e-14
8.94012e-14
9.86072e-14
8.72584e-14
7.19851e-14
6.20815e-14
5.20456e-14
4.0202e-14
3.58522e-14
2.97863e-14
2.80631e-14
2.83915e-14
3.1484e-14
3.44367e-14
3.30762e-14
3.24541e-14
3.61168e-14
2.9379e-14
3.04722e-14
2.70194e-14
2.10914e-14
3.75808e-14
4.78051e-14
4.87483e-14
4.86856e-14
4.25379e-14
3.66378e-14
3.19476e-14
2.87245e-14
1.79566e-14
1.63212e-14
1.12893e-14
1.13007e-14
1.87773e-14
2.41324e-14
3.50611e-14
2.87141e-14
1.83335e-14
1.08224e-14
1.27654e-14
2.53219e-14
2.87929e-14
3.07448e-14
3.44499e-14
2.81265e-14
2.62714e-14
2.67024e-14
2.2356e-14
1.83451e-14
1.89516e-14
1.63016e-14
2.13194e-14
2.94572e-14
2.94408e-14
2.41766e-14
2.24704e-14
2.27495e-14
2.43116e-14
2.12262e-14
1.32256e-14
6.18201e-15
9.59112e-15
2.06833e-14
3.20668e-14
3.47981e-14
3.46964e-14
3.39679e-14
2.89206e-14
2.34876e-14
2.56512e-14
2.14725e-14
2.74836e-14
2.31383e-14
3.43392e-14
4.25678e-14
5.3968e-14
6.2231e-14
7.19715e-14
7.21718e-14
7.06418e-14
6.92994e-14
7.11021e-14
7.66011e-14
8.63799e-14
9.63879e-14
1.07697e-13
1.13887e-13
1.17888e-13
1.1807e-13
1.19126e-13
1.20568e-13
1.20688e-13
1.16954e-13
1.05614e-13
8.64301e-14
5.93294e-14
3.70001e-14
1.27397e-14
3.43702e-15
1.78577e-14
3.19716e-14
4.53139e-14
5.5555e-14
6.4612e-14
7.34849e-14
8.39798e-14
9.1752e-14
1.00392e-13
1.07777e-13
1.05178e-13
9.48551e-14
8.39588e-14
7.82744e-14
7.79659e-14
7.0852e-14
6.56879e-14
6.09231e-14
5.71548e-14
5.39278e-14
5.14039e-14
4.17903e-14
3.98227e-14
3.98744e-14
3.88953e-14
4.01844e-14
3.48353e-14
3.13234e-14
2.17983e-14
2.42632e-14
2.87843e-14
3.38962e-14
2.50692e-14
2.14174e-14
1.88911e-14
1.99932e-14
2.52408e-14
2.55342e-14
2.31618e-14
2.34249e-14
2.54834e-14
2.94759e-14
3.15186e-14
2.83626e-14
3.04207e-14
2.94569e-14
2.75353e-14
3.31073e-14
3.92486e-14
3.64417e-14
3.9808e-14
3.90501e-14
4.18417e-14
4.29623e-14
3.60452e-14
3.12786e-14
2.67792e-14
3.27236e-14
3.1827e-14
3.5318e-14
2.9883e-14
4.52534e-14
4.37712e-14
4.1459e-14
3.96554e-14
3.90237e-14
4.23712e-14
4.09384e-14
4.47451e-14
4.59612e-14
6.07366e-14
6.93862e-14
6.94649e-14
6.55542e-14
6.21563e-14
5.18014e-14
4.39003e-14
3.64077e-14
3.20894e-14
2.82832e-14
3.43244e-14
4.36963e-14
4.93995e-14
5.74631e-14
6.12685e-14
6.06222e-14
5.82186e-14
5.28599e-14
5.27543e-14
5.1553e-14
5.35565e-14
6.15965e-14
7.01966e-14
7.56909e-14
8.35633e-14
9.06518e-14
9.43121e-14
9.5744e-14
9.45631e-14
9.55323e-14
9.24564e-14
7.4469e-14
5.31167e-14
3.85871e-14
3.9657e-14
3.91216e-14
3.93035e-14
4.4098e-14
4.97994e-14
5.91417e-14
6.89817e-14
8.06022e-14
8.66122e-14
1.00382e-13
1.10913e-13
1.13331e-13
1.15333e-13
1.16577e-13
1.11496e-13
1.06652e-13
1.0575e-13
1.0465e-13
1.05248e-13
1.04133e-13
9.46671e-14
8.61799e-14
7.88332e-14
6.78087e-14
6.10229e-14
6.10942e-14
5.56598e-14
4.57505e-14
3.75479e-14
3.35986e-14
3.61817e-14
3.81792e-14
4.49732e-14
3.87795e-14
4.21245e-14
4.74262e-14
4.8275e-14
4.24561e-14
4.25017e-14
4.6363e-14
5.1689e-14
5.60314e-14
5.7234e-14
5.34655e-14
5.39142e-14
5.47652e-14
4.9607e-14
5.21503e-14
5.12188e-14
5.82633e-14
6.62033e-14
6.6162e-14
5.9913e-14
5.66548e-14
5.30932e-14
5.44165e-14
5.43174e-14
4.89792e-14
4.93846e-14
4.55478e-14
4.98855e-14
5.1543e-14
5.28219e-14
5.15737e-14
6.28732e-14
6.60511e-14
5.75191e-14
5.66037e-14
5.034e-14
4.56454e-14
4.75934e-14
6.04906e-14
6.86155e-14
7.30492e-14
9.54449e-14
1.06064e-13
1.0318e-13
9.41485e-14
8.54914e-14
7.63883e-14
6.97174e-14
5.7066e-14
4.12336e-14
4.47242e-14
4.90479e-14
5.84091e-14
6.56598e-14
6.46097e-14
6.46111e-14
5.74179e-14
4.73853e-14
4.17177e-14
4.34238e-14
5.06403e-14
6.07628e-14
6.88728e-14
6.96223e-14
6.75903e-14
6.53613e-14
6.68836e-14
7.73443e-14
8.06298e-14
7.36787e-14
7.08489e-14
7.70197e-14
7.02682e-14
5.42138e-14
6.85704e-14
7.82386e-14
8.1074e-14
7.66603e-14
7.85749e-14
7.62831e-14
8.10981e-14
8.5596e-14
9.71835e-14
1.04114e-13
1.1596e-13
1.21303e-13
1.2481e-13
1.30751e-13
1.30058e-13
1.27938e-13
1.25068e-13
1.293e-13
1.28116e-13
1.30231e-13
1.25145e-13
1.13996e-13
1.05475e-13
9.66399e-14
8.97504e-14
8.96682e-14
8.42898e-14
6.6139e-14
5.30298e-14
4.65657e-14
4.23243e-14
3.63024e-14
3.91635e-14
4.9553e-14
5.04516e-14
4.86736e-14
4.34139e-14
4.95267e-14
5.10004e-14
5.56494e-14
5.27041e-14
6.08036e-14
6.34284e-14
6.65515e-14
6.53879e-14
7.10717e-14
6.89192e-14
7.0175e-14
7.10253e-14
8.04824e-14
8.36561e-14
8.70456e-14
8.08813e-14
7.13232e-14
5.36021e-14
5.03723e-14
4.75999e-14
5.24672e-14
5.56054e-14
6.38455e-14
5.96763e-14
6.32807e-14
5.01593e-14
5.34696e-14
5.72877e-14
7.38475e-14
6.87922e-14
6.11058e-14
6.10272e-14
6.10361e-14
5.94554e-14
5.81262e-14
6.37498e-14
6.97504e-14
7.81558e-14
1.04405e-13
1.23956e-13
1.22326e-13
1.0673e-13
9.47494e-14
7.97964e-14
7.82068e-14
6.16809e-14
4.57787e-14
4.65036e-14
4.92641e-14
6.12511e-14
6.90873e-14
7.48411e-14
6.58159e-14
5.46966e-14
5.11038e-14
4.66942e-14
4.88554e-14
5.83782e-14
6.01061e-14
5.39944e-14
5.73397e-14
6.09128e-14
5.68539e-14
5.4182e-14
6.21765e-14
6.62083e-14
7.40057e-14
7.0596e-14
7.09235e-14
6.8091e-14
7.39051e-14
8.65613e-14
1.01826e-13
1.0362e-13
9.55259e-14
9.39161e-14
8.89376e-14
9.39247e-14
8.99159e-14
9.54362e-14
1.113e-13
1.20448e-13
1.20397e-13
1.2253e-13
1.19473e-13
1.18805e-13
1.19454e-13
1.26514e-13
1.35132e-13
1.35088e-13
1.38306e-13
1.2286e-13
1.15461e-13
1.12149e-13
1.05951e-13
1.05702e-13
9.96564e-14
8.98667e-14
7.30597e-14
6.28888e-14
5.38257e-14
5.30396e-14
4.48498e-14
4.12575e-14
4.51369e-14
5.67531e-14
6.24984e-14
5.40361e-14
5.62981e-14
6.3218e-14
6.9621e-14
6.49671e-14
6.95586e-14
7.10901e-14
7.7059e-14
8.35378e-14
9.0085e-14
8.7184e-14
9.0778e-14
9.10984e-14
1.02336e-13
1.04662e-13
1.03642e-13
8.77655e-14
7.12265e-14
6.13165e-14
6.0422e-14
6.01247e-14
6.83822e-14
7.59219e-14
7.86856e-14
7.50444e-14
7.49642e-14
6.59879e-14
6.65659e-14
7.06939e-14
5.10165e-14
4.4749e-14
4.03203e-14
3.67148e-14
4.22193e-14
4.61578e-14
4.35166e-14
4.32555e-14
4.66169e-14
5.74805e-14
7.26106e-14
8.3086e-14
8.32649e-14
7.3245e-14
5.2546e-14
3.7721e-14
3.50776e-14
2.38478e-14
1.68221e-14
1.58255e-14
1.83654e-14
3.15132e-14
4.24666e-14
4.71456e-14
4.61936e-14
4.3696e-14
4.45322e-14
4.06178e-14
3.4308e-14
3.03103e-14
2.66937e-14
2.99549e-14
2.79996e-14
2.93143e-14
3.36071e-14
3.44394e-14
3.04795e-14
3.02355e-14
3.86122e-14
4.53119e-14
4.0026e-14
3.61203e-14
4.79745e-14
5.52811e-14
6.06436e-14
6.60173e-14
7.22134e-14
7.24192e-14
7.11365e-14
7.54725e-14
8.79377e-14
9.61264e-14
1.05596e-13
1.03682e-13
1.06263e-13
1.09041e-13
1.02169e-13
1.00285e-13
9.96227e-14
1.00178e-13
1.01762e-13
1.07987e-13
1.0909e-13
1.08075e-13
1.04504e-13
9.82663e-14
9.83424e-14
9.35013e-14
9.21736e-14
8.98048e-14
7.47256e-14
5.80037e-14
4.87236e-14
4.12208e-14
3.34891e-14
2.66759e-14
2.49875e-14
2.9344e-14
3.14379e-14
3.75025e-14
3.76005e-14
4.38578e-14
4.41108e-14
4.9049e-14
5.14351e-14
5.9062e-14
5.93802e-14
6.14514e-14
6.23001e-14
6.47558e-14
6.44153e-14
6.6012e-14
6.61789e-14
6.7198e-14
6.20218e-14
5.56447e-14
5.14525e-14
4.77497e-14
4.89132e-14
4.80158e-14
4.88143e-14
5.21366e-14
4.69209e-14
4.78624e-14
4.78168e-14
5.39624e-14
5.70702e-14
6.04818e-14
2.34424e-14
1.74641e-14
6.51101e-15
8.53948e-15
8.53434e-15
1.74027e-14
2.35484e-14
3.17052e-14
2.85046e-14
3.16461e-14
3.72116e-14
3.64052e-14
4.02975e-14
3.63495e-14
2.93331e-14
1.5386e-14
1.55284e-14
1.93623e-14
1.76427e-14
2.9979e-14
2.92526e-14
3.67907e-14
4.07167e-14
3.85375e-14
4.59463e-14
5.00921e-14
4.76837e-14
4.21663e-14
3.1093e-14
2.59294e-14
2.24979e-14
1.45916e-14
6.61004e-15
5.17537e-15
2.67911e-15
1.75073e-15
4.47896e-15
7.70145e-15
5.21077e-15
1.67628e-14
1.05735e-14
1.228e-14
2.2177e-14
3.06331e-14
3.29342e-14
3.94466e-14
4.58335e-14
5.0075e-14
5.07762e-14
6.5164e-14
7.80343e-14
7.98433e-14
8.56262e-14
8.9657e-14
9.53485e-14
9.4098e-14
9.2397e-14
9.02069e-14
8.86625e-14
8.88764e-14
8.89136e-14
9.23807e-14
9.49865e-14
9.54869e-14
9.348e-14
9.16225e-14
9.20796e-14
9.10682e-14
8.45213e-14
8.3684e-14
7.53897e-14
6.3083e-14
5.51807e-14
5.27869e-14
4.46893e-14
3.31373e-14
2.72579e-14
2.88385e-14
2.20194e-14
1.83067e-14
2.00759e-14
2.22306e-14
2.26931e-14
2.32742e-14
2.65271e-14
3.3599e-14
3.83667e-14
4.09367e-14
4.3045e-14
4.08862e-14
3.75798e-14
3.80354e-14
3.69549e-14
3.35304e-14
2.80457e-14
1.68404e-14
5.6752e-15
1.2892e-14
1.36052e-14
1.83154e-14
2.16898e-14
1.83985e-14
1.51264e-14
1.79909e-14
1.90693e-14
1.99345e-14
2.21133e-14
2.20672e-14
1.43508e-14
1.08968e-14
1.12061e-14
3.55407e-15
8.36001e-15
1.40297e-14
2.41286e-14
3.04303e-14
2.92862e-14
3.33028e-14
3.58533e-14
3.32988e-14
3.4768e-14
3.86464e-14
2.55744e-14
1.46168e-14
1.86685e-14
2.11185e-14
1.60715e-14
1.66816e-14
2.66037e-14
3.5005e-14
3.6572e-14
3.67011e-14
3.79494e-14
3.63394e-14
3.71198e-14
3.35489e-14
2.17312e-14
2.07271e-14
1.53108e-14
1.83568e-14
1.92208e-14
1.06822e-14
7.9047e-15
1.53436e-14
1.25895e-14
9.89365e-15
1.6534e-14
1.96281e-14
1.65665e-14
1.74325e-14
2.05428e-14
2.09239e-14
2.22417e-14
2.65675e-14
3.35641e-14
4.02031e-14
4.84972e-14
5.89559e-14
6.62018e-14
7.19643e-14
7.59348e-14
7.44031e-14
7.44631e-14
7.30897e-14
7.40517e-14
7.2173e-14
7.06674e-14
7.15671e-14
7.26259e-14
7.37529e-14
7.90326e-14
8.90679e-14
9.25236e-14
8.8638e-14
8.55338e-14
8.52067e-14
8.55905e-14
8.26022e-14
7.66797e-14
6.88302e-14
6.69211e-14
5.56134e-14
4.95264e-14
3.61076e-14
2.32153e-14
1.82683e-14
1.70387e-14
1.46e-14
1.28628e-14
1.05985e-14
1.1691e-14
1.61338e-14
1.47954e-14
1.76767e-14
2.16569e-14
2.13951e-14
3.06033e-14
3.46613e-14
2.56795e-14
2.62203e-14
2.96086e-14
2.47739e-14
1.20242e-14
7.2248e-15
1.48978e-14
2.16369e-14
2.78307e-14
2.93209e-14
2.73814e-14
2.90761e-14
2.6963e-14
2.72602e-14
2.16447e-14
1.69181e-14
1.62438e-14
1.52053e-14
4.1878e-14
3.78871e-14
3.65867e-14
4.01086e-14
3.22568e-14
2.68975e-14
3.2454e-14
3.6504e-14
4.19489e-14
3.81859e-14
3.31226e-14
2.67072e-14
2.24872e-14
3.08205e-14
3.1808e-14
2.83453e-14
3.24352e-14
3.83283e-14
4.29773e-14
4.25886e-14
4.79597e-14
5.2266e-14
5.27132e-14
5.29737e-14
5.37367e-14
5.1552e-14
4.866e-14
4.59131e-14
4.05329e-14
4.26634e-14
3.64769e-14
3.47924e-14
3.48636e-14
2.63601e-14
2.397e-14
2.69054e-14
2.81922e-14
3.36065e-14
2.94355e-14
2.90712e-14
2.57574e-14
2.47099e-14
3.05829e-14
3.40355e-14
3.41208e-14
4.18046e-14
4.72109e-14
5.56083e-14
5.92365e-14
6.60407e-14
7.04962e-14
7.33873e-14
7.19311e-14
7.10762e-14
6.43e-14
6.24789e-14
6.24458e-14
6.16874e-14
6.09327e-14
6.43906e-14
6.48519e-14
6.83169e-14
7.53945e-14
7.99166e-14
8.26359e-14
8.28924e-14
8.16202e-14
8.01929e-14
7.80983e-14
7.55686e-14
7.48948e-14
6.83846e-14
6.16653e-14
5.58588e-14
4.89822e-14
4.55072e-14
3.8126e-14
3.70408e-14
3.14506e-14
3.24635e-14
3.55603e-14
3.23275e-14
3.27429e-14
2.88562e-14
2.6057e-14
3.25658e-14
3.75338e-14
4.10023e-14
3.32097e-14
2.51938e-14
2.12744e-14
2.4687e-14
2.14528e-14
2.70394e-14
2.89064e-14
3.38464e-14
3.49343e-14
4.44736e-14
4.97955e-14
5.47892e-14
5.55807e-14
5.71194e-14
4.98192e-14
5.01716e-14
4.61913e-14
4.74479e-14
4.33337e-14
4.33636e-14
8.68397e-14
8.2532e-14
7.71204e-14
7.06116e-14
6.92305e-14
6.28062e-14
5.73834e-14
5.39383e-14
5.05104e-14
5.1571e-14
5.14597e-14
5.05105e-14
4.9562e-14
5.07262e-14
5.5165e-14
5.68515e-14
5.83688e-14
6.14258e-14
6.20851e-14
6.32066e-14
6.67491e-14
6.92082e-14
7.34467e-14
7.68744e-14
7.42451e-14
7.64004e-14
7.47803e-14
6.83325e-14
6.34354e-14
6.35458e-14
6.24947e-14
6.11081e-14
5.95252e-14
6.01983e-14