/*--------------------------------*- C++ -*----------------------------------*\
| =========                 |                                                 |
| \\      /  F ield         | OpenFOAM: The Open Source CFD Toolbox           |
|  \\    /   O peration     | Version:  2406                                  |
|   \\  /    A nd           | Website:  www.openfoam.com                      |
|    \\/     M anipulation  |                                                 |
\*---------------------------------------------------------------------------*/
FoamFile
{
    version     2.0;
    format      ascii;
    arch        "LSB;label=32;scalar=64";
    class       volVectorField;
    location    "0.065";
    object      U;
}
// * * * * * * * * * * * * * * * * * * * * * * * * * * * * * * * * * * * * * //

dimensions      [0 1 -1 0 0 0 0];

internalField   nonuniform List<vector> 
13946
(
(-2.87708e-12 1.63891e-11 5.2474e-12)
(-4.05996e-12 1.5929e-11 -6.11669e-12)
(1.11102e-12 1.41286e-11 -8.20638e-12)
(5.22086e-12 1.44406e-11 -1.08718e-11)
(2.62928e-12 1.18327e-11 -6.2449e-12)
(-9.77384e-13 1.14399e-11 -3.91637e-12)
(-2.06064e-12 1.19358e-11 -4.09304e-12)
(-3.3817e-12 1.00371e-11 -5.36872e-12)
(-3.74674e-12 1.10365e-11 -9.80202e-12)
(-3.20141e-12 1.01319e-11 -1.52979e-11)
(-1.16032e-12 1.19559e-11 -2.07378e-11)
(4.15751e-12 1.26936e-11 -2.23329e-11)
(5.43969e-12 1.15254e-11 -2.25076e-11)
(3.36648e-12 1.19086e-11 -2.78024e-11)
(1.62433e-12 1.11096e-11 -3.06445e-11)
(8.34662e-13 9.71229e-12 -2.89915e-11)
(1.2709e-12 1.23313e-11 -3.15697e-11)
(1.94925e-12 1.06703e-11 -2.39607e-11)
(-2.40446e-12 1.33287e-11 -1.86999e-11)
(-8.353e-13 1.4289e-11 -1.6823e-11)
(-1.4986e-12 1.30761e-11 -1.68934e-11)
(-3.03982e-12 1.2237e-11 -1.80696e-11)
(2.63018e-12 1.27595e-11 -1.97331e-11)
(3.32588e-12 7.25684e-12 -2.34865e-11)
(-6.18242e-13 5.88673e-12 -2.67318e-11)
(-5.44022e-13 7.1825e-12 -2.08178e-11)
(-8.32818e-13 5.93932e-12 -1.93096e-11)
(-4.35848e-12 6.77613e-12 -2.02313e-11)
(-8.11669e-12 8.02194e-12 -1.76242e-11)
(-9.11227e-12 9.38982e-12 -1.25124e-11)
(-4.92998e-12 9.70407e-12 -9.22024e-12)
(1.77202e-12 1.10285e-11 -5.31559e-12)
(1.55303e-12 1.08143e-11 -2.60567e-12)
(5.99675e-13 1.04579e-11 -3.20753e-12)
(2.91569e-12 1.20001e-11 -5.96359e-12)
(1.63361e-12 1.49314e-11 -5.92093e-12)
(2.96789e-12 1.27386e-11 -7.32025e-12)
(3.30184e-12 1.34037e-11 -7.53413e-12)
(-2.39454e-12 1.07587e-11 -1.0922e-11)
(-2.98304e-12 8.70641e-12 -7.74059e-12)
(-1.17041e-12 1.08568e-11 4.00685e-13)
(1.58838e-12 1.06252e-11 -6.92877e-14)
(2.78084e-12 1.12715e-11 6.11112e-12)
(5.09814e-12 1.11622e-11 9.83858e-12)
(6.9988e-12 8.22561e-12 9.76025e-12)
(6.54466e-12 7.10603e-12 3.806e-12)
(5.41509e-12 5.67181e-12 -3.88718e-12)
(4.45843e-12 7.21058e-12 -1.21831e-11)
(-7.84159e-13 7.10333e-12 -1.50154e-11)
(-2.46413e-12 7.27235e-12 -1.42722e-11)
(-2.922e-14 9.0449e-12 -1.36506e-11)
(1.27611e-12 1.10103e-11 -2.21917e-11)
(5.7302e-12 1.14954e-11 -2.22513e-11)
(7.91679e-12 9.39153e-12 -2.06512e-11)
(5.47559e-12 1.02551e-11 -1.93683e-11)
(3.49029e-12 1.10118e-11 -1.88668e-11)
(3.81592e-12 1.13854e-11 -1.88644e-11)
(3.49074e-12 8.91896e-12 -2.14446e-11)
(4.16685e-13 5.20056e-12 -1.19234e-11)
(-3.40015e-12 8.55822e-12 -1.13488e-12)
(-2.463e-12 7.54702e-12 -9.07207e-13)
(3.97247e-14 7.19454e-12 -9.24814e-13)
(-6.69205e-13 8.03745e-12 -4.50162e-12)
(-3.71764e-12 9.43617e-12 -8.82049e-12)
(-6.13804e-12 7.80554e-12 -6.8933e-12)
(-1.51156e-12 7.28757e-12 -3.35982e-12)
(6.37315e-13 8.67864e-12 5.71254e-14)
(-4.84229e-12 8.9109e-12 8.0371e-14)
(-3.32418e-12 1.1241e-11 6.36504e-14)
(1.30021e-12 1.34462e-11 -1.95669e-12)
(-1.48749e-12 1.40002e-11 -7.05125e-12)
(-3.0542e-12 1.09442e-11 -1.61398e-11)
(-1.81048e-12 1.16979e-11 -1.77113e-11)
(3.27397e-13 1.19822e-11 -8.29208e-12)
(-1.9502e-12 1.0936e-11 8.37486e-13)
(-5.35829e-12 1.24219e-11 9.28083e-12)
(-5.46976e-12 1.28351e-11 1.33111e-11)
(-4.25651e-12 1.17625e-11 8.65187e-12)
(-3.25182e-12 1.16314e-11 5.34717e-12)
(-1.44413e-12 9.6635e-12 6.41352e-12)
(-2.0718e-12 1.04205e-11 3.46265e-12)
(-4.08445e-12 1.10292e-11 -3.23208e-12)
(1.50621e-12 1.11321e-11 -9.31558e-12)
(9.99946e-13 9.42653e-12 -1.39307e-11)
(3.60375e-14 9.24847e-12 -1.69294e-11)
(-2.00884e-12 8.63779e-12 -1.82132e-11)
(-7.64568e-14 1.10272e-11 -2.04751e-11)
(3.85648e-12 1.01761e-11 -2.28518e-11)
(3.54716e-12 1.29125e-11 -1.8681e-11)
(-5.06093e-15 1.00064e-11 -1.232e-11)
(-3.24161e-12 1.1063e-11 -8.57186e-12)
(-2.84341e-12 1.0074e-11 -7.87595e-12)
(-3.09555e-12 1.62424e-11 6.88878e-12)
(-2.36652e-12 1.28022e-11 -2.11223e-12)
(1.06785e-12 1.02874e-11 -5.08496e-12)
(4.17067e-12 1.23149e-11 -5.55202e-12)
(4.58918e-12 1.42082e-11 -2.45243e-12)
(1.42869e-12 1.41084e-11 -3.45765e-12)
(-8.93145e-13 1.52465e-11 -3.97777e-12)
(-2.61008e-12 1.47706e-11 -6.24265e-12)
(-2.58837e-12 1.16598e-11 -9.25209e-12)
(-1.68024e-12 1.13684e-11 -1.53343e-11)
(-1.36495e-12 9.44116e-12 -1.99958e-11)
(2.59502e-12 1.09549e-11 -2.05723e-11)
(4.14978e-12 1.22334e-11 -2.42627e-11)
(3.39656e-12 1.14218e-11 -2.49736e-11)
(3.3122e-12 1.06813e-11 -2.71376e-11)
(1.51168e-12 9.17495e-12 -2.64735e-11)
(1.18506e-12 7.83939e-12 -2.86407e-11)
(-2.06089e-15 6.79139e-12 -2.24955e-11)
(-3.74242e-12 1.01975e-11 -1.82052e-11)
(-1.09411e-12 9.3695e-12 -1.64538e-11)
(-7.25967e-13 1.30414e-11 -1.66247e-11)
(-1.27696e-12 9.35945e-12 -1.76095e-11)
(3.21166e-12 6.55007e-12 -1.81533e-11)
(4.04201e-12 7.82435e-12 -1.91993e-11)
(6.85317e-13 5.91403e-12 -2.09918e-11)
(3.60343e-13 6.98625e-12 -1.82157e-11)
(-2.13353e-12 8.30893e-12 -1.703e-11)
(-5.57213e-12 9.79406e-12 -1.95547e-11)
(-8.42593e-12 1.05228e-11 -2.03665e-11)
(-8.21479e-12 8.93617e-12 -2.08568e-11)
(-3.84505e-12 6.12733e-12 -1.18364e-11)
(1.66217e-12 5.39368e-12 -5.07641e-12)
(2.00542e-12 6.8408e-12 -1.972e-12)
(5.21877e-13 7.07274e-12 -2.57792e-12)
(1.70438e-13 6.66349e-12 -4.19503e-13)
(5.07258e-13 9.8255e-12 2.11665e-12)
(1.80333e-12 8.47123e-12 1.33488e-12)
(3.56537e-12 1.28086e-11 -8.40671e-14)
(4.51122e-13 1.20567e-11 -4.24293e-12)
(-3.02891e-12 9.599e-12 -1.64703e-12)
(-1.41333e-12 9.52961e-12 2.36866e-12)
(1.17977e-12 9.17971e-12 1.56486e-12)
(1.71179e-12 1.25153e-11 9.98032e-12)
(6.04642e-12 1.21473e-11 1.49724e-11)
(7.99893e-12 9.91563e-12 1.47204e-11)
(6.84898e-12 1.0943e-11 5.21565e-12)
(7.18106e-12 8.14238e-12 -3.83419e-12)
(4.36693e-12 9.0414e-12 -9.6237e-12)
(-5.05506e-13 8.57666e-12 -1.41335e-11)
(-3.71215e-12 6.17934e-12 -1.8703e-11)
(-1.79575e-12 8.00147e-12 -1.97884e-11)
(2.2801e-12 7.53894e-12 -2.33586e-11)
(5.9407e-12 7.43187e-12 -2.36667e-11)
(6.37162e-12 9.68094e-12 -2.31152e-11)
(3.82394e-12 1.0002e-11 -2.10719e-11)
(2.71366e-12 8.79238e-12 -2.01203e-11)
(4.32142e-12 8.72946e-12 -1.89365e-11)
(5.8942e-12 8.91357e-12 -1.81035e-11)
(3.16254e-13 7.60905e-12 -1.08524e-11)
(-1.86182e-12 1.08986e-11 -3.13472e-12)
(-8.89236e-13 8.23431e-12 -2.2013e-12)
(-1.85974e-12 8.48264e-12 -1.76561e-12)
(-2.4324e-12 1.02872e-11 -1.71632e-12)
(-2.25481e-12 1.18918e-11 -7.21749e-12)
(-3.64115e-12 9.11726e-12 -7.17863e-12)
(-4.18658e-12 8.93757e-12 -3.05593e-12)
(-2.54128e-12 1.40024e-11 1.51502e-13)
(-4.52111e-12 1.3904e-11 -1.01268e-13)
(-4.14989e-12 1.37621e-11 -1.26474e-12)
(-6.22441e-13 1.37502e-11 -1.59414e-12)
(-1.44116e-13 1.53073e-11 -4.48587e-12)
(-3.36708e-13 1.29139e-11 -1.02527e-11)
(-1.9946e-13 1.26444e-11 -1.19414e-11)
(-2.93444e-13 1.11468e-11 -5.90668e-12)
(-2.93394e-12 1.62484e-11 -2.89838e-13)
(-3.81216e-12 1.48166e-11 7.26853e-12)
(-4.54037e-12 1.33535e-11 1.16449e-11)
(-5.18681e-12 1.21659e-11 9.10068e-12)
(-3.70424e-12 1.13582e-11 7.27239e-12)
(-1.68649e-12 9.28921e-12 1.01864e-11)
(-1.71943e-12 1.2759e-11 6.5668e-12)
(-3.90117e-12 1.08881e-11 -4.5664e-12)
(7.18446e-14 1.41941e-11 -1.09898e-11)
(-3.22698e-14 1.57747e-11 -1.55943e-11)
(1.0473e-13 1.41218e-11 -1.74106e-11)
(2.17576e-13 1.51772e-11 -1.91495e-11)
(1.56055e-12 1.24643e-11 -2.04505e-11)
(2.20981e-12 1.20672e-11 -2.11394e-11)
(2.89653e-12 1.35722e-11 -1.94592e-11)
(2.01656e-12 1.35669e-11 -1.27145e-11)
(-2.91872e-12 1.33357e-11 -9.86526e-12)
(-5.16336e-12 1.21394e-11 -9.47995e-12)
(-1.0985e-14 1.69135e-11 5.1377e-12)
(-8.4028e-14 1.67391e-11 6.63615e-13)
(8.04832e-13 1.47503e-11 -2.37534e-12)
(2.88958e-12 1.75553e-11 -2.26645e-12)
(3.16903e-12 1.93838e-11 -1.39927e-12)
(8.71444e-13 1.85385e-11 -1.63435e-12)
(-1.02854e-12 1.96511e-11 -3.04968e-12)
(-2.04376e-12 2.01459e-11 -5.44616e-12)
(-2.54144e-12 1.64246e-11 -7.92402e-12)
(-1.23495e-12 1.29602e-11 -1.65439e-11)
(-1.0692e-12 1.44211e-11 -2.3893e-11)
(2.28347e-12 1.25462e-11 -2.61593e-11)
(4.69611e-12 1.46974e-11 -2.72964e-11)
(3.93583e-12 1.40126e-11 -2.65164e-11)
(3.49013e-12 1.39349e-11 -2.56324e-11)
(3.1018e-12 1.4503e-11 -2.37309e-11)
(2.07679e-12 1.25869e-11 -2.34271e-11)
(3.88048e-13 1.03107e-11 -1.93157e-11)
(-3.19534e-12 9.49782e-12 -1.65447e-11)
(-2.70132e-12 1.0235e-11 -1.52465e-11)
(-1.67289e-12 1.21828e-11 -1.63631e-11)
(1.34379e-12 9.65989e-12 -1.79014e-11)
(3.01068e-12 8.66629e-12 -1.60336e-11)
(2.50085e-12 1.25206e-11 -1.54791e-11)
(2.3935e-13 1.24878e-11 -1.47945e-11)
(-7.37982e-13 1.29338e-11 -1.33276e-11)
(-2.68002e-12 1.3e-11 -1.35607e-11)
(-6.72515e-12 1.40949e-11 -1.67867e-11)
(-7.09432e-12 1.1729e-11 -2.09006e-11)
(-5.14144e-12 9.75233e-12 -2.16485e-11)
(-2.90062e-12 8.72608e-12 -1.32942e-11)
(2.02119e-12 9.28823e-12 -5.63187e-12)
(4.89988e-13 8.9205e-12 -1.72732e-12)
(2.08261e-13 1.12277e-11 -1.11121e-12)
(9.92913e-14 8.53928e-12 6.11598e-12)
(-9.07355e-13 7.85192e-12 1.03219e-11)
(5.18543e-13 1.12516e-11 6.08265e-12)
(1.95406e-12 1.59678e-11 -2.41474e-13)
(4.24928e-13 1.62187e-11 -4.25965e-12)
(-1.08977e-12 1.42681e-11 -1.54125e-12)
(-5.81019e-13 1.31521e-11 1.13425e-12)
(-7.12059e-13 1.25127e-11 1.08936e-12)
(1.12617e-12 1.31275e-11 4.39469e-12)
(6.02273e-12 1.12041e-11 6.04092e-12)
(7.86307e-12 1.37099e-11 5.06993e-12)
(7.70011e-12 1.24396e-11 -2.86035e-12)
(8.07263e-12 1.46684e-11 -6.2539e-12)
(4.58423e-12 1.45263e-11 -9.07256e-12)
(3.93397e-13 1.37265e-11 -1.41607e-11)
(-2.69546e-12 1.24455e-11 -2.03327e-11)
(-1.1796e-12 7.85193e-12 -2.35434e-11)
(2.65059e-12 9.18301e-12 -2.465e-11)
(4.88395e-12 1.05774e-11 -2.46129e-11)
(5.01901e-12 1.33686e-11 -2.4523e-11)
(5.79848e-12 1.18995e-11 -2.38844e-11)
(5.16003e-12 9.49378e-12 -2.20566e-11)
(3.35184e-12 8.61069e-12 -1.86405e-11)
(4.16587e-12 1.29595e-11 -1.50455e-11)
(-3.84995e-13 1.14554e-11 -8.25324e-12)
(-2.08037e-12 1.41559e-11 -2.82304e-12)
(-8.61655e-13 1.34728e-11 -2.6123e-12)
(-1.5922e-12 1.22033e-11 -2.92029e-12)
(-2.9998e-12 1.04317e-11 -5.11188e-12)
(-2.58898e-12 1.44148e-11 -1.02364e-11)
(-2.88189e-12 1.48516e-11 -8.39769e-12)
(-5.37608e-12 1.56593e-11 -4.64174e-12)
(-3.57015e-12 1.70667e-11 -2.96518e-12)
(-4.81183e-12 1.76715e-11 -1.51817e-12)
(-3.90799e-12 1.67919e-11 -1.6606e-12)
(-5.19416e-13 1.62258e-11 -1.20276e-12)
(-8.2789e-13 1.70434e-11 -4.30154e-12)
(-7.86001e-13 1.71599e-11 -6.95382e-12)
(7.58108e-14 1.5311e-11 -8.55258e-12)
(-8.77791e-13 1.48857e-11 -6.23754e-12)
(-4.36667e-12 1.66342e-11 -1.74808e-12)
(-2.40147e-12 1.88906e-11 5.26471e-12)
(-3.80223e-12 1.56148e-11 1.05944e-11)
(-4.41811e-12 1.43756e-11 5.94726e-12)
(-1.84245e-12 1.34579e-11 2.25015e-12)
(-1.58761e-12 1.23393e-11 3.67187e-12)
(-2.75811e-12 1.48317e-11 -9.89958e-13)
(-5.17706e-12 1.59475e-11 -9.10497e-12)
(-7.50169e-13 1.51742e-11 -1.47009e-11)
(1.6932e-12 1.9137e-11 -1.56069e-11)
(3.06751e-13 1.71612e-11 -1.60184e-11)
(-4.72236e-13 1.92011e-11 -1.99181e-11)
(2.0505e-12 1.68665e-11 -2.22144e-11)
(3.19733e-12 1.32344e-11 -1.99742e-11)
(2.72472e-12 1.09966e-11 -1.71467e-11)
(1.01845e-12 1.38951e-11 -1.30437e-11)
(-2.26332e-12 1.33829e-11 -9.74966e-12)
(-4.74936e-12 1.37895e-11 -9.15296e-12)
(3.48981e-12 2.04682e-11 2.88234e-12)
(1.15814e-12 2.00736e-11 3.08991e-12)
(7.2779e-14 2.08375e-11 3.35807e-12)
(7.28167e-14 1.94368e-11 2.14758e-12)
(5.72855e-14 1.98545e-11 1.51603e-13)
(3.18212e-12 2.21043e-11 3.91455e-13)
(1.33178e-12 2.11191e-11 -4.718e-13)
(-1.66788e-12 1.98372e-11 -5.05411e-13)
(-1.91255e-12 1.84829e-11 -3.23584e-12)
(1.16833e-12 1.65048e-11 -7.06596e-12)
(-2.26055e-14 1.27332e-11 -1.73966e-11)
(-1.43462e-12 1.57199e-11 -2.76328e-11)
(1.66917e-12 1.36339e-11 -3.06264e-11)
(2.69226e-12 1.28762e-11 -3.02521e-11)
(3.92389e-12 1.35738e-11 -2.80029e-11)
(3.36853e-12 1.29833e-11 -2.28544e-11)
(2.73175e-12 1.37222e-11 -1.88718e-11)
(4.52581e-12 1.28215e-11 -1.80183e-11)
(1.7959e-12 1.17257e-11 -1.6477e-11)
(-3.03676e-12 1.11922e-11 -1.5624e-11)
(-2.46054e-12 9.83988e-12 -1.69952e-11)
(-5.12731e-13 8.97046e-12 -1.56695e-11)
(2.23932e-12 8.5158e-12 -1.5266e-11)
(2.05433e-12 1.13833e-11 -1.44142e-11)
(1.43268e-12 1.5167e-11 -1.16129e-11)
(7.10887e-13 1.70002e-11 -9.55971e-12)
(4.53596e-13 1.57263e-11 -9.48092e-12)
(-2.27772e-12 1.62569e-11 -1.09646e-11)
(-5.95067e-12 1.66547e-11 -1.36485e-11)
(-6.69674e-12 1.16264e-11 -1.58683e-11)
(-5.52348e-12 8.98027e-12 -1.64197e-11)
(-1.88663e-12 1.14233e-11 -1.18197e-11)
(1.82559e-12 1.24224e-11 -5.40476e-12)
(-6.02169e-13 1.22575e-11 -1.16266e-12)
(6.09043e-13 1.35414e-11 2.27679e-12)
(1.91695e-12 1.2406e-11 9.91447e-12)
(-1.55045e-12 1.19573e-11 1.22633e-11)
(-3.27411e-12 1.35889e-11 4.173e-12)
(-2.38303e-13 1.80693e-11 -2.89251e-12)
(1.74625e-12 1.79289e-11 -3.39554e-12)
(-2.47548e-13 1.75344e-11 -4.10984e-12)
(-2.39978e-13 1.6076e-11 -7.19872e-13)
(6.35868e-13 1.46177e-11 5.39781e-13)
(2.79928e-12 1.24822e-11 8.40123e-13)
(5.1516e-12 1.20696e-11 -4.31386e-13)
(5.0816e-12 1.55865e-11 -4.4369e-12)
(5.0272e-12 1.50009e-11 -8.16053e-12)
(5.167e-12 1.4863e-11 -8.78366e-12)
(4.25926e-12 1.46937e-11 -1.00427e-11)
(1.32288e-12 1.37158e-11 -1.48102e-11)
(1.10815e-12 1.43312e-11 -2.14223e-11)
(5.7366e-13 1.17869e-11 -2.17312e-11)
(1.7044e-12 1.06393e-11 -2.37323e-11)
(3.51348e-12 1.07746e-11 -2.42842e-11)
(5.11557e-12 1.18295e-11 -2.384e-11)
(6.17882e-12 1.26748e-11 -2.51542e-11)
(5.44802e-12 1.23546e-11 -2.65149e-11)
(3.40989e-12 1.30949e-11 -2.00772e-11)
(3.98538e-12 1.17162e-11 -1.13396e-11)
(-9.07583e-13 1.41076e-11 -7.18837e-12)
(-2.97245e-12 1.22999e-11 -4.17516e-12)
(-1.02493e-13 1.35019e-11 -3.5817e-12)
(8.69103e-14 1.24764e-11 -3.6464e-12)
(-4.18237e-12 1.08582e-11 -5.38153e-12)
(-4.91796e-12 1.29277e-11 -9.39905e-12)
(-3.39501e-12 1.39617e-11 -8.48297e-12)
(-4.67062e-12 1.59647e-11 -7.23668e-12)
(-4.04109e-12 1.69301e-11 -8.11989e-12)
(-5.6529e-12 1.8097e-11 -3.12129e-12)
(-4.88365e-12 1.56563e-11 -3.43851e-12)
(-1.69304e-12 1.64371e-11 -3.48605e-12)
(-5.03928e-13 1.60655e-11 -4.45574e-12)
(1.19312e-12 1.592e-11 -6.58509e-12)
(1.13279e-12 1.5456e-11 -7.43643e-12)
(-1.59472e-12 1.67778e-11 -6.24689e-12)
(-4.59268e-12 1.41445e-11 -2.60045e-12)
(-2.978e-12 1.53388e-11 4.64208e-12)
(-2.18573e-12 1.5538e-11 9.8966e-12)
(-4.23063e-12 1.23459e-11 1.19142e-12)
(-2.65778e-12 1.47897e-11 -7.37146e-12)
(-2.60664e-12 1.54826e-11 -6.91243e-12)
(-4.48289e-12 1.54067e-11 -9.91483e-12)
(-2.30154e-12 1.4505e-11 -1.50508e-11)
(-3.11402e-12 1.43072e-11 -1.79398e-11)
(-9.56717e-13 1.78362e-11 -1.81306e-11)
(5.70554e-13 1.84364e-11 -1.67339e-11)
(-7.76062e-13 1.69747e-11 -1.84006e-11)
(4.49333e-12 1.52808e-11 -2.03898e-11)
(5.62898e-12 1.12777e-11 -1.77155e-11)
(1.73176e-12 1.20938e-11 -1.47597e-11)
(-2.16431e-13 1.28332e-11 -1.14251e-11)
(-2.6468e-12 1.23551e-11 -8.82882e-12)
(-5.12636e-12 1.466e-11 -8.18214e-12)
(-3.54478e-12 1.20284e-11 -8.01943e-12)
(-2.12118e-13 1.77177e-11 -2.91878e-12)
(-2.28716e-13 2.22679e-11 1.85591e-12)
(1.00057e-12 1.9471e-11 5.72683e-12)
(1.83712e-12 2.0602e-11 4.71236e-12)
(1.87453e-13 1.85443e-11 3.3747e-12)
(1.75145e-12 1.83391e-11 1.12568e-12)
(2.4749e-12 2.04909e-11 -8.57777e-14)
(6.84753e-13 1.68562e-11 2.59186e-13)
(-4.83976e-13 1.36178e-11 -6.72215e-13)
(1.36973e-12 1.17641e-11 -2.43858e-12)
(-4.18283e-13 1.33865e-11 -1.38008e-11)
(-2.56386e-12 1.20173e-11 -2.60486e-11)
(3.3293e-12 1.20326e-11 -3.18358e-11)
(4.53015e-12 1.22771e-11 -3.45283e-11)
(3.75457e-12 1.12685e-11 -2.83745e-11)
(4.06826e-12 9.1552e-12 -1.98395e-11)
(4.01271e-12 8.31071e-12 -1.42684e-11)
(4.30673e-12 8.54109e-12 -1.52688e-11)
(1.02523e-12 1.00458e-11 -1.55623e-11)
(-1.97233e-12 8.45547e-12 -1.71179e-11)
(-1.12339e-12 7.43447e-12 -1.68455e-11)
(-4.42361e-13 7.23324e-12 -1.50776e-11)
(3.58326e-13 6.82366e-12 -1.44096e-11)
(-2.6319e-13 9.50556e-12 -1.3145e-11)
(-4.06643e-13 1.19632e-11 -8.96513e-12)
(4.44968e-13 1.36198e-11 -5.06162e-12)
(9.80957e-15 1.2695e-11 -7.2763e-12)
(-2.64916e-12 1.35315e-11 -9.04763e-12)
(-2.90595e-12 1.26349e-11 -1.05692e-11)
(-1.15535e-12 9.60607e-12 -1.00908e-11)
(-3.82381e-12 7.59922e-12 -8.19309e-12)
(-4.01124e-12 1.08563e-11 -7.17768e-12)
(3.48384e-13 1.22055e-11 -2.80863e-12)
(-1.32947e-12 1.35164e-11 3.42143e-13)
(-3.6364e-13 1.20176e-11 7.58161e-13)
(1.39983e-12 1.32711e-11 4.58634e-12)
(-7.12714e-13 1.16249e-11 5.06633e-12)
(-3.016e-12 1.13742e-11 -2.14549e-12)
(-1.81249e-12 1.35876e-11 -7.99944e-12)
(6.77572e-13 1.65121e-11 -7.86874e-12)
(1.10547e-12 1.4289e-11 -6.67017e-12)
(1.0665e-12 1.21017e-11 -1.77485e-12)
(5.13787e-13 1.10859e-11 2.77689e-12)
(1.94756e-12 1.1015e-11 1.15026e-12)
(4.72919e-12 1.26717e-11 -6.22354e-13)
(4.43388e-12 1.1872e-11 -8.66666e-12)
(6.06038e-12 1.5257e-11 -1.22091e-11)
(6.30001e-12 1.49279e-11 -1.10833e-11)
(5.07975e-12 1.45132e-11 -1.13768e-11)
(1.81986e-12 1.1914e-11 -1.46083e-11)
(-4.33597e-13 1.39583e-11 -1.93163e-11)
(1.90432e-12 1.57661e-11 -2.19316e-11)
(3.46851e-12 1.18048e-11 -2.4175e-11)
(3.26179e-12 8.53008e-12 -2.53686e-11)
(3.68563e-12 8.63675e-12 -2.37215e-11)
(5.20507e-12 9.65469e-12 -2.51257e-11)
(4.3632e-12 9.75598e-12 -2.50681e-11)
(4.80611e-12 1.0344e-11 -1.89145e-11)
(4.18312e-12 7.86144e-12 -8.37165e-12)
(-4.99924e-13 1.04834e-11 -5.47747e-12)
(-2.87714e-12 8.45396e-12 -5.06247e-12)
(-1.45548e-12 9.67975e-12 -4.80939e-12)
(-7.78039e-13 9.10811e-12 -4.13122e-12)
(-3.76209e-12 1.04969e-11 -3.53343e-12)
(-4.13889e-12 9.38084e-12 -9.00778e-12)
(-4.1623e-12 9.85934e-12 -8.51314e-12)
(-6.57107e-12 1.29265e-11 -8.1945e-12)
(-4.94123e-12 1.34218e-11 -9.30755e-12)
(-5.13105e-12 1.3453e-11 -6.93421e-12)
(-3.86634e-12 1.44769e-11 -8.18324e-12)
(-9.75841e-13 1.41018e-11 -6.42169e-12)
(-6.76326e-13 1.60428e-11 -5.87225e-12)
(-5.82124e-13 1.33537e-11 -6.4862e-12)
(-7.39466e-13 1.4292e-11 -6.81599e-12)
(-5.39273e-14 1.41124e-11 -6.69158e-12)
(-1.76753e-12 1.40827e-11 -4.14431e-12)
(-3.82452e-12 1.16804e-11 -1.1051e-12)
(-2.73994e-12 1.62738e-11 5.38655e-13)
(-4.02483e-12 1.40166e-11 -4.4933e-12)
(-3.88037e-12 1.21758e-11 -1.13412e-11)
(-1.90208e-12 1.13927e-11 -1.25488e-11)
(-2.65579e-12 1.35695e-11 -1.43445e-11)
(-2.7997e-12 1.17286e-11 -1.9562e-11)
(-3.98693e-12 1.4386e-11 -2.05684e-11)
(-1.50187e-12 1.53237e-11 -2.33484e-11)
(1.41856e-12 1.70906e-11 -2.01691e-11)
(1.96017e-12 1.19523e-11 -1.77003e-11)
(5.14014e-12 1.08756e-11 -1.77451e-11)
(3.90347e-12 1.09812e-11 -1.47436e-11)
(6.54734e-14 1.11083e-11 -1.1737e-11)
(-1.79301e-13 1.17436e-11 -8.49157e-12)
(-2.73592e-12 1.40359e-11 -7.55838e-12)
(-3.03351e-12 1.35118e-11 -6.29045e-12)
(-1.98039e-12 1.26355e-11 -6.4205e-12)
(-2.79612e-12 1.30841e-11 -8.15073e-12)
(7.87035e-14 1.57403e-11 2.61873e-13)
(1.0423e-12 1.44216e-11 8.76431e-12)
(7.7977e-13 1.47019e-11 6.3315e-12)
(2.85817e-12 1.34154e-11 4.01308e-12)
(1.19207e-12 1.20986e-11 9.52716e-13)
(2.39453e-12 1.42318e-11 -4.24635e-13)
(2.61017e-12 1.50341e-11 2.07427e-12)
(1.70331e-12 1.44468e-11 2.16084e-12)
(1.81171e-12 1.39139e-11 4.8507e-12)
(-2.52738e-13 1.37282e-11 -7.48026e-12)
(-1.18609e-12 7.30009e-12 -1.88911e-11)
(2.30819e-12 7.91611e-12 -3.10878e-11)
(4.74294e-12 1.29581e-11 -3.90448e-11)
(5.69059e-12 1.2373e-11 -2.89248e-11)
(5.0175e-12 1.11713e-11 -1.73337e-11)
(3.4464e-12 8.07946e-12 -9.50375e-12)
(2.6411e-12 8.41382e-12 -1.27668e-11)
(1.43327e-12 9.12897e-12 -1.21976e-11)
(-7.5073e-13 6.97513e-12 -1.36245e-11)
(-1.81778e-12 7.82996e-12 -1.42196e-11)
(-3.63228e-13 8.28112e-12 -1.3478e-11)
(7.87946e-13 6.72202e-12 -1.24303e-11)
(-5.94537e-13 7.8458e-12 -1.1321e-11)
(-7.4504e-13 1.04029e-11 -6.93183e-12)
(5.57528e-13 1.09372e-11 -2.47418e-12)
(6.98802e-13 1.04278e-11 -5.85584e-12)
(-2.29932e-12 1.00992e-11 -7.46512e-12)
(-1.52639e-12 6.56794e-12 -5.49141e-12)
(-2.40648e-12 3.9067e-12 -2.68642e-12)
(-6.63986e-12 6.04443e-12 9.28277e-13)
(-5.25308e-12 5.59987e-12 7.03125e-13)
(-1.62649e-12 6.37212e-12 3.51041e-12)
(-5.86954e-13 7.17675e-12 3.95419e-12)
(2.42954e-14 5.85963e-12 2.33141e-12)
(2.70098e-12 6.88842e-12 1.36899e-12)
(-5.00056e-13 7.32909e-12 -3.54426e-12)
(-4.78996e-12 6.50662e-12 -1.01843e-11)
(-3.60028e-12 8.81647e-12 -1.126e-11)
(1.21559e-12 9.6001e-12 -1.14622e-11)
(2.2758e-12 1.23647e-11 -9.17835e-12)
(2.65126e-12 1.07861e-11 -1.99014e-12)
(1.11397e-12 9.93585e-12 6.10793e-12)
(7.1095e-13 1.08753e-11 2.16067e-12)
(4.51059e-12 1.06866e-11 1.39441e-13)
(3.33391e-12 1.071e-11 -8.38607e-12)
(3.10217e-12 1.22701e-11 -1.42476e-11)
(5.23717e-12 1.27138e-11 -1.16787e-11)
(6.92577e-12 1.16022e-11 -1.16441e-11)
(2.84049e-12 1.21882e-11 -1.50363e-11)
(-7.38578e-13 9.69827e-12 -1.85002e-11)
(2.10252e-12 1.03603e-11 -2.16981e-11)
(6.08112e-12 9.19851e-12 -2.33159e-11)
(5.4252e-12 6.79028e-12 -2.40975e-11)
(4.2078e-12 7.21823e-12 -2.472e-11)
(5.05869e-12 9.49392e-12 -2.62263e-11)
(4.97694e-12 1.11889e-11 -2.55717e-11)
(5.31406e-12 1.00888e-11 -1.91246e-11)
(2.97695e-12 8.34175e-12 -7.02355e-12)
(-1.63615e-12 7.00739e-12 -2.37015e-12)
(-2.74612e-12 5.81172e-12 -4.50841e-12)
(-2.3826e-13 3.71345e-12 -4.92167e-12)
(-7.27697e-13 4.81511e-12 -4.12323e-12)
(-4.38338e-12 7.7584e-12 -2.90074e-12)
(-4.03916e-12 7.10357e-12 -8.6906e-12)
(-6.02578e-12 7.97712e-12 -7.22626e-12)
(-7.34642e-12 8.71242e-12 -6.03117e-12)
(-3.50841e-12 1.0087e-11 -5.7504e-12)
(-6.44557e-12 8.84514e-12 -5.6223e-12)
(-6.56097e-12 1.25709e-11 -6.10421e-12)
(-2.99861e-12 1.39541e-11 -6.32003e-12)
(1.43372e-12 1.57655e-11 -6.91679e-12)
(2.5224e-12 1.12914e-11 -6.98553e-12)
(-2.83884e-13 9.72319e-12 -6.78264e-12)
(-1.6581e-13 8.86523e-12 -7.39536e-12)
(-1.79204e-12 1.05923e-11 -7.08827e-12)
(-4.184e-12 1.14915e-11 -9.09885e-12)
(-3.52819e-12 1.1826e-11 -9.41874e-12)
(-2.46e-12 9.76268e-12 -9.47462e-12)
(-2.63945e-12 1.00371e-11 -1.07116e-11)
(-3.35843e-12 7.79126e-12 -1.14698e-11)
(-3.64006e-12 9.16564e-12 -1.3581e-11)
(-1.95332e-12 9.30809e-12 -1.77744e-11)
(-4.66184e-12 8.32313e-12 -2.11446e-11)
(-2.25104e-12 7.53163e-12 -2.38958e-11)
(3.70533e-12 9.79931e-12 -1.89247e-11)
(4.57683e-12 5.67508e-12 -1.48733e-11)
(4.81571e-12 9.08681e-12 -1.27275e-11)
(4.63056e-12 8.71034e-12 -1.08998e-11)
(5.61237e-13 7.64956e-12 -9.98757e-12)
(-1.72217e-12 7.15104e-12 -7.11394e-12)
(-3.09537e-12 8.14364e-12 -4.76585e-12)
(-2.98745e-12 7.58127e-12 -3.34263e-12)
(-2.76932e-12 1.00108e-11 -2.3905e-12)
(-1.85822e-12 1.24006e-11 -9.15097e-12)
(-5.45204e-13 1.04666e-11 -1.91475e-12)
(2.61345e-12 1.28794e-11 6.52355e-12)
(1.97676e-12 1.27135e-11 8.4122e-12)
(2.2336e-12 1.1859e-11 6.11768e-12)
(3.41146e-14 1.12546e-11 -5.06375e-13)
(3.60038e-14 1.00949e-11 -4.90224e-12)
(1.40601e-12 1.41664e-11 -3.01829e-12)
(2.11477e-12 1.25929e-11 2.48201e-12)
(2.27755e-12 1.23955e-11 6.08255e-12)
(2.43367e-12 1.1467e-11 -6.38865e-12)
(2.27135e-12 6.78321e-12 -1.32298e-11)
(3.49234e-14 9.28986e-12 -2.53688e-11)
(8.45925e-13 1.11373e-11 -3.30319e-11)
(3.7099e-12 1.4391e-11 -2.5065e-11)
(7.41427e-12 1.52133e-11 -1.77138e-11)
(5.21847e-12 1.16996e-11 -9.6847e-12)
(1.24338e-12 1.20292e-11 -6.56543e-12)
(2.35349e-12 1.35839e-11 -5.52118e-12)
(-7.53876e-13 1.25067e-11 -8.09357e-12)
(-1.92897e-12 1.19008e-11 -1.13445e-11)
(9.36146e-13 1.08466e-11 -8.97167e-12)
(1.2046e-12 1.2567e-11 -8.33737e-12)
(-1.63956e-12 1.36532e-11 -7.35718e-12)
(-1.22225e-12 1.64641e-11 -4.41349e-12)
(1.26695e-12 1.63231e-11 -3.86619e-12)
(1.6977e-12 1.4104e-11 -4.95646e-12)
(9.29851e-14 1.03911e-11 -6.12966e-12)
(1.39696e-12 6.84396e-12 1.76342e-12)
(-2.05431e-12 5.69378e-12 6.27324e-12)
(-4.78587e-12 6.08874e-12 7.9035e-12)
(-3.26141e-12 2.64925e-12 7.65227e-12)
(-1.26831e-12 3.46442e-12 1.1114e-11)
(3.32334e-13 4.57357e-12 9.97446e-12)
(-2.57603e-13 5.06317e-12 4.49637e-12)
(-1.08054e-12 9.39152e-12 -1.44528e-12)
(-1.26159e-12 1.13955e-11 -8.44873e-12)
(-3.71086e-12 8.02495e-12 -1.12544e-11)
(-3.8413e-12 7.67735e-12 -1.38439e-11)
(-1.4143e-12 7.1768e-12 -1.47309e-11)
(5.31917e-13 1.26439e-11 -1.00128e-11)
(3.49382e-12 1.17588e-11 -1.80412e-12)
(4.4423e-13 1.47958e-11 2.55408e-12)
(1.84239e-12 1.29138e-11 1.36005e-12)
(4.19268e-12 1.4119e-11 -3.44079e-12)
(2.69983e-12 1.59326e-11 -7.89682e-12)
(4.99698e-12 1.45675e-11 -1.00339e-11)
(7.40541e-12 1.25444e-11 -9.71752e-12)
(5.36042e-12 9.06882e-12 -1.0665e-11)
(3.11604e-12 1.00784e-11 -1.60822e-11)
(1.83812e-12 5.43708e-12 -1.91194e-11)
(2.42071e-12 3.77833e-12 -2.17265e-11)
(4.88683e-12 4.76186e-12 -2.20629e-11)
(4.626e-12 7.33009e-12 -1.92268e-11)
(1.23423e-12 9.62167e-12 -2.23025e-11)
(2.69067e-12 1.26129e-11 -2.71943e-11)
(5.08693e-12 1.40993e-11 -2.71966e-11)
(6.89252e-12 1.27496e-11 -2.11334e-11)
(5.67552e-12 1.16021e-11 -1.00167e-11)
(-3.91378e-14 1.07154e-11 -5.52689e-12)
(-1.22341e-12 7.41171e-12 -5.31606e-12)
(-7.82819e-13 7.95068e-12 -5.10445e-12)
(-2.53854e-12 1.04623e-11 -4.81306e-12)
(-5.28559e-12 1.18429e-11 -4.80389e-12)
(-4.68686e-12 1.21577e-11 -5.66559e-12)
(-4.7154e-12 1.22816e-11 -4.88686e-12)
(-6.97194e-12 1.0734e-11 -3.15654e-12)
(-4.75637e-12 1.03527e-11 -9.44767e-13)
(-7.06064e-12 9.03523e-12 -3.65669e-12)
(-8.33216e-12 7.24525e-12 -4.92601e-12)
(-4.14156e-12 1.02566e-11 -6.49017e-12)
(2.01609e-12 9.25508e-12 -8.12013e-12)
(4.63853e-12 1.19752e-11 -8.37355e-12)
(8.72446e-13 1.04929e-11 -8.71673e-12)
(-1.04219e-12 1.17452e-11 -8.52349e-12)
(-3.45197e-12 9.82344e-12 -1.2017e-11)
(-4.66576e-12 1.24187e-11 -1.54829e-11)
(-1.16085e-12 9.15509e-12 -1.57294e-11)
(-2.07129e-12 9.40457e-12 -1.36727e-11)
(-2.36828e-12 9.84491e-12 -1.42413e-11)
(-1.56032e-12 9.82054e-12 -1.2339e-11)
(-3.43198e-12 8.47574e-12 -1.21024e-11)
(-2.02762e-12 6.55728e-12 -1.50324e-11)
(-2.4033e-12 3.5029e-12 -1.9969e-11)
(-3.13172e-12 1.50721e-12 -1.94008e-11)
(3.84306e-12 1.9345e-12 -1.53061e-11)
(4.13142e-12 1.87474e-12 -1.04169e-11)
(2.91494e-12 3.60761e-12 -8.91548e-12)
(4.72684e-12 7.3285e-12 -7.59611e-12)
(2.39292e-12 9.71618e-12 -7.56878e-12)
(5.65816e-13 7.00323e-12 -4.18441e-12)
(-2.42646e-12 4.59028e-12 -7.60572e-13)
(-4.27302e-12 5.03955e-12 1.46704e-13)
(-2.27627e-12 3.70399e-12 1.1688e-12)
(-7.74667e-13 1.82029e-11 -1.0117e-11)
(4.50768e-13 1.30762e-11 -4.60812e-12)
(-7.85671e-13 1.38442e-11 7.98744e-13)
(1.43405e-12 1.59415e-11 2.67718e-12)
(3.74556e-12 1.65555e-11 1.4703e-12)
(2.43873e-12 1.51341e-11 -1.78805e-12)
(-4.37228e-13 1.31494e-11 -3.49841e-12)
(1.54447e-12 1.53094e-11 -3.23622e-12)
(3.90274e-12 1.32798e-11 -1.21904e-12)
(3.3033e-12 1.19518e-11 1.45122e-12)
(3.25592e-12 1.22559e-11 -5.2738e-12)
(-1.24473e-12 1.13056e-11 -1.1505e-11)
(-3.16617e-12 1.04878e-11 -1.80827e-11)
(-5.99044e-13 9.61827e-12 -2.23189e-11)
(3.29967e-13 1.21501e-11 -1.71613e-11)
(5.93983e-12 1.2337e-11 -1.23295e-11)
(6.31836e-12 1.3496e-11 -3.49719e-12)
(7.16668e-13 1.35036e-11 2.28492e-12)
(9.27724e-13 1.60134e-11 1.4007e-12)
(1.96005e-12 1.76796e-11 -8.43805e-13)
(5.68543e-13 1.58097e-11 -2.79341e-12)
(-8.71217e-13 1.40247e-11 -1.26919e-12)
(-2.95021e-12 1.66272e-11 -1.74011e-12)
(-4.26359e-12 2.02903e-11 -2.60881e-12)
(-2.72311e-12 2.13274e-11 -4.03385e-12)
(3.69029e-12 1.94934e-11 -6.0441e-12)
(6.47112e-12 1.52998e-11 -7.7111e-12)
(3.32086e-12 1.29123e-11 -2.53186e-12)
(4.67151e-13 1.34604e-11 5.58669e-12)
(-3.42024e-12 1.28586e-11 9.45705e-12)
(-2.48901e-12 1.1465e-11 1.06033e-11)
(-9.95922e-13 9.19528e-12 1.10354e-11)
(-2.24444e-12 1.05252e-11 9.79444e-12)
(-1.25771e-12 1.21253e-11 7.9437e-12)
(-3.73465e-12 1.18096e-11 5.17836e-12)
(-3.15115e-12 1.60389e-11 -7.60263e-13)
(6.14745e-13 1.64407e-11 -6.73283e-12)
(-2.53445e-12 1.73112e-11 -1.00041e-11)
(-2.17954e-12 1.52519e-11 -1.23275e-11)
(-2.11639e-12 1.33293e-11 -1.28583e-11)
(1.6061e-13 1.3771e-11 -1.12471e-11)
(1.42298e-12 1.45579e-11 -6.86811e-12)
(3.50191e-13 1.66675e-11 -5.09465e-12)
(1.12432e-12 1.61514e-11 -5.17711e-12)
(-2.84251e-13 1.77807e-11 -5.94582e-12)
(1.89901e-12 1.79516e-11 -7.04924e-12)
(6.42399e-12 1.62688e-11 -6.50568e-12)
(1.08027e-11 1.54923e-11 -7.08862e-12)
(9.29818e-12 1.35563e-11 -8.09323e-12)
(4.1054e-12 1.10696e-11 -9.99288e-12)
(3.15711e-12 1.21271e-11 -1.24529e-11)
(3.7209e-12 9.81105e-12 -1.30899e-11)
(3.03937e-12 9.99112e-12 -1.46008e-11)
(5.27269e-13 1.40043e-11 -1.54756e-11)
(-9.37297e-13 1.59738e-11 -1.83834e-11)
(9.46454e-13 1.42092e-11 -2.08946e-11)
(5.058e-12 1.46279e-11 -2.11965e-11)
(7.80283e-12 1.32376e-11 -1.71196e-11)
(4.73094e-12 1.53292e-11 -9.12003e-12)
(1.46672e-12 1.63022e-11 -5.788e-12)
(-1.50051e-12 1.47879e-11 -5.27391e-12)
(-3.12888e-12 1.61166e-11 -4.61873e-12)
(-4.69923e-12 1.6128e-11 -3.32471e-12)
(-7.68662e-12 1.62271e-11 -3.39933e-12)
(-4.76894e-12 1.67535e-11 -3.5097e-12)
(-3.66015e-12 1.72703e-11 -3.26573e-12)
(-4.09412e-12 1.53539e-11 -2.1563e-12)
(-1.74721e-12 1.23666e-11 -1.37746e-12)
(-4.02813e-12 1.40087e-11 -3.45833e-12)
(-6.27885e-12 9.0092e-12 -5.1812e-12)
(-4.7077e-12 1.08101e-11 -8.98812e-12)
(-6.91365e-13 1.02733e-11 -1.223e-11)
(1.16707e-12 1.4559e-11 -1.09806e-11)
(-2.11607e-13 1.60605e-11 -1.14939e-11)
(1.40612e-13 1.63789e-11 -1.24715e-11)
(-2.32675e-12 1.39003e-11 -1.32215e-11)
(-3.31918e-12 1.5082e-11 -1.42633e-11)
(-3.87203e-13 1.35915e-11 -1.46921e-11)
(-2.15261e-12 1.57678e-11 -1.41486e-11)
(-2.20044e-12 1.3936e-11 -1.27368e-11)
(-2.25922e-12 1.56876e-11 -1.14095e-11)
(-9.97576e-13 1.28964e-11 -1.02442e-11)
(1.23857e-12 9.47913e-12 -1.0433e-11)
(-1.02558e-12 8.86557e-12 -1.13537e-11)
(-3.44267e-13 8.51982e-12 -1.08554e-11)
(3.21651e-12 4.61877e-12 -8.10129e-12)
(2.5788e-12 7.46232e-12 -5.35339e-12)
(7.98202e-13 5.7053e-12 -4.70703e-12)
(-2.69937e-13 1.04264e-11 -5.08813e-12)
(1.0744e-12 1.24465e-11 -5.89796e-12)
(2.3279e-12 1.28359e-11 -1.0942e-12)
(-4.2156e-13 8.80928e-12 9.41596e-13)
(-1.32401e-12 9.87979e-12 4.87216e-12)
(-1.07558e-12 5.58575e-12 7.06456e-12)