/*--------------------------------*- C++ -*----------------------------------*\
| =========                 |                                                 |
| \\      /  F ield         | OpenFOAM: The Open Source CFD Toolbox           |
|  \\    /   O peration     | Version:  2406                                  |
|   \\  /    A nd           | Website:  www.openfoam.com                      |
|    \\/     M anipulation  |                                                 |
\*---------------------------------------------------------------------------*/
FoamFile
{
    version     2.0;
    format      ascii;
    arch        "LSB;label=32;scalar=64";
    class       volScalarField;
    location    "0.09";
    object      Ma;
}
// * * * * * * * * * * * * * * * * * * * * * * * * * * * * * * * * * * * * * //

dimensions      [0 0 0 0 0 0 0];

internalField   nonuniform List<scalar> 
14020
(
1.01929
1.01929
1.01929
1.01929
1.01929
1.01929
1.01928
1.01928
1.01927
1.01926
1.01925
1.01924
1.01924
1.01923
1.01923
1.01923
1.01922
1.0192
1.01919
1.01918
1.01917
1.01916
1.01915
1.01914
1.01914
1.01913
1.01912
1.01911
1.0191
1.01911
1.01912
1.01913
1.01914
1.01914
1.01913
1.01912
1.01912
1.01912
1.01912
1.01913
1.01913
1.01913
1.01913
1.01912
1.01912
1.01912
1.01912
1.01912
1.01913
1.01914
1.01915
1.01916
1.01916
1.01916
1.01916
1.01916
1.01917
1.01918
1.01918
1.01918
1.01918
1.01918
1.01918
1.01918
1.01918
1.01919
1.01919
1.0192
1.0192
1.0192
1.01919
1.01919
1.01919
1.0192
1.0192
1.0192
1.0192
1.0192
1.01921
1.01922
1.01923
1.01924
1.01924
1.01924
1.01924
1.01923
1.01923
1.01923
1.01923
1.01924
1.01924
1.01923
1.01923
1.01922
1.01923
1.01924
1.01925
1.01925
1.01926
1.01926
1.01925
1.01925
1.01925
1.01925
1.01925
1.01926
1.01926
1.01926
1.01926
1.01926
1.01927
1.01928
1.01928
1.01928
1.01928
1.01928
1.01928
1.01927
1.01927
1.01927
1.01927
1.01927
1.01928
1.01928
1.01929
1.01929
1.01929
1.01929
1.01929
1.01929
1.01929
1.0193
1.01931
1.01932
1.01931
1.01932
1.01931
1.01931
1.01931
1.01931
1.01931
1.01931
1.01931
1.0193
1.0193
1.0193
1.0193
1.01931
1.01934
1.01936
1.01937
1.01935
1.01933
1.01926
1.01916
1.0191
1.01927
1.0201
1.02195
1.02473
1.02809
1.03174
1.03551
1.03934
1.04323
1.04715
1.0511
1.05508
1.05908
1.0631
1.06714
1.07119
1.07525
1.07933
1.08341
1.08751
1.09161
1.09571
1.0998
1.1039
1.10798
1.11206
1.11612
1.12016
1.12408
1.12777
1.13131
1.13478
1.13812
1.14125
1.14406
1.14644
1.14825
1.14937
1.14968
1.14905
1.14733
1.14434
1.13993
1.13388
1.12604
1.11626
1.10446
1.09061
1.0748
1.05724
1.03828
1.01847
0.998569
0.979533
0.962501
0.949305
0.941275
0.938259
0.939894
0.942532
0.945286
0.948156
0.951147
0.954232
0.957389
0.96058
0.963785
0.966968
0.970117
0.973203
0.97623
0.979181
0.98215
0.985549
0.992934
1.01929
1.01929
1.01929
1.01929
1.01929
1.01929
1.01928
1.01928
1.01927
1.01926
1.01925
1.01924
1.01924
1.01923
1.01923
1.01923
1.01922
1.0192
1.01919
1.01918
1.01917
1.01916
1.01915
1.01914
1.01914
1.01913
1.01912
1.01911
1.0191
1.01911
1.01912
1.01913
1.01914
1.01914
1.01913
1.01912
1.01912
1.01912
1.01912
1.01913
1.01913
1.01913
1.01913
1.01912
1.01912
1.01912
1.01912
1.01912
1.01913
1.01914
1.01915
1.01916
1.01916
1.01916
1.01916
1.01916
1.01917
1.01918
1.01918
1.01918
1.01918
1.01918
1.01918
1.01918
1.01918
1.01919
1.01919
1.0192
1.0192
1.0192
1.01919
1.01919
1.01919
1.0192
1.0192
1.0192
1.0192
1.0192
1.01921
1.01922
1.01923
1.01924
1.01924
1.01924
1.01924
1.01923
1.01923
1.01923
1.01923
1.01924
1.01924
1.01923
1.01923
1.01922
1.01923
1.01924
1.01925
1.01925
1.01926
1.01926
1.01925
1.01925
1.01925
1.01925
1.01925
1.01926
1.01926
1.01926
1.01926
1.01926
1.01927
1.01928
1.01928
1.01928
1.01928
1.01928
1.01928
1.01927
1.01927
1.01927
1.01927
1.01927
1.01928
1.01928
1.01929
1.01929
1.01929
1.01929
1.01929
1.01929
1.01929
1.0193
1.01931
1.01931
1.01931
1.01932
1.01931
1.01931
1.01931
1.01931
1.01931
1.01931
1.01931
1.0193
1.0193
1.0193
1.0193
1.01931
1.01933
1.01936
1.01937
1.01935
1.01933
1.01926
1.01916
1.0191
1.01927
1.0201
1.02195
1.02473
1.02809
1.03174
1.03551
1.03934
1.04323
1.04715
1.0511
1.05508
1.05908
1.0631
1.06714
1.07119
1.07525
1.07933
1.08341
1.08751
1.09161
1.09571
1.0998
1.1039
1.10798
1.11206
1.11612
1.12016
1.12408
1.12778
1.13133
1.1348
1.13815
1.14129
1.14412
1.14651
1.14835
1.14951
1.14986
1.14928
1.14762
1.1447
1.14035
1.13438
1.12662
1.11691
1.10517
1.09138
1.0756
1.05803
1.03902
1.01913
0.999108
0.979932
0.962772
0.949473
0.941385
0.938326
0.939914
0.942547
0.945297
0.948163
0.951151
0.954231
0.957384
0.960574
0.963778
0.966961
0.97011
0.973197
0.976224
0.979174
0.982146
0.985542
0.992856
1.01929
1.01929
1.01929
1.01929
1.01929
1.01929
1.01928
1.01928
1.01927
1.01926
1.01925
1.01924
1.01924
1.01923
1.01923
1.01923
1.01922
1.0192
1.01919
1.01918
1.01917
1.01916
1.01915
1.01914
1.01914
1.01913
1.01912
1.01911
1.0191
1.01911
1.01912
1.01913
1.01914
1.01914
1.01913
1.01912
1.01912
1.01912
1.01912
1.01913
1.01913
1.01913
1.01913
1.01912
1.01912
1.01912
1.01912
1.01912
1.01913
1.01914
1.01915
1.01916
1.01916
1.01916
1.01916
1.01916
1.01917
1.01918
1.01918
1.01918
1.01918
1.01918
1.01918
1.01918
1.01918
1.01919
1.01919
1.0192
1.0192
1.0192
1.01919
1.01919
1.01919
1.0192
1.0192
1.0192
1.0192
1.0192
1.01921
1.01922
1.01923
1.01924
1.01924
1.01924
1.01924
1.01923
1.01923
1.01923
1.01923
1.01924
1.01924
1.01923
1.01923
1.01922
1.01923
1.01924
1.01925
1.01925
1.01926
1.01926
1.01925
1.01925
1.01925
1.01925
1.01925
1.01926
1.01926
1.01926
1.01926
1.01926
1.01927
1.01928
1.01928
1.01928
1.01928
1.01928
1.01928
1.01927
1.01927
1.01927
1.01927
1.01927
1.01928
1.01928
1.01929
1.01929
1.01929
1.01929
1.01929
1.01929
1.01929
1.0193
1.01931
1.01931
1.01931
1.01932
1.01932
1.01931
1.01931
1.01931
1.01931
1.01932
1.01931
1.0193
1.0193
1.0193
1.0193
1.01931
1.01933
1.01936
1.01937
1.01935
1.01933
1.01926
1.01916
1.0191
1.01928
1.0201
1.02195
1.02473
1.02809
1.03174
1.03551
1.03934
1.04323
1.04715
1.0511
1.05508
1.05908
1.0631
1.06714
1.07119
1.07525
1.07933
1.08341
1.08751
1.09161
1.09571
1.09981
1.1039
1.10798
1.11205
1.11612
1.12016
1.12409
1.12779
1.13134
1.13481
1.13817
1.14132
1.14417
1.14659
1.14846
1.14965
1.15006
1.14954
1.14794
1.1451
1.14083
1.13493
1.12725
1.1176
1.10591
1.09211
1.0763
1.05866
1.03954
1.01951
0.999351
0.98006
0.962834
0.949498
0.941388
0.938333
0.939942
0.942575
0.945322
0.948182
0.951162
0.954236
0.957385
0.960573
0.963776
0.966959
0.970107
0.973194
0.976221
0.979172
0.982147
0.985537
0.992746
1.01929
1.01929
1.01929
1.01929
1.01929
1.01929
1.01928
1.01928
1.01927
1.01926
1.01925
1.01924
1.01924
1.01923
1.01923
1.01923
1.01922
1.0192
1.01919
1.01918
1.01917
1.01916
1.01915
1.01914
1.01914
1.01913
1.01912
1.01911
1.0191
1.01911
1.01912
1.01913
1.01914
1.01914
1.01913
1.01912
1.01912
1.01912
1.01912
1.01913
1.01913
1.01913
1.01913
1.01912
1.01912
1.01912
1.01912
1.01912
1.01913
1.01914
1.01915
1.01916
1.01916
1.01916
1.01916
1.01916
1.01917
1.01918
1.01918
1.01918
1.01918
1.01918
1.01918
1.01918
1.01918
1.01919
1.01919
1.0192
1.0192
1.0192
1.01919
1.01919
1.01919
1.0192
1.0192
1.0192
1.0192
1.0192
1.01921
1.01922
1.01923
1.01924
1.01924
1.01924
1.01924
1.01923
1.01923
1.01923
1.01923
1.01924
1.01924
1.01923
1.01923
1.01922
1.01923
1.01924
1.01925
1.01925
1.01926
1.01926
1.01925
1.01925
1.01925
1.01925
1.01925
1.01926
1.01926
1.01926
1.01926
1.01926
1.01927
1.01928
1.01928
1.01928
1.01928
1.01928
1.01928
1.01927
1.01927
1.01927
1.01927
1.01927
1.01928
1.01928
1.01929
1.01929
1.01929
1.01929
1.01929
1.01929
1.01929
1.0193
1.01931
1.01931
1.01931
1.01932
1.01932
1.01931
1.01931
1.01931
1.01931
1.01932
1.01931
1.0193
1.0193
1.0193
1.0193
1.01931
1.01933
1.01936
1.01937
1.01935
1.01932
1.01926
1.01916
1.0191
1.01928
1.02011
1.02195
1.02473
1.02809
1.03173
1.03551
1.03934
1.04323
1.04715
1.0511
1.05508
1.05908
1.0631
1.06714
1.07119
1.07525
1.07933
1.08341
1.08751
1.0916
1.09571
1.09981
1.1039
1.10798
1.11205
1.11612
1.12016
1.12409
1.1278
1.13134
1.13482
1.13819
1.14136
1.14422
1.14666
1.14855
1.14979
1.15025
1.14979
1.14826
1.14549
1.14129
1.13545
1.12781
1.11819
1.10649
1.09264
1.07673
1.05897
1.03973
1.01959
0.999349
0.980038
0.962821
0.949499
0.941404
0.938359
0.939972
0.942605
0.94535
0.948206
0.951179
0.954247
0.957392
0.960576
0.963777
0.966959
0.970107
0.973194
0.976221
0.979171
0.982148
0.985534
0.992655
1.01929
1.01929
1.01929
1.01929
1.01929
1.01929
1.01928
1.01928
1.01927
1.01926
1.01925
1.01924
1.01924
1.01923
1.01923
1.01923
1.01922
1.0192
1.01919
1.01918
1.01917
1.01916
1.01915
1.01914
1.01914
1.01913
1.01912
1.01911
1.0191
1.01911
1.01912
1.01913
1.01914
1.01914
1.01913
1.01912
1.01912
1.01912
1.01912
1.01913
1.01913
1.01913
1.01913
1.01912
1.01912
1.01912
1.01912
1.01912
1.01913
1.01914
1.01915
1.01916
1.01916
1.01916
1.01916
1.01916
1.01917
1.01918
1.01918
1.01918
1.01918
1.01918
1.01918
1.01918
1.01918
1.01919
1.01919
1.0192
1.0192
1.0192
1.01919
1.01919
1.01919
1.0192
1.0192
1.0192
1.0192
1.0192
1.01921
1.01922
1.01923
1.01924
1.01924
1.01924
1.01924
1.01923
1.01923
1.01923
1.01923
1.01924
1.01924
1.01923
1.01923
1.01922
1.01923
1.01924
1.01925
1.01925
1.01926
1.01926
1.01925
1.01925
1.01925
1.01925
1.01925
1.01926
1.01926
1.01926
1.01926
1.01926
1.01927
1.01928
1.01928
1.01928
1.01928
1.01928
1.01928
1.01927
1.01927
1.01927
1.01927
1.01927
1.01928
1.01928
1.01929
1.01929
1.01929
1.01929
1.01929
1.01929
1.01929
1.0193
1.01931
1.01931
1.01931
1.01932
1.01932
1.01931
1.01931
1.01931
1.01932
1.01932
1.01931
1.0193
1.0193
1.0193
1.0193
1.01931
1.01933
1.01936
1.01937
1.01935
1.01932
1.01926
1.01916
1.0191
1.01928
1.02011
1.02195
1.02473
1.02809
1.03173
1.0355
1.03934
1.04323
1.04715
1.0511
1.05508
1.05908
1.0631
1.06714
1.07119
1.07525
1.07933
1.08341
1.0875
1.0916
1.09571
1.09981
1.10391
1.10798
1.11205
1.11612
1.12016
1.12409
1.1278
1.13135
1.13483
1.1382
1.14138
1.14426
1.14672
1.14863
1.14991
1.15041
1.14999
1.14851
1.14579
1.14163
1.13582
1.12819
1.11855
1.10681
1.09287
1.07685
1.05897
1.03965
1.01951
0.999322
0.98006
0.96287
0.94955
0.941433
0.938367
0.939977
0.94261
0.945356
0.948215
0.951191
0.954258
0.957402
0.960582
0.963781
0.966961
0.970108
0.973194
0.97622
0.979171
0.982148
0.985534
0.992587
1.01929
1.01929
1.01929
1.01929
1.01929
1.01929
1.01928
1.01928
1.01927
1.01926
1.01925
1.01924
1.01924
1.01923
1.01923
1.01923
1.01922
1.0192
1.01919
1.01918
1.01917
1.01916
1.01915
1.01914
1.01914
1.01913
1.01912
1.01911
1.0191
1.01911
1.01912
1.01913
1.01914
1.01914
1.01913
1.01912
1.01912
1.01912
1.01912
1.01913
1.01913
1.01913
1.01913
1.01912
1.01912
1.01912
1.01912
1.01912
1.01913
1.01914
1.01915
1.01916
1.01916
1.01916
1.01916
1.01916
1.01917
1.01918
1.01918
1.01918
1.01918
1.01918
1.01918
1.01918
1.01918
1.01919
1.01919
1.0192
1.0192
1.0192
1.01919
1.01919
1.01919
1.0192
1.0192
1.0192
1.0192
1.0192
1.01921
1.01922
1.01923
1.01924
1.01924
1.01924
1.01924
1.01923
1.01923
1.01923
1.01923
1.01924
1.01924
1.01923
1.01923
1.01922
1.01923
1.01924
1.01925
1.01925
1.01926
1.01926
1.01925
1.01925
1.01925
1.01925
1.01925
1.01926
1.01926
1.01926
1.01926
1.01926
1.01927
1.01928
1.01928
1.01928
1.01928
1.01928
1.01928
1.01927
1.01927
1.01927
1.01927
1.01927
1.01928
1.01928
1.01929
1.01929
1.01929
1.01929
1.01929
1.01929
1.01929
1.0193
1.01931
1.01931
1.01931
1.01932
1.01932
1.01931
1.01931
1.01931
1.01932
1.01932
1.01931
1.0193
1.0193
1.0193
1.0193
1.01931
1.01933
1.01936
1.01937
1.01935
1.01932
1.01926
1.01916
1.0191
1.01928
1.02011
1.02195
1.02473
1.02809
1.03173
1.0355
1.03934
1.04323
1.04715
1.0511
1.05507
1.05908
1.0631
1.06714
1.07119
1.07525
1.07932
1.08341
1.0875
1.0916
1.09571
1.09981
1.10391
1.10799
1.11206
1.11612
1.12016
1.12409
1.12781
1.13136
1.13484
1.13821
1.14139
1.14428
1.14676
1.14869
1.14999
1.15051
1.15012
1.14866
1.14597
1.14183
1.13601
1.12834
1.11866
1.10686
1.09286
1.0768
1.05885
1.03952
1.01939
0.999203
0.979955
0.962787
0.949507
0.941435
0.938383
0.939988
0.942621
0.945364
0.948224
0.9512
0.954265
0.957407
0.960586
0.963783
0.966963
0.970108
0.973195
0.976219
0.97917
0.982148
0.985535
0.992539
1.01929
1.01929
1.01929
1.01929
1.01929
1.01929
1.01929
1.01928
1.01927
1.01926
1.01925
1.01924
1.01924
1.01923
1.01923
1.01923
1.01922
1.0192
1.01919
1.01918
1.01917
1.01916
1.01915
1.01914
1.01914
1.01913
1.01912
1.01911
1.0191
1.01911
1.01912
1.01913
1.01914
1.01914
1.01913
1.01912
1.01912
1.01912
1.01912
1.01913
1.01913
1.01913
1.01913
1.01912
1.01912
1.01912
1.01912
1.01912
1.01913
1.01914
1.01915
1.01916
1.01916
1.01916
1.01916
1.01916
1.01917
1.01918
1.01918
1.01918
1.01918
1.01918
1.01918
1.01918
1.01918
1.01919
1.01919
1.0192
1.0192
1.0192
1.01919
1.01919
1.01919
1.0192
1.0192
1.0192
1.0192
1.0192
1.01921
1.01922
1.01923
1.01924
1.01924
1.01924
1.01924
1.01923
1.01923
1.01923
1.01923
1.01924
1.01924
1.01923
1.01923
1.01922
1.01923
1.01924
1.01925
1.01925
1.01926
1.01926
1.01925
1.01925
1.01925
1.01925
1.01926
1.01926
1.01926
1.01926
1.01926
1.01926
1.01927
1.01928
1.01928
1.01928
1.01928
1.01928
1.01928
1.01927
1.01927
1.01927
1.01927
1.01927
1.01928
1.01928
1.01929
1.01929
1.01929
1.01929
1.01929
1.01929
1.01929
1.0193
1.01931
1.01931
1.01931
1.01932
1.01932
1.01931
1.01931
1.01931
1.01932
1.01932
1.01931
1.0193
1.0193
1.0193
1.0193
1.01931
1.01933
1.01936
1.01937
1.01935
1.01932
1.01926
1.01917
1.0191
1.01928
1.02011
1.02195
1.02473
1.02809
1.03173
1.0355
1.03934
1.04323
1.04716
1.0511
1.05507
1.05907
1.0631
1.06714
1.07119
1.07525
1.07932
1.08341
1.0875
1.0916
1.09571
1.09982
1.10391
1.10799
1.11206
1.11612
1.12015
1.12408
1.12781
1.13137
1.13486
1.13822
1.14139
1.14428
1.14677
1.14872
1.15003
1.15055
1.15014
1.14868
1.14599
1.14183
1.13602
1.12831
1.11861
1.10679
1.09274
1.07671
1.05883
1.03952
1.01937
0.99914
0.979866
0.962699
0.949453
0.941408
0.938368
0.939982
0.942617
0.94536
0.948222
0.951198
0.954262
0.957406
0.960586
0.963782
0.966962
0.970107
0.973194
0.976218
0.97917
0.982148
0.985536
0.992508
1.01929
1.01929
1.01929
1.01929
1.01929
1.01929
1.01929
1.01928
1.01927
1.01926
1.01925
1.01924
1.01924
1.01923
1.01923
1.01923
1.01922
1.0192
1.01919
1.01918
1.01917
1.01916
1.01915
1.01914
1.01914
1.01913
1.01912
1.01911
1.0191
1.01911
1.01912
1.01913
1.01914
1.01914
1.01913
1.01912
1.01912
1.01912
1.01912
1.01913
1.01913
1.01913
1.01913
1.01912
1.01912
1.01912
1.01912
1.01912
1.01913
1.01914
1.01915
1.01916
1.01916
1.01916
1.01916
1.01916
1.01917
1.01918
1.01918
1.01918
1.01918
1.01918
1.01918
1.01918
1.01918
1.01919
1.01919
1.0192
1.0192
1.0192
1.01919
1.01919
1.01919
1.0192
1.0192
1.0192
1.0192
1.0192
1.01921
1.01922
1.01923
1.01924
1.01924
1.01924
1.01924
1.01923
1.01923
1.01923
1.01923
1.01924
1.01924
1.01923
1.01923
1.01922
1.01923
1.01924
1.01925
1.01925
1.01926
1.01926
1.01925
1.01925
1.01925
1.01926
1.01926
1.01926
1.01926
1.01926
1.01926
1.01926
1.01927
1.01928
1.01928
1.01928
1.01928
1.01928
1.01928
1.01927
1.01927
1.01927
1.01927
1.01927
1.01928
1.01928
1.01929
1.01929
1.01929
1.01929
1.01929
1.01929
1.01929
1.0193
1.01931
1.01931
1.01931
1.01932
1.01932
1.01931
1.01931
1.01931
1.01932
1.01932
1.01931
1.0193
1.0193
1.0193
1.0193
1.01931
1.01933
1.01936
1.01937
1.01935
1.01932
1.01926
1.01917
1.0191
1.01928
1.02011
1.02195
1.02473
1.02809
1.03173
1.0355
1.03935
1.04324
1.04716
1.0511
1.05507
1.05907
1.0631
1.06715
1.07119
1.07525
1.07932
1.0834
1.0875
1.0916
1.09571
1.09982
1.10391
1.10799
1.11206
1.11612
1.12015
1.12408
1.12781
1.13137
1.13486
1.13821
1.14136
1.14425
1.14675
1.14869
1.14999
1.15049
1.15005
1.14859
1.14592
1.14176
1.13595
1.1282
1.1185
1.10676
1.09269
1.0767
1.05884
1.03951
1.01932
0.999064
0.979775
0.962597
0.949377
0.941372
0.938349
0.93998
0.942619
0.945365
0.94823
0.951203
0.954268
0.95741
0.960589
0.963784
0.966963
0.970107
0.973195
0.976218
0.97917
0.982149
0.985535
0.992491
1.01929
1.01929
1.01929
1.01929
1.01929
1.01929
1.01929
1.01928
1.01927
1.01926
1.01925
1.01924
1.01924
1.01923
1.01923
1.01923
1.01922
1.0192
1.01919
1.01918
1.01917
1.01916
1.01915
1.01914
1.01914
1.01913
1.01912
1.01911
1.0191
1.01911
1.01912
1.01913
1.01914
1.01914
1.01913
1.01912
1.01912
1.01912
1.01912
1.01913
1.01913
1.01913
1.01913
1.01912
1.01912
1.01912
1.01912
1.01912
1.01913
1.01914
1.01915
1.01916
1.01916
1.01916
1.01916
1.01916
1.01917
1.01918
1.01918
1.01918
1.01918
1.01918
1.01918
1.01918
1.01918
1.01919
1.01919
1.0192
1.0192
1.0192
1.01919
1.01919
1.01919
1.0192
1.0192
1.0192
1.0192
1.0192
1.01921
1.01922
1.01923
1.01924
1.01924
1.01924
1.01924
1.01923
1.01923
1.01923
1.01923
1.01924
1.01924
1.01923
1.01923
1.01922
1.01923
1.01924
1.01925
1.01925
1.01926
1.01926
1.01925
1.01925
1.01925
1.01926
1.01926
1.01926
1.01926
1.01926
1.01926
1.01927
1.01927
1.01928
1.01928
1.01928
1.01928
1.01928
1.01928
1.01927
1.01927
1.01927
1.01927
1.01927
1.01928
1.01928
1.01929
1.01929
1.01929
1.01929
1.01929
1.01929
1.01929
1.0193
1.01931
1.01931
1.01931
1.01932
1.01932
1.01931
1.01931
1.01931
1.01932
1.01932
1.01931
1.0193
1.0193
1.0193
1.0193
1.01931
1.01933
1.01936
1.01937
1.01935
1.01932
1.01926
1.01917
1.0191
1.01928
1.02011
1.02195
1.02473
1.02809
1.03173
1.0355
1.03935
1.04324
1.04716
1.0511
1.05507
1.05907
1.0631
1.06715
1.07119
1.07525
1.07932
1.0834
1.0875
1.0916
1.09571
1.09982
1.10391
1.10799
1.11206
1.11612
1.12015
1.12407
1.1278
1.13137
1.13487
1.13819
1.14134
1.14424
1.14674
1.14869
1.14995
1.15046
1.15004
1.14856
1.14589
1.14173
1.13592
1.12816
1.11844
1.10678
1.09268
1.07671
1.05883
1.03945
1.01923
0.998977
0.979696
0.962524
0.949333
0.941359
0.938341
0.939978
0.942617
0.945366
0.948231
0.951205
0.954268
0.957406
0.960586
0.963781
0.966961
0.970107
0.973194
0.976217
0.97917
0.982149
0.985534
0.992485
1.72894e-13
6.63867e-10
3.05264e-07
2.20448e-05
0.000362145
0.00202451
0.00560267
0.0102077
0.0146379
0.0182623
0.0209491
0.0228058
0.0240281
0.0248403
0.0255033
0.0259905
0.0263814
0.0267543
0.0272072
0.0278766
0.0289041
0.0305918
0.034521
0.0417136
0.0519569
0.0644584
0.0785964
0.0943817
0.112179
0.132063
0.153833
0.177903
0.205916
0.240187
0.282079
0.331225
0.387179
0.450775
0.526638
0.617103
0.72755
0.867611
1.02893
1.16115
1.218
1.28903
1.44162
1.53748
1.54897
1.48816
1.38037
1.26843
1.15042
1.04041
0.945807
0.863259
0.798422
0.74911
0.718055
0.700737
0.688267
0.67464
0.660382
0.643238
0.632401
0.639751
0.663771
0.69539
0.725709
0.75857
0.793265
0.827685
0.861053
0.891692
0.914689
0.92617
0.92385
0.907449
0.874818
0.830999
0.778111
0.730662
0.699061
0.682604
0.681079
0.699853
0.732832
0.769397
0.806744
0.840678
0.867862
0.88458
0.883988
0.86109
0.817467
0.756044
0.681214
0.593907
0.48567
0.33177
3.87857e-14
1.17961e-13
4.44417e-10
2.27691e-07
1.80052e-05
0.000317344
0.00186343
0.0053189
0.0098697
0.0143077
0.0179703
0.0207028
0.0226003
0.0238519
0.0246788
0.0253434
0.0258353
0.0262192
0.0265739
0.0269951
0.0276158
0.0285957
0.0301119
0.0336356
0.0403009
0.0500235
0.0620631
0.0757562
0.0909926
0.108069
0.127124
0.148053
0.171184
0.197881
0.23023
0.269691
0.316155
0.369224
0.43004
0.50323
0.59222
0.697212
0.819564
0.954962
1.03803
1.08542
1.16464
1.296
1.42163
1.44669
1.41507
1.31722
1.20631
1.08606
0.95768
0.83789
0.740084
0.658671
0.590806
0.540013
0.504644
0.477898
0.455324
0.438075
0.424054
0.416395
0.418664
0.433151
0.453732
0.476965
0.501413
0.525328
0.5476
0.568605
0.587908
0.602837
0.609875
0.606135
0.591805
0.567178
0.535482
0.500169
0.468267
0.446537
0.434236
0.432342
0.441009
0.456148
0.472954
0.488401
0.501037
0.508893
0.509295
0.494201
0.464752
0.421487
0.366653
0.304537
0.236603
0.167625
5.61718e-14
8.14628e-14
2.79333e-10
1.62131e-07
1.42364e-05
0.000272183
0.0016921
0.00500717
0.00949211
0.0139362
0.0176414
0.0204263
0.022371
0.0236572
0.0245032
0.0251685
0.0256676
0.0260446
0.0263805
0.0267684
0.0273361
0.02826
0.0296221
0.0327222
0.0388056
0.0479421
0.0594516
0.0726512
0.0873185
0.103654
0.12182
0.141791
0.16384
0.189084
0.21936
0.256145
0.299529
0.349116
0.406185
0.475303
0.560157
0.656402
0.755034
0.862061
0.908895
0.957329
1.06171
1.19056
1.32901
1.37089
1.36266
1.26322
1.14704
1.02069
0.892332
0.780089
0.670847
0.572915
0.492266
0.431435
0.38431
0.345191
0.312916
0.289037
0.27063
0.259094
0.255325
0.258574
0.267621
0.280165
0.294024
0.307506
0.320024
0.331682
0.341947
0.349793
0.353089
0.348922
0.338715
0.323819
0.305172
0.284164
0.26597
0.252834
0.244927
0.243456
0.245986
0.250419
0.255143
0.25831
0.259227
5.42526e-14
5.63274e-14
5.86555e-14
1.63779e-10
1.09566e-07
1.08441e-05
0.000227666
0.00151212
0.00466682
0.00907091
0.0135167
0.0172671
0.0201099
0.022108
0.0234339
0.024303
0.0249687
0.0254774
0.0258478
0.026165
0.0265188
0.0270305
0.0278861
0.0291206
0.0317901
0.0372408
0.0457229
0.0566263
0.069269
0.0833338
0.0989109
0.116148
0.135065
0.155888
0.179526
0.207565
0.241445
0.281404
0.327
0.379379
0.442825
0.520684
0.605211
0.680765
0.755923
0.774491
0.814006
0.941004
1.0698
1.20995
1.28362
1.28444
1.19395
1.06851
0.935696
0.805801
0.692893
0.596282
0.515945
5.56313e-14
5.12635e-14
5.83062e-14
8.86626e-11
6.97001e-08
7.90856e-06
0.000184901
0.00132599
0.00429852
0.00860354
0.0130448
0.0168428
0.0197499
0.0218092
0.0231818
0.0240788
0.0247469
0.025267
0.0256323
0.0259315
0.0262512
0.0267062
0.0274747
0.0286159
0.0308563
0.0356313
0.0433881
0.0536069
0.0656213
0.07904
0.0938417
0.110127
0.127928
0.147416
0.16931
0.194959
0.225735
0.262006
0.303273
0.350226
0.406208
0.47312
0.544304
0.608878
0.662002
0.673067
0.67167
0.773712
0.912958
1.04059
1.11153
1.11251
1.03024
0.916098
0.799918
0.691367
0.598351
5.74352e-14
5.65572e-14
5.87751e-14
4.37604e-11
4.13283e-08
5.48108e-06
0.000145033
0.00113696
0.00390408
0.00808803
0.0125156
0.0163624
0.0193399
0.0214679
0.0228944
0.0238241
0.024497
0.02503
0.0253921
0.0256745
0.0259599
0.0263573
0.0270305
0.0280912
0.0299336
0.0340045
0.0409621
0.0504183
0.0617289
0.0744448
0.0884429
0.103762
0.120417
0.138508
0.158565
0.181703
0.209199
0.241556
0.278286
0.319485
0.367401
0.421307
0.479087
0.536847
0.579834
0.580896
0.547968
0.577551
0.652102
0.707844
0.756518
0.775908
0.740996
0.689391
0.620637
0.547213
4.43264e-14
5.2372e-14
4.88616e-14
1.94119e-11
2.25724e-08
3.57766e-06
0.000109158
0.000949065
0.00348674
0.00752321
0.0119247
0.0158198
0.018874
0.0210791
0.0225684
0.0235375
0.0242187
0.0247663
0.0251282
0.0253961
0.0256485
0.0259868
0.0265648
0.0275349
0.0290432
0.0323985
0.0384819
0.0470973
0.0576287
0.0695779
0.0827332
0.0970689
0.112571
0.129262
0.147468
0.16805
0.192153
0.220424
0.252507
0.288035
0.328412
0.370859
0.414582
0.461636
0.506432
0.522928
0.488958
0.43022
0.409156
0.397517
0.361066
0.324241
0.316658
0.364621
0.391851
0.384772
4.08248e-14
4.63286e-14
5.48508e-14
7.61524e-12
1.11991e-08
2.17557e-06
7.82069e-05
0.000767068
0.00305152
0.00690919
0.0112675
0.0152084
0.0183446
0.0206359
0.0221975
0.0232138
0.0239082
0.0244712
0.0248368
0.0250933
0.0253146
0.025596
0.0260763
0.0269371
0.0281936
0.0308509
0.0359928
0.043687
0.0533647
0.0644836
0.0767486
0.090072
0.104418
0.119742
0.136168
0.154271
0.174995
0.199092
0.226452
0.256548
0.290141
0.323627
0.355743
0.388756
0.423576
0.452061
0.458693
0.433205
0.371365
0.27484
0.157617
0.105412
0.179511
0.244811
0.288219
0.299235
4.83964e-14
5.70574e-14
6.28461e-14
2.58087e-12
4.96314e-09
1.21624e-06
5.28152e-05
0.000596212
0.00260562
0.00624799
0.0105403
0.0145212
0.0177439
0.0201304
0.021775
0.0228487
0.0235633
0.0241419
0.0245168
0.0247663
0.0249595
0.0251883
0.0255746
0.0262889
0.0273899
0.0293997
0.0335592
0.0402449
0.048992
0.0592221
0.0705529
0.0828287
0.096002
0.109998
0.124778
0.140611
0.158164
0.178173
0.200826
0.225654
0.253255
0.279643
0.30345
0.326306
0.348676
0.370747
0.386187
0.393159
0.386078
0.361978
0.327136
0.288956
0.289757
0.270861
0.259935
0.256915
3.53672e-14
4.78395e-14
4.68104e-14
7.40339e-13
1.92531e-09
6.15011e-07
3.32121e-05
0.000441843
0.00215863
0.00554428
0.00974069
0.0137511
0.0170629
0.0195537
0.0212929
0.0224357
0.0231806
0.0237729
0.0241648
0.0244126
0.0245819
0.0247622
0.0250587
0.025619
0.0265841
0.0280797
0.0312617
0.0368422
0.0445742
0.0538598
0.0642231
0.0754257
0.0873995
0.100084
0.113351
0.127206
0.141988
0.158261
0.176429
0.196305
0.218331
0.238866
0.256982
0.273053
0.287449
0.301487
0.314891
0.324328
0.330309
0.329334
0.315505
0.297895
0.293824
0.282401
0.258565
0.241006
3.1134e-14
3.50992e-14
3.77986e-14
1.83001e-13
6.37916e-10
2.75794e-07
1.91534e-05
0.000308822
0.00172266
0.00480624
0.00886823
0.012892
0.0162925
0.0188958
0.0207415
0.0219665
0.0227575
0.0233581
0.0237782
0.0240301
0.0241813
0.0243188
0.0245341
0.024947
0.0257351
0.0269049
0.0291838
0.0335768
0.0401928
0.0484712
0.0578436
0.0679701
0.0787336
0.0900978
0.101939
0.114093
0.126596
0.139755
0.153921
0.169586
0.186048
0.201541
0.215598
0.227391
0.236687
0.244289
0.251819
0.258545
0.264638
0.270449
0.270717
0.262782
0.257519
0.246553
0.226712
0.20855
3.37999e-14
3.73524e-14
4.00251e-14
5.55054e-14
1.75228e-10
1.07036e-07
9.93751e-06
0.000200763
0.00131197
0.00404656
0.00792571
0.0119385
0.0154233
0.0181457
0.0201104
0.021432
0.0222861
0.0228942
0.0233516
0.0236148
0.0237566
0.0238573
0.0240023
0.0242849
0.0248468
0.0258274
0.02738
0.0305809
0.0359578
0.0431417
0.051497
0.0605651
0.0701451
0.0801958
0.0906427
0.101285
0.111946
0.122686
0.133798
0.145797
0.157488
0.168512
0.179002
0.187878
0.194203
0.198413
0.201467
0.204098
0.20661
0.209385
0.212274
0.211112
0.206829
0.199825
0.184369
0.169154
3.41643e-14
3.77906e-14
4.09888e-14
4.62715e-14
3.84889e-11
3.48868e-08
4.52894e-06
0.00011925
0.000941976
0.00328342
0.00692047
0.0108877
0.0144464
0.0172917
0.0193873
0.0208223
0.0217536
0.0223823
0.0228768
0.0231622
0.0233057
0.0233779
0.023462
0.0236329
0.0239912
0.0247217
0.0258632
0.0279932
0.0320245
0.0379882
0.0452738
0.0533028
0.0617611
0.0705548
0.0796422
0.0888688
0.0979921
0.106895
0.115825
0.124961
0.13314
0.140506
0.14765
0.153884
0.158173
0.160554
0.161489
0.16166
0.161393
0.160804
0.160336
0.159286
0.156076
0.153092
0.143685
0.132596
3.93589e-14
3.99998e-14
4.2509e-14
5.68293e-14
6.47757e-12
9.20139e-09
1.75935e-06
6.32478e-05
0.000627399
0.00254107
0.00586629
0.00974015
0.0133541
0.0163223
0.0185586
0.0201233
0.0211503
0.0218181
0.0223446
0.0226655
0.0228245
0.0228795
0.0229127
0.0229917
0.023183
0.0236187
0.0245025
0.0258667
0.0285941
0.0331864
0.0392935
0.0462735
0.0536787
0.0613189
0.0691349
0.0770276
0.0847921
0.0922517
0.0995187
0.10668
0.112603
0.117419
0.121894
0.125737
0.128284
0.129376
0.129238
0.128236
0.126717
0.124813
0.122661
0.120287
0.117587
0.114969
0.111004
0.103449
3.29798e-14
2.85787e-14
3.82465e-14
4.94583e-14
8.08229e-13
1.87602e-09
5.60903e-07
2.90735e-05
0.000379449
0.0018494
0.00478566
0.00850197
0.0121414
0.0152264
0.0176105
0.0193195
0.0204627
0.0211982
0.0217433
0.0221174
0.0223055
0.0223594
0.0223547
0.0223573
0.0224172
0.0226164
0.0231424
0.0241413
0.0258043
0.0289691
0.0337429
0.039598
0.0459837
0.0525834
0.0592677
0.0659526
0.0724946
0.078732
0.0846548
0.0904199
0.0949905
0.0982835
0.10106
0.103251
0.104475
0.104541
0.103696
0.102094
0.100043
0.0977275
0.0953113
0.09287
0.0905615
0.0880613
0.0862685
0.0820939
3.33857e-14
2.57556e-14
3.27854e-14
4.11907e-14
9.96377e-14
2.79516e-10
1.39929e-07
1.11495e-05
0.000202542
0.00124163
0.00371212
0.00718775
0.010807
0.0139943
0.016529
0.0183955
0.0196751
0.0205069
0.021072
0.0215065
0.0217371
0.0218108
0.0217864
0.0217289
0.0216848
0.0217069
0.0219162
0.0225419
0.023629
0.0255535
0.0288816
0.0334674
0.0387909
0.0444204
0.0501183
0.0557598
0.0612318
0.0664082
0.0712222
0.0758789
0.079591
0.0820241
0.083851
0.0851453
0.0856247
0.0852355
0.0840405
0.0821981
0.0799592
0.0775116
0.0751136
0.0728594
0.0708523
0.069078
0.0672425
0.0656549
3.62148e-14
3.59343e-14
3.46966e-14
4.2918e-14
5.88824e-14
2.84297e-11
2.57337e-08
3.39571e-06
9.18536e-05
0.000748794
0.0026916
0.00582452
0.00935697
0.0126193
0.0153011
0.0173346
0.0187706
0.0197214
0.0203366
0.020817
0.0211059
0.0212216
0.0212017
0.0211054
0.0209805
0.0208707
0.0208568
0.0210933
0.0217987
0.0229371
0.0249661
0.0281593
0.0322915
0.036931
0.0417343
0.0464906
0.0510631
0.0553437
0.0592568
0.0629724
0.0660599
0.0679854
0.069268
0.0701053
0.0702848
0.0698614
0.0687076
0.0669689
0.0648412
0.0624862
0.0601456
0.0579647
0.0560909
0.0545364
0.0532179
0.0518222
5.50553e-14
5.41719e-14
5.01427e-14
5.74665e-14
6.61531e-14
1.84196e-12
3.24004e-09
7.71074e-07
3.36571e-05
0.000391055
0.00178066
0.00445657
0.00780829
0.0111002
0.0139161
0.0161208
0.0177281
0.0188227
0.0195334
0.0200349
0.0204006
0.0205749
0.0205873
0.0204806
0.0203008
0.0200926
0.0199224
0.0198953
0.0201627
0.0208852
0.0220166
0.0239384
0.0267677
0.0303012
0.0341966
0.0381606
0.041986
0.0455377
0.0487455
0.0516703
0.0542491
0.055865
0.0568141
0.0573882
0.0574834
0.0570179
0.0561233
0.0546876
0.0528965
0.0508526
0.0487273
0.0466727
0.0448495
0.0433348
0.0421179
0.0411071
5.58639e-14
5.58628e-14
6.14442e-14
6.82588e-14
7.06095e-14
1.12347e-13
2.55296e-10
1.20503e-07
9.32583e-06
0.000168122
0.00103816
0.00314968
0.00619592
0.00944474
0.0123672
0.0147402
0.0165296
0.0177913
0.0186287
0.0191752
0.0196038
0.0198504
0.0199239
0.0198414
0.0196387
0.019363
0.0190804
0.0188791
0.0188565
0.019124
0.0197886
0.020825
0.0224694
0.0248073
0.0276857
0.0308328
0.0339859
0.036946
0.0395999
0.0419275
0.0440399
0.045473
0.0462297
0.0466519
0.0466915
0.0462859
0.0455499
0.0444392
0.0430246
0.04138
0.0396073
0.0378247
0.0361634
0.0347307
0.0335611
0.0326427
7.26874e-14
6.87181e-14
7.42762e-14
7.13653e-14
6.95209e-14
7.5004e-14
1.13831e-11
1.1736e-08
1.79238e-06
5.55468e-05
0.000507578
0.00199027
0.00458131
0.00767667
0.0106547
0.0131819
0.0151578
0.0166031
0.0175946
0.0182429
0.0186993
0.0190337
0.0191867
0.0191644
0.01898
0.0186723
0.018311
0.0179867
0.0177818
0.0177598
0.0179831
0.0185108
0.0193814
0.0206565
0.0224633
0.0246866
0.0271173
0.0295236
0.0317258
0.0336348
0.0353194
0.0366271
0.0372989
0.0376474
0.0376859
0.0373815
0.0367296
0.0359278
0.0348316
0.0335565
0.0321646
0.0307274
0.0293274
0.0280651
0.0269952
0.0261519
5.4241e-14
5.49144e-14
5.15343e-14
4.85138e-14
4.70755e-14
4.85388e-14
2.68058e-13
6.33082e-10
2.14109e-07
1.28592e-05
0.000193893
0.00107135
0.00306059
0.00584714
0.00879248
0.0114408
0.0135988
0.0152382
0.0164085
0.0171967
0.0177095
0.0181085
0.01835