/*--------------------------------*- C++ -*----------------------------------*\
| =========                 |                                                 |
| \\      /  F ield         | OpenFOAM: The Open Source CFD Toolbox           |
|  \\    /   O peration     | Version:  2406                                  |
|   \\  /    A nd           | Website:  www.openfoam.com                      |
|    \\/     M anipulation  |                                                 |
\*---------------------------------------------------------------------------*/
FoamFile
{
    version     2.0;
    format      ascii;
    arch        "LSB;label=32;scalar=64";
    class       volScalarField;
    location    "0.09";
    object      p;
}
// * * * * * * * * * * * * * * * * * * * * * * * * * * * * * * * * * * * * * //

dimensions      [1 -1 -2 0 0 0 0];

internalField   nonuniform List<scalar> 
14020
(
330011
330009
330008
330008
330009
330010
330012
330015
330020
330026
330031
330036
330041
330045
330047
330050
330053
330058
330062
330066
330069
330071
330071
330069
330069
330072
330076
330080
330081
330080
330077
330073
330073
330076
330083
330089
330091
330092
330091
330088
330086
330086
330087
330087
330085
330082
330079
330075
330070
330066
330063
330060
330059
330060
330061
330060
330059
330059
330062
330065
330066
330065
330065
330065
330063
330060
330057
330055
330053
330050
330049
330049
330048
330047
330046
330047
330047
330047
330046
330044
330041
330039
330039
330040
330042
330043
330043
330042
330041
330039
330037
330037
330038
330036
330033
330030
330026
330023
330022
330022
330025
330027
330029
330031
330033
330034
330033
330032
330033
330033
330030
330026
330024
330023
330021
330019
330018
330020
330021
330021
330020
330020
330018
330016
330015
330017
330019
330020
330020
330020
330020
330017
330014
330011
330011
330009
330008
330006
330006
330004
330003
330003
330005
330007
330008
330009
330010
330008
330001
329993
329991
329997
330007
330031
330068
330093
330025
329706
328997
327933
326652
325271
323850
322413
320966
319512
318053
316593
315132
313673
312216
310760
309307
307857
306410
304966
303525
302089
300658
299229
297804
296383
294968
293556
292138
290731
289357
287981
286606
285235
283870
282511
281163
279830
278511
277205
275917
274646
273397
272174
270979
269819
268696
267612
266570
265571
264617
263702
262828
261985
261125
260375
259626
258625
258048
257358
256648
255935
255224
254518
253814
253116
252421
251733
251051
250381
249721
249075
248424
247621
245801
330011
330009
330008
330008
330009
330010
330012
330015
330020
330026
330031
330036
330041
330045
330047
330050
330053
330058
330062
330066
330069
330071
330070
330069
330069
330072
330076
330080
330081
330080
330077
330073
330073
330076
330083
330089
330091
330092
330091
330088
330086
330086
330087
330087
330085
330082
330079
330075
330070
330066
330063
330060
330059
330060
330061
330060
330059
330059
330062
330065
330066
330065
330065
330065
330063
330060
330057
330055
330053
330050
330049
330049
330048
330047
330046
330047
330047
330047
330046
330044
330041
330039
330039
330040
330042
330043
330043
330042
330041
330039
330037
330037
330038
330036
330033
330030
330026
330023
330022
330022
330025
330027
330029
330031
330033
330034
330033
330032
330033
330033
330030
330026
330024
330023
330021
330019
330018
330020
330021
330021
330020
330020
330018
330016
330015
330017
330019
330020
330020
330020
330020
330017
330014
330011
330011
330009
330008
330006
330006
330004
330003
330003
330005
330007
330008
330009
330010
330008
330001
329993
329991
329996
330007
330031
330069
330093
330025
329705
328996
327933
326652
325271
323850
322413
320965
319512
318053
316593
315132
313674
312216
310760
309307
307857
306410
304966
303526
302090
300657
299228
297803
296383
294969
293556
292138
290730
289357
287982
286607
285237
283872
282513
281165
279832
278512
277205
275915
274644
273394
272170
270976
269817
268693
267610
266568
265570
264616
263702
262828
261986
261129
260381
259637
258637
258048
257358
256648
255935
255224
254518
253814
253116
252421
251733
251051
250381
249720
249075
248423
247621
245824
330011
330009
330008
330008
330009
330010
330012
330015
330020
330026
330031
330036
330041
330045
330047
330050
330053
330058
330062
330066
330069
330071
330070
330069
330069
330072
330076
330080
330081
330080
330077
330073
330073
330076
330083
330089
330091
330092
330091
330088
330086
330086
330087
330087
330085
330082
330079
330075
330070
330066
330063
330060
330059
330060
330061
330060
330059
330059
330062
330065
330066
330065
330065
330065
330063
330060
330057
330055
330053
330050
330049
330049
330048
330047
330046
330047
330047
330047
330046
330044
330041
330039
330039
330040
330042
330043
330043
330042
330041
330039
330037
330037
330037
330036
330033
330030
330026
330023
330022
330022
330025
330027
330029
330031
330033
330034
330034
330032
330033
330032
330030
330026
330024
330023
330021
330019
330018
330020
330021
330021
330020
330019
330018
330016
330015
330017
330019
330020
330020
330020
330020
330017
330014
330011
330011
330009
330008
330006
330006
330004
330003
330003
330005
330007
330008
330009
330010
330009
330001
329993
329990
329996
330007
330031
330069
330093
330025
329705
328996
327933
326652
325272
323851
322413
320965
319511
318053
316593
315133
313674
312215
310760
309307
307857
306411
304967
303526
302090
300657
299227
297803
296384
294969
293555
292137
290729
289357
287983
286609
285238
283872
282514
281167
279832
278510
277202
275912
274642
273393
272172
270978
269819
268694
267611
266571
265573
264619
263704
262831
261991
261135
260382
259630
258629
258045
257356
256647
255935
255224
254518
253814
253116
252421
251733
251051
250381
249720
249075
248422
247622
245854
330011
330009
330008
330008
330009
330010
330012
330015
330020
330026
330031
330036
330041
330045
330047
330050
330053
330058
330062
330066
330069
330071
330071
330069
330069
330072
330076
330080
330081
330080
330077
330073
330073
330076
330083
330089
330091
330092
330091
330088
330086
330086
330087
330087
330085
330082
330079
330075
330070
330066
330063
330060
330059
330060
330061
330060
330059
330059
330062
330065
330066
330065
330065
330065
330063
330060
330057
330055
330053
330050
330049
330049
330048
330047
330046
330047
330047
330047
330046
330044
330041
330039
330039
330040
330042
330043
330043
330042
330041
330039
330037
330037
330037
330036
330033
330030
330026
330023
330021
330022
330025
330027
330029
330030
330033
330034
330034
330033
330033
330032
330030
330026
330024
330023
330021
330019
330018
330020
330021
330021
330020
330019
330018
330017
330015
330017
330019
330020
330020
330021
330020
330017
330014
330011
330011
330008
330008
330006
330006
330004
330003
330003
330005
330007
330009
330009
330010
330009
330001
329992
329990
329996
330007
330032
330069
330093
330024
329705
328996
327933
326653
325272
323851
322413
320965
319510
318052
316593
315133
313673
312215
310759
309307
307858
306411
304967
303527
302090
300656
299226
297803
296384
294969
293555
292136
290729
289358
287985
286611
285240
283874
282517
281171
279835
278511
277203
275911
274639
273389
272168
270974
269817
268691
267610
266567
265568
264617
263704
262832
261989
261131
260379
259631
258629
258046
257357
256647
255935
255224
254518
253814
253116
252421
251733
251051
250381
249720
249075
248421
247623
245880
330011
330009
330008
330008
330009
330010
330012
330015
330020
330026
330031
330036
330041
330045
330047
330050
330053
330058
330062
330066
330069
330071
330071
330069
330069
330072
330076
330080
330081
330080
330077
330073
330073
330076
330083
330089
330091
330092
330091
330088
330086
330086
330087
330087
330085
330082
330079
330075
330070
330066
330063
330060
330059
330060
330061
330060
330059
330059
330062
330065
330066
330066
330065
330065
330063
330060
330057
330055
330053
330050
330049
330049
330048
330047
330046
330047
330047
330047
330046
330044
330041
330039
330039
330040
330042
330043
330043
330042
330041
330039
330037
330037
330037
330036
330033
330030
330026
330023
330021
330022
330025
330027
330029
330030
330033
330034
330034
330033
330033
330032
330030
330026
330024
330023
330021
330019
330018
330020
330021
330021
330020
330019
330018
330017
330015
330017
330019
330020
330020
330021
330020
330017
330014
330011
330011
330008
330008
330006
330006
330004
330003
330002
330005
330007
330009
330009
330010
330009
330001
329992
329990
329997
330008
330032
330068
330093
330024
329704
328996
327934
326653
325273
323852
322413
320964
319509
318052
316594
315134
313673
312215
310759
309307
307859
306412
304968
303527
302089
300655
299225
297802
296384
294968
293556
292137
290728
289357
287985
286611
285241
283877
282520
281174
279836
278511
277201
275908
274636
273388
272169
270975
269819
268691
267611
266567
265574
264632
263728
262858
262013
261149
260392
259638
258630
258046
257357
256648
255935
255224
254518
253814
253116
252421
251733
251052
250381
249720
249074
248420
247622
245900
330011
330009
330008
330008
330009
330010
330012
330015
330020
330026
330031
330036
330041
330045
330047
330050
330053
330058
330062
330066
330069
330071
330071
330069
330069
330072
330076
330080
330081
330080
330077
330073
330073
330076
330083
330089
330091
330092
330091
330088
330086
330086
330087
330087
330085
330082
330079
330075
330070
330066
330063
330060
330059
330060
330061
330060
330059
330059
330062
330065
330066
330066
330065
330065
330063
330060
330057
330055
330053
330050
330049
330049
330048
330047
330046
330047
330047
330047
330046
330044
330041
330039
330039
330040
330042
330043
330043
330042
330041
330039
330037
330037
330037
330036
330033
330030
330026
330023
330021
330022
330025
330027
330029
330030
330033
330034
330034
330033
330033
330032
330030
330026
330024
330023
330021
330019
330018
330020
330021
330021
330020
330019
330018
330017
330015
330017
330018
330020
330020
330021
330019
330017
330014
330012
330011
330008
330008
330006
330007
330004
330002
330002
330005
330007
330009
330009
330010
330009
330001
329992
329989
329997
330008
330033
330068
330092
330024
329704
328995
327934
326654
325274
323852
322412
320963
319508
318052
316594
315134
313673
312214
310759
309308
307859
306413
304969
303528
302089
300653
299224
297801
296383
294968
293556
292138
290728
289357
287983
286611
285243
283881
282523
281177
279837
278512
277202
275910
274636
273380
272154
270966
269806
268679
267606
266562
265573
264629
263714
262840
261997
261136
260388
259643
258635
258047
257358
256649
255936
255224
254518
253814
253116
252421
251733
251052
250381
249721
249074
248420
247620
245914
330011
330009
330008
330008
330009
330010
330012
330015
330020
330026
330031
330036
330041
330045
330047
330050
330053
330058
330062
330066
330069
330071
330071
330069
330069
330072
330076
330080
330081
330080
330077
330073
330073
330076
330083
330088
330091
330092
330091
330088
330086
330086
330087
330087
330085
330082
330079
330075
330070
330066
330063
330060
330059
330060
330061
330060
330059
330059
330062
330065
330066
330066
330065
330065
330063
330060
330057
330055
330053
330050
330049
330049
330048
330047
330046
330047
330047
330047
330046
330044
330041
330039
330039
330040
330042
330043
330043
330042
330041
330039
330037
330037
330037
330036
330033
330030
330026
330023
330021
330022
330025
330027
330029
330030
330033
330034
330034
330033
330033
330032
330030
330026
330024
330023
330021
330019
330018
330020
330021
330021
330020
330019
330019
330017
330015
330017
330018
330020
330021
330021
330019
330017
330014
330012
330011
330008
330007
330007
330007
330004
330002
330002
330005
330007
330009
330009
330010
330009
330001
329992
329989
329997
330009
330033
330068
330092
330024
329704
328995
327934
326655
325274
323853
322412
320962
319507
318052
316595
315135
313673
312213
310759
309308
307860
306414
304970
303528
302088
300652
299223
297801
296381
294967
293557
292140
290728
289355
287980
286610
285246
283883
282524
281178
279839
278513
277207
275913
274633
273382
272155
270968
269800
268672
267609
266564
265578
264636
263724
262853
262008
261147
260394
259640
258632
258048
257358
256649
255935
255223
254518
253813
253115
252421
251733
251051
250381
249721
249074
248420
247619
245923
330011
330009
330008
330008
330009
330010
330012
330015
330020
330026
330031
330036
330041
330045
330047
330050
330053
330058
330063
330066
330069
330071
330071
330069
330069
330072
330076
330080
330081
330080
330077
330073
330073
330076
330083
330088
330091
330092
330091
330088
330086
330086
330087
330087
330085
330082
330079
330075
330070
330066
330063
330060
330059
330060
330061
330060
330059
330059
330062
330065
330066
330066
330065
330065
330063
330060
330057
330055
330053
330050
330049
330049
330048
330047
330046
330047
330047
330047
330046
330044
330041
330039
330039
330040
330042
330043
330043
330043
330041
330039
330037
330037
330037
330036
330033
330030
330026
330023
330021
330022
330025
330027
330029
330030
330033
330034
330034
330033
330033
330032
330030
330026
330024
330023
330021
330019
330018
330020
330021
330021
330020
330019
330019
330017
330015
330017
330018
330020
330021
330021
330019
330016
330014
330012
330011
330008
330007
330007
330007
330005
330002
330002
330005
330008
330009
330009
330010
330009
330001
329991
329989
329997
330009
330034
330068
330092
330023
329704
328995
327934
326655
325275
323853
322412
320961
319507
318052
316595
315135
313673
312213
310759
309309
307861
306415
304971
303528
302087
300651
299222
297800
296380
294966
293557
292142
290728
289353
287977
286611
285247
283881
282525
281180
279839
278512
277215
275920
274632
273381
272151
270975
269813
268666
267610
266560
265575
264639
263732
262863
262015
261146
260388
259631
258628
258049
257359
256649
255935
255224
254518
253813
253115
252420
251733
251051
250381
249721
249074
248419
247619
245928
330011
330009
330008
330008
330009
330010
330012
330015
330020
330026
330031
330036
330041
330045
330047
330050
330053
330058
330063
330066
330069
330071
330071
330069
330069
330072
330076
330080
330081
330080
330077
330073
330073
330076
330083
330088
330091
330092
330091
330088
330086
330086
330087
330087
330085
330082
330079
330075
330070
330066
330063
330060
330059
330060
330061
330060
330059
330059
330062
330065
330066
330066
330065
330065
330063
330060
330057
330055
330052
330050
330049
330049
330048
330047
330046
330047
330047
330047
330046
330044
330041
330039
330039
330040
330042
330043
330043
330043
330041
330039
330037
330037
330037
330036
330033
330030
330026
330023
330021
330022
330025
330028
330029
330030
330033
330034
330034
330033
330033
330032
330030
330026
330024
330023
330021
330019
330018
330020
330021
330021
330020
330019
330019
330017
330015
330017
330018
330020
330021
330021
330019
330016
330014
330012
330011
330008
330007
330007
330007
330005
330002
330002
330005
330008
330009
330009
330010
330009
330001
329991
329989
329997
330009
330034
330068
330092
330023
329704
328995
327934
326655
325275
323853
322412
320961
319507
318052
316595
315135
313673
312212
310759
309309
307861
306416
304971
303528
302087
300651
299222
297800
296379
294964
293559
292143
290729
289350
287973
286622
285252
283883
282535
281184
279857
278533
277222
275918
274627
273378
272145
270977
269833
268657
267611
266557
265568
264633
263730
262862
262012
261145
260383
259622
258625
258048
257358
256648
255933
255221
254515
253812
253114
252419
251732
251051
250380
249721
249073
248419
247619
245930
102946
102946
102946
102949
102998
103236
103746
104400
105021
105513
105856
106065
106169
106204
106200
106166
106108
106036
105963
105906
105884
105956
106314
107117
108325
109802
111432
113191
115106
117150
119225
121314
123594
126332
129577
132970
136016
138360
139707
139257
135709
127814
116183
101185
86625.2
76163
65387.5
58367.9
57144.7
59375.1
65591.1
72616.9
79739.2
86740.8
93133.7
98810.7
103375
106933
109180
110411
111112
111722
112123
112500
112309
111707
110431
109357
108318
107319
106194
105046
103973
102950
101934
100848
99685.2
99599
99776.3
99609.5
100577
101426
102143
102624
103111
103234
103240
103271
103117
102988
102685
102401
102312
102442
102647
102980
103238
103308
103742
105347
102946
102946
102946
102946
102949
102991
103213
103706
104352
104975
105474
105825
106041
106151
106189
106187
106154
106096
106024
105948
105886
105858
105909
106211
106943
108082
109501
111080
112776
114606
116555
118547
120555
122709
125236
128204
131317
134115
136219
137298
136283
132117
123643
111893
96129.7
82047.9
74359.1
65795.7
57887.3
56155.7
57519.1
63428.9
71112.8
78647.9
86145.1
93502.2
99315.7
103846
107044
109203
110566
111375
111958
112124
112020
111635
110743
109930
109008
107928
106891
105838
104880
104002
103217
102402
101649
100765
100310
100526
100436
100785
101171
101617
102022
102352
102626
102790
102917
103146
103243
103230
103242
103203
103218
103177
103060
103174
103343
103604
102946
102946
102946
102946
102948
102985
103188
103661
104299
104923
105429
105789
106013
106130
106172
106172
106141
106083
106010
105931
105864
105830
105862
106107
106760
107821
109172
110693
112325
114070
115919
117812
119721
121736
124044
126722
129531
132039
133851
134620
133082
128409
119900
108392
91974.6
79005.6
72386.9
65379.7
57609.6
55188.3
56272.2
60850
69191.3
77038.6
85128.3
93025.1
98665.7
103558
107073
109351
110589
111140
111432
111458
111211
110673
109929
109148
108480
107820
107090
106189
105197
104216
103391
102659
102038
101364
100815
100843
100874
100879
101103
101379
101735
102103
102479
102799
103035
103235
103439
102946
102946
102946
102946
102946
102948
102979
103162
103613
104239
104864
105378
105748
105981
106105
106152
106155
106126
106069
105995
105914
105842
105801
105815
106005
106572
107544
108817
110272
111836
113497
115244
117029
118821
120683
122763
125143
127633
129828
131323
131803
129945
124955
116745
105391
89396.2
77263.6
71030.7
64151.1
56421.5
53037.1
54295.2
58348.3
67010.9
75360.4
83648.7
91489.7
97860
102910
102946
102946
102946
102946
102946
102947
102972
103136
103560
104173
104798
105321
105701
105945
106077
106129
106135
106108
106053
105979
105895
105818
105769
105768
105905
106380
107254
108439
109818
111310
112887
114533
116204
117868
119562
121406
123480
125642
127516
128690
128927
127036
122030
114314
103211
87903.1
76211.8
69279.8
62386.8
54964.4
50356.6
51482.9
55527.2
64540.6
73827.4
82790.7
90936.3
102946
102946
102946
102946
102946
102947
102967
103109
103504
104100
104724
105255
105647
105903
106045
106104
106113
106089
106036
105961
105875
105793
105736
105721
105812
106190
106955
108041
109335
110748
112240
113785
115343
116875
118397
119997
121758
123586
125153
126056
126102
124219
119554
112296
102787
88419.2
76627.8
68722
61528.2
53972.2
48549.6
48550.8
52875.9
61774
71884.7
81269.4
102946
102946
102946
102946
102946
102947
102962
103082
103444
104019
104641
105180
105586
105855
106008
106075
106088
106067
106017
105942
105855
105768
105701
105674
105726
106006
106653
107629
108827
110154
111556
113002
114451
115856
117209
118569
120014
121504
122780
123468
123366
121528
117234
110734
102138
91119.2
79520.4
70170.9
61688.6
53700.7
48723.7
48562.9
53122.6
62067.1
71994.4
81182.4
102946
102946
102946
102946
102946
102946
102957
103056
103382
103932
104549
105096
105515
105799
105965
106041
106060
106043
105995
105922
105833
105742
105666
105627
105647
105835
106355
107210
108301
109533
110840
112186
113528
114816
116018
117158
118301
119450
120437
120953
120765
119037
115241
109722
102388
93325.7
83780.2
75312.9
66992.9
59468
54836
53884.4
57317.1
65155.7
73795.8
81797.9
102946
102946
102946
102946
102946
102946
102954
103031
103319
103838
104446
105001
105435
105735
105916
106003
106028
106015
105972
105900
105811
105716
105632
105579
105573
105683
106070
106790
107765
108894
110102
111342
112577
113758
114834
115791
116668
117494
118186
118549
118306
116764
113568
109011
103053
95893.9
87809.2
80094.5
73564
68030.8
63889.4
62040.4
63319.7
68849.2
76185
82778.4
102946
102946
102946
102946
102946
102946
102951
103009
103255
103738
104333
104894
105343
105662
105859
105958
105991
105984
105945
105876
105788
105690
105598
105530
105504
105554
105809
106381
107228
108246
109350
110483
111608
112685
113657
114478
115150
115700
116112
116314
115987
114643
112134
108467
103652
98027.7
91853.1
85578.7
79812.6
74922.7
72046
71285.8
71913
74923.1
80035.9
84883.2
102946
102946
102946
102946
102946
102946
102949
102990
103192
103633
104210
104774
105239
105576
105792
105907
105949
105948
105915
105851
105764
105664
105566
105484
105438
105444
105583
105997
106700
107599
108596
109621
110635
111606
112484
113210
113748
114104
114298
114315
113866
112692
110793
107973
104172
99718.9
95008.5
90211.7
85800.9
82208.2
79673.3
78511.2
78660
80341.5
83608
86914.8
102946
102946
102946
102946
102946
102946
102947
102975
103134
103524
104076
104641
105120
105478
105715
105847
105901
105908
105881
105823
105738
105639
105536
105441
105373
105348
105403
105657
106197
106964
107849
108769
109674
110538
111324
111976
112437
112685
112763
112628
112050
110981
109500
107399
104505
101067
97419.6
93782.5
90411.9
87607.4
85605.6
84624.9
84492.1
85277.4
87184.3
89328
102946
102946
102946
102946
102946
102946
102947
102963
103081
103415
103933
104493
104986
105365
105624
105776
105845
105861
105842
105791
105712
105613
105507
105403
105314
105261
105260
105379
105743
106357
107121
107937
108741
109501
110194
110777
111191
111399
111436
111241
110619
109609
108367
106762
104612
102033
99250
96481.6
93909.4
91725.4
90115.8
89175.9
88855
89118.1
90156.2
91515.5
102946
102946
102946
102946
102946
102946
102946
102955
103036
103309
103783
104332
104835
105235
105519
105694
105780
105807
105797
105756
105683
105587
105480
105369
105263
105179
105141
105172
105364
105801
106428
107135
107844
108512
109117
109630
110007
110204
110243
110070
109508
108594
107517
106225
104597
102668
100577
98472.8
96498.2
94794.9
93469.1
92587.5
92162.5
92072.3
92460.9
93301.7
102946
102946
102946
102946
102946
102946
102946
102950
103000
103211
103629
104157
104666
105087
105396
105596
105704
105745
105745
105714
105650
105561
105454
105339
105222
105113
105037
105014
105081
105333
105794
106379
106993
107579
108108
108557
108895
109088
109141
109026
108588
107825
106924
105880
104616
103155
101578
99977.2
98456.1
97106.9
96004.9
95197.3
94694.6
94468.5
94485
94866.7
102946
102946
102946
102946
102946
102946
102946
102948
102975
103124
103476
103970
104480
104919
105253
105481
105614
105673
105685
105664
105613
105532
105429
105312
105188
105062
104952
104886
104881
104980
105258
105693
106201
106708
107172
107567
107870
108055
108121
108063
107762
107170
106455
105641
104676
103581
102396
101184
100014
98946
98032.4
97306.8
96783.3
96461.9
96313.3
96371.8
102946
102946
102946
102946
102946
102946
102946
102946
102959
103053
103331
103777
104276
104729
105089
105346
105507
105588
105614
105605
105568
105499
105403
105288
105160
105024
104892
104786
104731
104740
104853
105118
105493
105910
106313
106663
106938
107116
107190
107175
106990
106559
106013
105399
104684
103880
103015
102119
101237
100408
99668.1
99038
98532.4
98158.1
97916.7
97801.2
102946
102946
102946
102946
102946
102946
102946
102946
102951
103002
103201
103582
104057
104518
104902
105189
105379
105487
105531
105537
105512
105458
105374
105266
105138
104997
104852
104719
104619
104572
104585
104689
104911
105212
105540
105847
106098
106272
106357
106369
106270
105979
105573
105117
104592
104002
103384
102737
102089
101467
100889
100372
99923.8
99553.3
99266.7
99067.8
102946
102946
102946
102946
102946
102946
102946
102946
102947
102970
103095
103396
103829
104287
104690
105006
105229
105366
105435
105455
105445
105408
105339
105242
105120
104978
104827
104679
104550
104456
104409
104415
104491
104656
104881
105127
105350
105520
105617
105648
105608
105434
105144
104810
104426
103994
103539
103075
102605
102144
101707
101301
100931
100604
100324
100100
102946
102946
102946
102946
102946
102946
102946
102946
102946
102954
103019
103231
103600
104038
104453
104796
105051
105222
105318
105359
105364
105343
105293
105213
105102
104965
104813
104658
104515
104392
104299
104244
104233
104274
104378
104533
104706
104860
104966
105013
105011
104927
104732
104495
104222
103909
103569
103229
102885
102545
102216
101905
101612
101342
101096
100882
102946
102946
102946
102946
102946
102946
102946
102946
102946
102948
102974
103099
103383
103779
104193
104558
104845
105050
105179
105246
105268
105262
105232
105172
105080
104955
104807
104650
104500
104364
104247
104153
104084
104051
104057
104106
104199
104309
104406
104466
104485
104458
104349
104186
103998
103776
103531
103276
103024
102771
102524
102288
102061
101845
101642
101453
102946
102946
102946
102946
102946
102946
102946
102946
102946
102946
102954
103011
103198
103524
103916
104293
104609
104848
105011
105109
105155
105166
105153
105115
105047
104942
104805
104651
104498
104356
104229
104117
104020
103941
103884
103860
103869
103906
103961
104011
104037
104039
103996
103895
103772
103622
103449
103262
103072
102885
102698
102518
102343
102175
102013
101858
102946
102946
102946
102946
102946
102946
102946
102946
102946
102946
102947
102966
103062
103294
103634
104004
104341
104613
104813
104945
105020
105051
105055
105037
104994
104917
104801
104658
104505
104359
104227
104109
104003
103906
103821
103751
103701
103675
103672
103682
103693
103695
103679
103629
103553
103456
103340
103209
103067
102923
102781
102642
102507
102376
102250
102128
102946
102946
102946
102946
102946
102946
102946
102946
102946
102946
102946
102950
102985
103114
103369
103703
104045
104345
104580
104748
104857
104916
104938
104938
104918
104871
104787
104664
104520
104373
104236
104113
104003
103904
103813
103729
103654
103593
103546
103513
103489
103468
103445
103410
103361
103297
103220
103131
103033
102929
102821
102712
102605
102500
102398
102299
102946
102946
102946
102946
102946
102946
102946
102946
102946
102946
102946
102946
102954
103004
103155
103415
103731
104044
104310
104516
104661
104753
104801
104818
104816
104796
104747
104660
104535
104395
104255
104128
104014
103913
103821
103737
103660
103590
103528
103475
103429
103388
103349
103309
103265
103213
103155
103090
103018
102940
102857
102771
102684
102595
102509
102424
102946
102946
102946
102946
102946
102946
102946
102946
102946
102946
102946
102946
102947
102958
103019
103176
103427
103721
104005
104245
104428
104556
104636
104678
104693
104691
104672
104625
104537
104416
104284
104153
104034
103929
103835
103751
103675
103606
103544
103488
103438
103393
103350
103307
103262
103213
103161
103105
103045
102981
102914
102844
102772
102699
102624
102549
102946
102946
102946
102946
102946
102946
102946
102946
102946
102946
102946
102946
102946
102947
102961
103025
103175
103406
103675
103934
104153
104320
104437
104510
104550
104564
104563
104548
104505
104422
104309
104188
104068
103956
103856
103768
103691
103622
103561
103507
103460
103417
103378
103339
103300
103260
103216
103169
103119
103067
103012
102955
102896
102835
102772
102707
102946
102946
102946
102946
102946
102946
102946
102946
102946
102946
102946
102946
102946
102946
102947
102961
103019
103153
103358
103599
103836
104039
104196
104307
104377
104417
104433
104435
104423
104387
104313
104213
104105
103998
103894
103798
103713
103639
103575
103521
103474
103434
103398
103367
103337
103308
103277
103244
103208
103170
103129
103085
103040
102992
102942
102889
102946
102946
102946
102946
102946
102946
102946
102946
102946
102946
102946
102946
102946
102946
102946
102947
102958
103005
103115
103288
103500
103716
103906
104057
104167
104238
104280
104300
104305
104298
104271
104209
104125
104033
103940
103848
103758
103674
103600
103536
103483
103440
103405
103375
103349
103326
103305
103284
103262
103238
103211
103183
103153
103120
103085
103048
102946
102946
102946
102946
102946
102946
102946
102946
102946
102946
102946
102946
102946
102946
102946
102946
102947
102954
102987
103068
103206
103386
103578
103757
103905
104016
104092
104140
104165
104175
104173
104155
104109
104041
103965
103887
103809
103731
103654
103581
103515
103458
103412
103375
103346
103323
103303
103286
103270
103254
103239
103223
103206
103186
103164
103141
102946
102946
102946
102946
102946
102946
102946
102946
102946
102946
102946
102946
102946
102946
102946
102946
102946
102946
102950
102970
103023
103123
103265
103430
103594
103739
103854
103938
103994
104028
104045
104048
104039
104009
103957
103898
103835
103771
103706
103641
103576
103513
103456
103405
103362
103327
103300
103279
103261
103247
103234
103222
103209
103197
103184
103170
102946
102946
102946
102946
102946
102946
102946
102946
102946
102946
102946
102946
102946
102946
102946
102946
102946
102946
102946
102948
102957
102987
103050
103152
103282
103425
103562
103680
103773
103840
103885
103911
103923
103922
103907
103873
103828
103779
103728
103676
103624
103571
103518
103467
103418
103374
103335
103301
103273
103250
103231
103216
103203
103191
103179
103168
102946
102946
102946
102946
102946
102946
102946
102946
102946
102946
102946
102946
102946
102946
102946
102946
102946
102946
102946
102946
102947
102950
102963
102997
103059
103150
103262
103382
103496
103595
103673
103731
103771
103794
103803
103800
103784
103755
103719
103679
103638
103597
103555
103513
103472
103432
103393
103356
103322
103292
103265
103241
103221
103204
103189
103176
102946
102946
102946
102946
102946
102946
102946
102946
102946
102946
102946
102946
102946
102946
102946
102946
102946
102946
102946
102946
102946
102946
102947
102951
102965
102996
103049
103124
103216
103314
103410
103494
103564
103617
103654
103677
103687
103685
103673
103652
103624
103593
103560
103528
103495
103463
103431
103400
103370
103341
103314
103288
103265
103244
103225
103208
102946
102946
102946
102946
102946
102946
102946
102946
102946
102946
102946
102946
102946
102946
102946
102946
102946
102946
102946
102946
102946
102946
102946
102946
102947
102951