/*--------------------------------*- C++ -*----------------------------------*\
| =========                 |                                                 |
| \\      /  F ield         | OpenFOAM: The Open Source CFD Toolbox           |
|  \\    /   O peration     | Version:  2406                                  |
|   \\  /    A nd           | Website:  www.openfoam.com                      |
|    \\/     M anipulation  |                                                 |
\*---------------------------------------------------------------------------*/
FoamFile
{
    version     2.0;
    format      ascii;
    arch        "LSB;label=32;scalar=64";
    class       volScalarField;
    location    "0.015";
    object      Ma;
}
// * * * * * * * * * * * * * * * * * * * * * * * * * * * * * * * * * * * * * //

dimensions      [0 0 0 0 0 0 0];

internalField   nonuniform List<scalar> 
83682
(
1.132
1.132
1.132
1.132
1.132
1.132
1.13195
1.1305
1.10462
1.03399
1.02046
1.02056
1.02066
1.0206
1.02043
1.02031
1.02025
1.02018
1.02007
1.01993
1.01979
1.01969
1.01959
1.01946
1.01934
1.01927
1.01921
1.01915
1.01909
1.01903
1.019
1.01899
1.01898
1.01896
1.01894
1.01892
1.0189
1.01887
1.01886
1.01886
1.01888
1.01891
1.01894
1.01896
1.01898
1.019
1.01902
1.01904
1.01906
1.01908
1.0191
1.01913
1.01915
1.01915
1.01914
1.01914
1.01914
1.01913
1.01913
1.01913
1.01913
1.01914
1.01914
1.01913
1.01911
1.0191
1.01909
1.01907
1.01906
1.01905
1.01905
1.01905
1.01905
1.01904
1.01904
1.01904
1.01903
1.01903
1.01903
1.01903
1.01904
1.01906
1.01906
1.01906
1.01907
1.01908
1.01908
1.01909
1.01909
1.0191
1.01912
1.01912
1.01911
1.0191
1.01909
1.01908
1.01905
1.01902
1.01896
1.01887
1.0187
1.01835
1.01769
1.01652
1.01446
1.01099
1.00537
0.996652
0.983809
0.965893
0.942332
0.913346
0.880264
0.845705
0.813539
0.787877
0.772028
0.766801
0.765562
0.765016
0.764936
0.764984
0.76517
0.765521
0.765988
0.766483
0.766983
0.767316
0.767347
0.767326
0.767238
0.767088
0.766898
0.7667
0.766559
0.766528
0.76654
0.76659
0.766679
0.766782
0.766826
0.766824
0.766802
0.766734
0.766626
0.766555
0.766542
0.76655
0.766588
0.766675
0.766797
0.766902
0.76693
0.766924
0.766895
0.766831
0.76673
0.76661
0.766529
0.766515
0.766523
0.766557
0.766623
0.766708
0.766779
0.766811
0.766812
0.766799
0.766761
0.766696
0.766632
0.766611
0.76661
0.766618
0.766645
0.766697
0.766751
0.766771
0.766762
0.766735
0.766782
0.767353
0.769903
0.773377
0.775299
0.77574
0.775201
0.773167
0.772462
0.771825
0.771197
0.770506
0.769733
0.768848
0.767822
0.766694
0.765579
0.76453
0.763711
0.763206
0.762656
0.761201
0.753414
0.709164
0.512798
0.128381
0.00326575
5.94491e-06
5.85422e-10
3.57968e-14
3.67479e-14
2.70393e-14
1.4289e-14
1.10821e-14
2.23206e-14
2.94694e-14
3.24676e-14
3.49503e-14
3.72678e-14
3.66484e-14
3.28704e-14
2.84806e-14
2.11417e-14
1.43369e-14
7.78851e-15
8.18217e-15
8.39371e-15
1.04823e-14
1.23744e-14
1.47872e-14
1.6942e-14
1.19272e-14
8.13311e-15
1.0626e-14
1.14469e-14
1.27216e-14
2.0476e-14
2.39605e-14
2.23049e-14
2.24283e-14
2.28246e-14
1.81011e-14
1.79006e-14
1.08731e-14
3.31283e-15
8.80944e-15
1.35075e-14
1.53547e-14
1.48556e-14
1.78305e-14
1.64969e-14
1.51212e-14
1.88615e-14
1.81113e-14
2.06745e-14
1.64149e-14
2.05866e-14
2.61586e-14
2.18076e-14
2.51614e-14
2.47605e-14
2.20167e-14
2.11608e-14
2.15675e-14
2.09324e-14
2.1866e-14
2.51075e-14
2.71582e-14
2.36774e-14
2.25757e-14
1.99062e-14
1.59008e-14
1.16676e-14
1.57247e-14
2.11729e-14
2.21032e-14
2.17613e-14
2.93138e-14
2.44456e-14
2.42196e-14
1.84876e-14
2.08958e-14
1.87244e-14
1.40246e-14
1.28385e-14
1.34978e-14
1.10087e-14
1.24734e-14
1.62784e-14
1.92243e-14
2.00459e-14
1.89215e-14
2.03007e-14
2.1684e-14
2.25294e-14
2.6098e-14
2.94753e-14
2.83845e-14
2.84624e-14
2.69911e-14
2.31874e-14
2.20526e-14
2.41991e-14
2.60575e-14
2.65975e-14
2.80924e-14
2.50929e-14
2.05454e-14
1.93375e-14
2.0023e-14
1.94039e-14
2.01234e-14
2.8089e-14
2.95525e-14
2.56008e-14
2.64142e-14
2.22513e-14
1.79441e-14
1.76421e-14
1.57928e-14
1.70349e-14
1.76725e-14
2.29849e-14
3.22608e-14
4.23667e-14
4.97695e-14
4.68663e-14
4.16454e-14
3.39202e-14
3.04745e-14
2.90644e-14
2.61364e-14
2.66597e-14
2.15665e-14
1.95372e-14
2.08607e-14
1.85483e-14
1.27551e-14
5.71044e-15
7.91724e-15
1.40444e-14
1.30619e-14
1.26072e-14
1.61153e-14
1.66765e-14
2.12481e-14
2.7168e-14
3.01939e-14
3.05232e-14
2.91312e-14
2.63837e-14
2.23187e-14
2.07243e-14
2.20574e-14
2.05093e-14
1.62628e-14
1.97846e-14
2.2922e-14
2.14421e-14
2.19572e-14
2.12731e-14
2.21472e-14
2.09587e-14
2.22045e-14
1.86753e-14
1.42444e-14
1.49805e-14
1.33092e-14
1.40431e-14
1.15768e-14
1.34981e-14
1.46574e-14
1.63771e-14
1.79271e-14
1.94404e-14
1.81062e-14
1.58054e-14
1.63906e-14
1.59659e-14
8.89431e-15
1.35789e-14
2.79279e-14
3.9516e-14
4.34256e-14
4.02122e-14
3.38518e-14
2.38301e-14
1.42867e-14
1.62791e-14
1.85337e-14
1.89902e-14
2.3136e-14
2.09044e-14
2.14706e-14
2.49432e-14
2.8376e-14
2.71817e-14
2.54777e-14
2.72275e-14
2.94618e-14
2.78159e-14
2.6246e-14
2.49761e-14
2.22303e-14
1.56439e-14
7.95406e-15
4.18253e-15
1.07572e-14
4.85741e-15
7.66536e-15
7.90011e-15
4.56158e-15
7.35851e-15
8.25173e-15
1.41834e-14
1.66726e-14
1.47886e-14
1.22095e-14
1.0798e-14
6.83477e-15
2.77791e-15
5.71812e-15
1.09966e-14
1.85344e-14
2.05808e-14
1.85789e-14
2.00752e-14
2.28275e-14
2.05939e-14
2.07585e-14
2.1624e-14
1.69439e-14
1.73562e-14
2.29726e-14
1.71905e-14
1.67923e-14
2.57097e-14
2.46663e-14
2.21645e-14
1.61807e-14
1.00938e-14
1.19558e-14
1.64501e-14
1.76208e-14
1.8539e-14
1.96609e-14
1.7006e-14
1.77176e-14
1.88007e-14
1.64747e-14
1.53089e-14
1.47369e-14
1.40773e-14
1.81952e-14
1.84865e-14
1.85452e-14
1.60871e-14
1.5053e-14
1.86578e-14
2.1102e-14
2.12768e-14
2.3188e-14
2.44123e-14
2.51816e-14
2.34682e-14
2.32896e-14
2.42343e-14
2.39086e-14
2.48543e-14
2.89254e-14
2.88765e-14
3.09018e-14
2.97732e-14
2.67564e-14
2.32938e-14
2.1168e-14
1.7616e-14
1.78227e-14
2.11765e-14
2.04826e-14
2.21198e-14
2.06933e-14
1.88109e-14
1.81075e-14
1.77037e-14
1.31874e-14
1.99942e-14
2.03535e-14
1.49755e-14
1.70354e-14
1.83182e-14
2.75987e-14
3.09699e-14
3.08228e-14
3.3635e-14
3.48091e-14
3.57147e-14
3.28036e-14
3.10096e-14
2.53279e-14
2.0215e-14
1.63406e-14
9.21042e-15
7.65743e-15
1.03614e-14
9.49998e-15
1.59954e-14
1.53817e-14
1.3753e-14
1.42541e-14
1.55965e-14
1.42787e-14
7.54843e-15
3.80505e-15
5.28427e-15
4.47006e-15
5.39348e-15
7.07943e-15
7.81664e-15
7.92638e-15
9.57667e-15
1.25702e-14
1.31253e-14
1.41966e-14
1.13488e-14
8.74489e-15
1.17525e-14
8.18468e-15
1.70123e-15
8.47871e-15
1.24614e-14
1.16357e-14
1.47103e-14
1.6866e-14
1.60429e-14
1.90414e-14
2.41191e-14
2.85555e-14
4.53796e-14
6.36694e-14
6.5851e-14
6.04976e-14
5.34854e-14
4.67707e-14
4.33693e-14
4.05545e-14
3.13745e-14
2.98446e-14
2.85691e-14
2.47371e-14
2.23988e-14
2.25268e-14
2.02842e-14
1.77371e-14
1.65414e-14
1.82668e-14
2.09704e-14
2.11164e-14
2.18438e-14
1.76794e-14
1.632e-14
1.63421e-14
1.9052e-14
1.96392e-14
1.92572e-14
1.7804e-14
1.9434e-14
2.27923e-14
2.23144e-14
2.30198e-14
2.53637e-14
2.25554e-14
1.94785e-14
1.58201e-14
1.43082e-14
1.77949e-14
1.76284e-14
2.01969e-14
2.10373e-14
2.03845e-14
1.86271e-14
1.92126e-14
1.76786e-14
1.5971e-14
1.40706e-14
1.57667e-14
1.98537e-14
2.36079e-14
2.68084e-14
3.18585e-14
3.90103e-14
3.50085e-14
3.81546e-14
3.82789e-14
3.80053e-14
3.58959e-14
3.61506e-14
4.03551e-14
4.09275e-14
4.32737e-14
4.41685e-14
4.45349e-14
3.84044e-14
3.27609e-14
3.06608e-14
3.43795e-14
3.49462e-14
3.24432e-14
2.9937e-14
2.84117e-14
2.9055e-14
2.93464e-14
2.78001e-14
2.53474e-14
2.066e-14
9.47996e-15
9.84345e-15
9.87593e-15
6.8481e-15
4.88799e-15
5.68061e-15
5.64923e-15
8.15165e-15
9.88573e-15
1.58145e-14
2.08305e-14
2.26312e-14
2.42911e-14
2.57059e-14
2.67409e-14
2.43652e-14
1.79607e-14
1.70783e-14
1.70551e-14
1.94304e-14
2.30303e-14
2.78525e-14
3.2304e-14
3.5378e-14
3.8643e-14
3.83564e-14
3.98479e-14
3.97437e-14
3.27929e-14
2.97605e-14
3.42821e-14
4.02218e-14
3.61041e-14
3.72288e-14
3.94951e-14
3.89274e-14
3.40393e-14
2.95938e-14
3.23645e-14
2.93058e-14
2.33964e-14
1.95778e-14
1.61244e-14
2.04697e-14
2.56135e-14
2.40447e-14
2.43068e-14
2.28211e-14
2.14137e-14
1.86361e-14
1.25957e-14
7.35384e-15
9.08747e-15
8.84566e-15
1.11513e-14
1.71081e-14
2.91345e-14
3.92815e-14
3.95061e-14
3.52603e-14
3.18148e-14
2.93888e-14
2.64322e-14
2.10349e-14
2.26716e-14
1.8698e-14
2.01058e-14
2.31765e-14
2.55737e-14
2.6163e-14
2.53362e-14
2.37733e-14
2.44196e-14
2.33965e-14
2.67051e-14
2.49901e-14
2.26722e-14
2.63329e-14
2.5276e-14
1.85594e-14
1.132
1.132
1.132
1.132
1.132
1.132
1.13195
1.1305
1.10462
1.03399
1.02046
1.02056
1.02066
1.0206
1.02043
1.02031
1.02025
1.02018
1.02007
1.01993
1.01979
1.01969
1.01959
1.01946
1.01934
1.01927
1.01921
1.01915
1.01909
1.01903
1.019
1.01899
1.01898
1.01896
1.01894
1.01892
1.0189
1.01887
1.01886
1.01886
1.01888
1.01891
1.01894
1.01896
1.01898
1.019
1.01902
1.01904
1.01906
1.01908
1.0191
1.01913
1.01915
1.01915
1.01914
1.01914
1.01914
1.01913
1.01913
1.01913
1.01913
1.01914
1.01914
1.01913
1.01911
1.0191
1.01909
1.01907
1.01906
1.01905
1.01905
1.01905
1.01905
1.01904
1.01904
1.01904
1.01903
1.01903
1.01903
1.01903
1.01904
1.01906
1.01906
1.01906
1.01907
1.01908
1.01908
1.01909
1.01909
1.0191
1.01912
1.01912
1.01911
1.0191
1.01909
1.01908
1.01905
1.01902
1.01896
1.01887
1.0187
1.01835
1.01769
1.01652
1.01446
1.01099
1.00537
0.996652
0.983809
0.965893
0.942332
0.913346
0.880264
0.845705
0.813539
0.787877
0.772028
0.766801
0.765562
0.765016
0.764936
0.764984
0.76517
0.765521
0.765988
0.766483
0.766983
0.767316
0.767347
0.767326
0.767238
0.767088
0.766898
0.7667
0.766559
0.766528
0.76654
0.76659
0.766679
0.766782
0.766826
0.766824
0.766802
0.766734
0.766626
0.766555
0.766542
0.76655
0.766588
0.766675
0.766797
0.766902
0.76693
0.766924
0.766895
0.766831
0.76673
0.76661
0.766529
0.766515
0.766523
0.766557
0.766623
0.766708
0.766779
0.766811
0.766812
0.766799
0.766761
0.766696
0.766632
0.766611
0.76661
0.766618
0.766645
0.766697
0.766751
0.766772
0.766764
0.766736
0.766761
0.767167
0.769353
0.77273
0.774892
0.77539
0.774972
0.773413
0.772667
0.772034
0.771471
0.770865
0.770175
0.769322
0.768249
0.767016
0.765759
0.764562
0.763623
0.763132
0.762635
0.761309
0.753688
0.709517
0.513316
0.128814
0.00328973
6.01704e-06
5.95754e-10
3.52191e-14
3.47989e-14
2.71473e-14
1.45768e-14
9.76557e-15
1.93845e-14
2.56165e-14
3.22202e-14
3.43732e-14
3.67892e-14
3.67805e-14
3.36395e-14
2.95536e-14
2.14827e-14
1.46384e-14
8.14267e-15
9.0013e-15
7.02391e-15
9.93738e-15
9.55604e-15
1.1961e-14
1.32383e-14
9.73279e-15
1.22153e-14
1.40831e-14
1.4612e-14
1.76354e-14
2.27748e-14
2.29986e-14
2.38385e-14
2.51429e-14
2.22084e-14
1.87494e-14
1.50606e-14
7.81212e-15
2.10717e-15
8.99511e-15
1.17136e-14
1.52005e-14
1.54633e-14
1.64994e-14
1.7983e-14
1.66751e-14
1.91642e-14
1.6478e-14
1.86462e-14
1.78857e-14
2.01491e-14
2.39944e-14
2.0746e-14
2.37965e-14
2.50374e-14
2.48084e-14
2.23791e-14
2.24188e-14
2.28397e-14
2.34314e-14
2.54074e-14
2.72325e-14
2.46634e-14
2.01241e-14
2.00811e-14
1.67273e-14
1.10331e-14
1.47618e-14
1.95877e-14
2.05425e-14
2.07685e-14
2.24035e-14
2.21074e-14
2.17269e-14
1.85939e-14
2.29124e-14
1.98866e-14
1.73043e-14
1.65232e-14
1.27741e-14
1.1913e-14
1.33932e-14
1.48399e-14
1.87739e-14
2.07722e-14
2.1272e-14
2.10464e-14
2.21614e-14
2.36693e-14
2.83523e-14
2.97274e-14
2.91295e-14
2.91315e-14
2.90465e-14
2.52165e-14
2.3531e-14
2.38897e-14
2.57637e-14
2.62129e-14
2.79719e-14
2.61101e-14
2.33905e-14
2.30295e-14
2.26161e-14
2.07585e-14
1.96361e-14
2.59219e-14
2.79804e-14
2.4982e-14
2.64437e-14
2.62893e-14
2.16565e-14
1.88806e-14
1.84447e-14
2.01637e-14
2.10892e-14
2.52607e-14
3.31934e-14
4.01829e-14
4.74468e-14
4.71148e-14
4.09404e-14
3.3903e-14
3.24498e-14
2.88939e-14
2.71965e-14
2.78879e-14
2.27738e-14
2.28857e-14
2.20298e-14
1.85024e-14
1.46415e-14
1.07587e-14
1.0514e-14
1.6661e-14
1.5829e-14
1.54541e-14
1.88127e-14
2.17236e-14
2.32056e-14
2.6646e-14
2.96154e-14
3.13506e-14
3.10143e-14
2.68495e-14
2.39686e-14
2.20424e-14
2.3095e-14
2.1724e-14
1.98891e-14
2.36681e-14
2.30854e-14
2.2069e-14
2.22733e-14
2.10875e-14
2.41071e-14
2.54189e-14
2.39808e-14
1.89069e-14
1.56535e-14
1.57811e-14
1.58613e-14
1.79564e-14
1.54865e-14
1.62503e-14
1.8333e-14
1.92553e-14
1.99591e-14
2.10429e-14
1.77808e-14
1.65932e-14
1.79079e-14
1.55047e-14
1.20135e-14
1.73305e-14
2.8867e-14
3.83071e-14
4.36328e-14
4.02289e-14
3.18638e-14
2.12672e-14
1.47271e-14
1.61362e-14
1.70949e-14
1.63904e-14
2.02296e-14
1.93098e-14
2.11958e-14
2.26685e-14
2.54431e-14
2.56629e-14
2.49208e-14
2.55323e-14
2.63484e-14
2.64427e-14
2.68976e-14
2.58767e-14
2.18953e-14
1.37161e-14
7.48489e-15
5.89544e-15
8.70707e-15
9.52101e-15
9.30966e-15
8.64252e-15
7.21084e-15
9.10923e-15
1.04908e-14
1.40288e-14
1.88314e-14
1.6789e-14
1.29062e-14
1.19781e-14
7.55241e-15
6.63091e-15
7.41871e-15
1.14453e-14
1.44364e-14
1.90317e-14
2.11749e-14
2.33908e-14
2.44673e-14
2.4825e-14
2.21198e-14
2.2654e-14
1.96248e-14
1.72108e-14
2.12489e-14
2.25472e-14
1.90036e-14
2.5592e-14
2.74364e-14
2.49328e-14
1.84615e-14
1.40625e-14
1.64656e-14
1.99999e-14
1.90267e-14
2.14407e-14
2.04371e-14
1.88676e-14
1.8953e-14
1.82466e-14
1.74369e-14
1.71139e-14
1.72946e-14
1.55048e-14
1.78273e-14
1.87716e-14
1.91667e-14
1.69717e-14
1.6326e-14
1.97504e-14
2.25995e-14
2.35608e-14
2.44772e-14
2.56135e-14
2.69286e-14
2.67344e-14
2.57408e-14
2.74152e-14
2.60391e-14
2.7169e-14
2.94991e-14
2.89111e-14
3.08776e-14
2.78369e-14
2.66841e-14
2.50184e-14
2.29977e-14
1.92258e-14
1.75962e-14
1.96303e-14
2.18024e-14
2.2351e-14
1.95826e-14
1.82633e-14
1.94655e-14
1.75018e-14
1.01158e-14
1.20829e-14
1.40038e-14
1.66986e-14
1.86851e-14
2.38577e-14
2.79928e-14
3.14486e-14
3.3352e-14
3.38426e-14
3.48659e-14
3.43809e-14
3.37857e-14
3.07257e-14
2.46451e-14
1.99471e-14
1.78758e-14
1.00833e-14
1.00631e-14
1.347e-14
1.15598e-14
1.38613e-14
1.42018e-14
1.50778e-14
1.36368e-14
1.36089e-14
9.76303e-15
5.18931e-15
5.28806e-15
6.48534e-15
6.11804e-15
6.83491e-15
7.12907e-15
7.63698e-15
1.00356e-14
1.18903e-14
1.44711e-14
1.439e-14
1.38893e-14
1.10877e-14
1.16293e-14
1.21492e-14
6.60044e-15
1.496e-15
8.49975e-15
1.20585e-14
1.31818e-14
1.73153e-14
2.07678e-14
1.9635e-14
2.07305e-14
2.49563e-14
2.89582e-14
4.15266e-14
5.39127e-14
5.88702e-14
5.50256e-14
5.03539e-14
4.51787e-14
4.31284e-14
4.10121e-14
3.01909e-14
2.87075e-14
2.90913e-14
2.65045e-14
2.51185e-14
2.38495e-14
2.11439e-14
1.75392e-14
1.80528e-14
1.61425e-14
2.11229e-14
2.33992e-14
2.3572e-14
1.93152e-14
1.85514e-14
1.97005e-14
2.13168e-14
2.28822e-14
2.27693e-14
2.06961e-14
2.19129e-14
2.30974e-14
2.40819e-14
2.40489e-14
2.2239e-14
1.86451e-14
1.85946e-14
1.68862e-14
1.71592e-14
1.90117e-14
2.05678e-14
2.27573e-14
2.19627e-14
2.24492e-14
2.09025e-14
2.07311e-14
1.76366e-14
1.74538e-14
1.49281e-14
1.59596e-14
2.08051e-14
2.31017e-14
2.69471e-14
3.29705e-14
3.72025e-14
3.45824e-14
3.57465e-14
3.79718e-14
3.72827e-14
3.70379e-14
3.59402e-14
3.9587e-14
4.39328e-14
4.44281e-14
4.4149e-14
3.91825e-14
3.28369e-14
3.16457e-14
3.20037e-14
3.19047e-14
3.39395e-14
3.31744e-14
2.97909e-14
2.79493e-14
2.79726e-14
2.73088e-14
2.54607e-14
2.33448e-14
1.83034e-14
1.40918e-14
1.26106e-14
9.80731e-15
7.22591e-15
7.3465e-15
9.44502e-15
9.3291e-15
1.24838e-14
1.42365e-14
1.87008e-14
2.44561e-14
2.39315e-14
2.35252e-14
2.47307e-14
2.41015e-14
2.14035e-14
1.84846e-14
1.83101e-14
1.86546e-14
2.17618e-14
2.37637e-14
2.78289e-14
3.15039e-14
3.29999e-14
3.62508e-14
3.92928e-14
4.23544e-14
4.19689e-14
3.64695e-14
3.15345e-14
3.56894e-14
4.08954e-14
3.70922e-14
3.93454e-14
4.0285e-14
4.10798e-14
3.62773e-14
3.14451e-14
3.31855e-14
2.86306e-14
2.24557e-14
2.19601e-14
2.17269e-14
2.42603e-14
2.52598e-14
2.22338e-14
2.47453e-14
2.48809e-14
2.23115e-14
1.93338e-14
1.39886e-14
1.08439e-14
1.30128e-14
1.29155e-14
1.3516e-14
1.65722e-14
2.66229e-14
3.32499e-14
3.67236e-14
3.49513e-14
3.21333e-14
2.85996e-14
2.58576e-14
2.31586e-14
2.27977e-14
2.02788e-14
2.07389e-14
2.34806e-14
2.58399e-14
2.56135e-14
2.58045e-14
2.49681e-14
2.5907e-14
2.50319e-14
2.68416e-14
2.85593e-14
2.46501e-14
2.65845e-14
2.58435e-14
1.95943e-14
1.132
1.132
1.132
1.132
1.132
1.132
1.13195
1.1305
1.10462
1.03399
1.02046
1.02056
1.02066
1.0206
1.02043
1.02031
1.02025
1.02018
1.02007
1.01993
1.01979
1.01969
1.01959
1.01946
1.01934
1.01927
1.01921
1.01915
1.01909
1.01903
1.019
1.01899
1.01898
1.01896
1.01894
1.01892
1.0189
1.01887
1.01886
1.01886
1.01888
1.01891
1.01894
1.01896
1.01898
1.019
1.01902
1.01904
1.01906
1.01908
1.0191
1.01913
1.01915
1.01915
1.01914
1.01914
1.01914
1.01913
1.01913
1.01913
1.01913
1.01914
1.01914
1.01913
1.01911
1.0191
1.01909
1.01907
1.01906
1.01905
1.01905
1.01905
1.01905
1.01904
1.01904
1.01904
1.01903
1.01903
1.01903
1.01903
1.01904
1.01906
1.01906
1.01906
1.01907
1.01908
1.01908
1.01909
1.01909
1.0191
1.01912
1.01912
1.01911
1.0191
1.01909
1.01908
1.01905
1.01902
1.01896
1.01887
1.0187
1.01835
1.01769
1.01652
1.01446
1.01099
1.00537
0.996652
0.983809
0.965893
0.942332
0.913346
0.880264
0.845705
0.813539
0.787877
0.772028
0.766801
0.765562
0.765016
0.764936
0.764984
0.76517
0.765521
0.765988
0.766483
0.766983
0.767316
0.767347
0.767326
0.767238
0.767088
0.766898
0.7667
0.766559
0.766528
0.76654
0.76659
0.766679
0.766782
0.766826
0.766824
0.766802
0.766734
0.766626
0.766555
0.766542
0.76655
0.766588
0.766675
0.766797
0.766902
0.76693
0.766924
0.766895
0.766831
0.76673
0.76661
0.766529
0.766515
0.766523
0.766557
0.766623
0.766708
0.766779
0.766811
0.766812
0.766799
0.766761
0.766696
0.766632
0.766611
0.76661
0.766618
0.766645
0.766697
0.766751
0.766772
0.766766
0.766741
0.76674
0.766997
0.768755
0.772024
0.774546
0.7752
0.774945
0.773841
0.773176
0.772646
0.772249
0.771819
0.771315
0.770616
0.769641
0.768406
0.767018
0.765547
0.764232
0.763374
0.762702
0.76127
0.753543
0.709292
0.513361
0.129185
0.00331794
6.11406e-06
6.1107e-10
2.81011e-14
2.97068e-14
2.49952e-14
1.27706e-14
7.36861e-15
1.52233e-14
2.10283e-14
2.74292e-14
2.84399e-14
3.01309e-14
3.08226e-14
3.07151e-14
3.12382e-14
2.51079e-14
1.9019e-14
1.44931e-14
1.2104e-14
1.1308e-14
1.05988e-14
1.13066e-14
1.21633e-14
1.17239e-14
1.15166e-14
1.37784e-14
1.44612e-14
1.37129e-14
1.45338e-14
1.92945e-14
2.18616e-14
2.21158e-14
2.25395e-14
1.99667e-14
1.59359e-14
1.01475e-14
5.03843e-15
3.51212e-15
8.73124e-15
1.16781e-14
1.52513e-14
1.76497e-14
1.44871e-14
1.54113e-14
1.66559e-14
1.85291e-14
1.97092e-14
1.53123e-14
1.59769e-14
1.6981e-14
1.84273e-14
1.83504e-14
1.92574e-14
2.13247e-14
2.12975e-14
2.09745e-14
2.08368e-14
2.19316e-14
2.17278e-14
2.21517e-14
2.44129e-14
2.37367e-14
1.77568e-14
1.57036e-14
1.47026e-14
1.40192e-14
1.61583e-14
1.63684e-14
1.73245e-14
1.69136e-14
1.67348e-14
1.76306e-14
1.82763e-14
1.99114e-14
2.33445e-14
2.09773e-14
1.68347e-14
1.4659e-14
1.37795e-14
1.22016e-14
1.20084e-14
1.13571e-14
1.46535e-14
1.59411e-14
1.85543e-14
1.96837e-14
1.95546e-14
2.04023e-14
2.47198e-14
2.62867e-14
2.4914e-14
2.39036e-14
2.2652e-14
2.07046e-14
1.96109e-14
1.90892e-14
2.13895e-14
2.22075e-14
2.40187e-14
2.24905e-14
2.28476e-14
2.31446e-14
2.39931e-14
2.29829e-14
1.87243e-14
1.87846e-14
1.90073e-14
1.95216e-14
1.94999e-14
1.90309e-14
1.81164e-14
1.61239e-14
1.70407e-14
1.84543e-14
1.94359e-14
2.36877e-14
2.90282e-14
3.2796e-14
3.83036e-14
3.89192e-14
3.54233e-14
3.29451e-14
3.0356e-14
2.68251e-14
2.68135e-14
2.37991e-14
1.99461e-14
2.00959e-14
1.81179e-14
1.78501e-14
1.79981e-14
1.42929e-14
8.61226e-15
1.22223e-14
1.23808e-14
1.50262e-14
1.49783e-14
2.00697e-14
2.43475e-14
2.56652e-14
2.51185e-14
2.59666e-14
2.79187e-14
2.46329e-14
2.37137e-14
2.18715e-14
2.28731e-14
2.11804e-14
2.00632e-14
2.01878e-14
2.17326e-14
2.182e-14
2.27837e-14
2.20957e-14
2.37599e-14
2.17215e-14
1.93761e-14
1.52691e-14
1.50834e-14
1.42476e-14
1.39928e-14
1.38617e-14
1.39684e-14
1.43192e-14
1.78444e-14
1.87362e-14
1.86157e-14
1.7315e-14
1.32677e-14
1.30527e-14
1.38943e-14
1.37546e-14
1.31513e-14
1.9688e-14
2.6214e-14
3.37588e-14
3.82431e-14
3.39926e-14
2.6371e-14
1.71955e-14
1.09333e-14
1.39385e-14
1.66179e-14
1.28673e-14
1.39747e-14
1.42134e-14
1.70021e-14
1.86292e-14
1.94623e-14
2.09278e-14
2.0062e-14
1.99914e-14
2.05351e-14
2.14682e-14
2.20076e-14
2.11959e-14
1.73752e-14
1.02597e-14
7.81638e-15
7.08053e-15
7.81857e-15
1.16552e-14
1.47601e-14
1.23034e-14
1.37927e-14
1.1155e-14
1.02561e-14
1.17241e-14
1.34221e-14
1.37544e-14
1.25357e-14
1.11927e-14
9.12175e-15
7.35614e-15
9.96243e-15
1.36156e-14
1.3185e-14
1.58469e-14
1.90265e-14
2.02845e-14
2.15209e-14
2.28546e-14
2.10669e-14
2.21657e-14
1.97508e-14
1.67451e-14
1.68907e-14
2.21882e-14
2.20344e-14
2.23112e-14
2.37657e-14
2.47098e-14
1.82657e-14
1.74552e-14
1.78485e-14
1.96866e-14
2.04493e-14
2.25168e-14
1.97195e-14
1.87143e-14
1.68126e-14
1.82848e-14
1.84307e-14
1.65775e-14
1.64988e-14
1.41544e-14
1.47366e-14
1.3884e-14
1.43124e-14
1.44355e-14
1.62879e-14
1.82079e-14
2.14562e-14
2.27004e-14
2.24932e-14
2.31739e-14
2.42233e-14
2.43238e-14
2.30072e-14
2.46949e-14
2.44868e-14
2.3886e-14
2.43504e-14
2.45116e-14
2.45003e-14
2.4814e-14
2.41809e-14
2.26218e-14
2.115e-14
1.69293e-14
1.93075e-14
2.0166e-14
2.22122e-14
2.3649e-14
2.02829e-14
1.79458e-14
1.82154e-14
1.46018e-14
9.57182e-15
7.9771e-15
1.15846e-14
1.69638e-14
1.86184e-14
2.35141e-14
2.78116e-14
3.28251e-14
3.15602e-14
3.09598e-14
3.08808e-14
3.06293e-14
2.92841e-14
2.65536e-14
2.20891e-14
1.88826e-14
1.35838e-14
1.1387e-14
1.1864e-14
1.19978e-14
1.13768e-14
9.47466e-15
1.00601e-14
1.14793e-14
1.26721e-14
1.28829e-14
9.95183e-15
7.561e-15
8.37724e-15
8.79742e-15
1.00334e-14
1.17404e-14
1.15724e-14
1.2208e-14
1.33696e-14
1.33365e-14
1.29174e-14
1.34003e-14
1.39124e-14
1.24825e-14
1.12953e-14
1.16196e-14
7.68954e-15
4.7631e-15
9.68911e-15
1.36482e-14
1.11412e-14
1.42714e-14
1.66308e-14
1.79906e-14
2.01038e-14
2.42115e-14
2.82534e-14
3.64411e-14
4.3404e-14
4.60529e-14
4.57175e-14
4.26578e-14
3.82569e-14
3.53088e-14
3.29336e-14
2.44026e-14
2.34332e-14
2.57411e-14
2.50159e-14
2.38487e-14
2.09299e-14
1.82991e-14
1.6801e-14
1.74192e-14
1.79237e-14
1.94213e-14
1.93636e-14
1.66444e-14
1.73116e-14
1.67984e-14
1.86081e-14
2.0761e-14
2.41509e-14
2.36383e-14
2.03807e-14
2.06477e-14
2.23565e-14
2.32886e-14
2.19467e-14
1.98872e-14
1.84033e-14
2.14388e-14
1.95758e-14
1.99354e-14
1.71588e-14
1.81298e-14
2.26999e-14
2.27834e-14
2.40246e-14
2.1781e-14
1.96866e-14
1.8559e-14
1.64515e-14
1.54823e-14
1.82028e-14
2.11524e-14
2.42681e-14
2.60477e-14
3.18507e-14
3.60906e-14
3.49522e-14
3.32515e-14
3.41086e-14
3.27853e-14
3.25501e-14
3.46449e-14
3.81859e-14
4.42041e-14
3.99907e-14
3.58525e-14
3.45832e-14
3.19883e-14
3.32368e-14
3.03901e-14
3.04864e-14
3.08627e-14
2.93218e-14
2.79042e-14
2.66799e-14
2.68934e-14
2.5217e-14
2.09362e-14
2.03351e-14
1.96828e-14
1.5884e-14
1.1259e-14
8.6481e-15
7.33661e-15
7.53863e-15
1.01268e-14
1.28612e-14
1.461e-14
1.60433e-14
1.67715e-14
1.95007e-14
2.07888e-14
2.05808e-14
2.06092e-14
1.77126e-14
1.50107e-14
1.42146e-14
1.63277e-14
1.79068e-14
2.15654e-14
2.32784e-14
2.66988e-14
2.93664e-14
3.14899e-14
3.38535e-14
3.56153e-14
3.82559e-14
3.91088e-14
3.48408e-14
3.09865e-14
3.20787e-14
3.39805e-14
3.43936e-14
3.45676e-14
3.30937e-14
3.38521e-14
3.10817e-14
2.85032e-14
2.93696e-14
2.50843e-14
2.37488e-14
2.53816e-14
2.37665e-14
2.42724e-14
2.37303e-14
2.16498e-14
2.49482e-14
2.45326e-14
2.23802e-14
1.97789e-14
1.51591e-14
1.40001e-14
1.43644e-14
1.33203e-14
1.43505e-14
1.89077e-14
2.57537e-14
3.03817e-14
3.09061e-14
3.22884e-14
2.83328e-14
2.43117e-14
2.3235e-14
2.27278e-14
2.24178e-14
1.98224e-14
1.7689e-14
1.94359e-14
2.24016e-14
2.39131e-14
2.32806e-14
2.32175e-14
2.34858e-14
2.31915e-14
2.29865e-14
2.66651e-14
2.54468e-14
2.41538e-14
2.52556e-14
1.96198e-14
1.132
1.132
1.132
1.132
1.132
1.132
1.13195
1.1305
1.10462
1.03399
1.02046
1.02056
1.02066
1.0206
1.02043
1.02031
1.02025
1.02018
1.02007
1.01993
1.01979
1.01969
1.01959
1.01946
1.01934
1.01927
1.01921
1.01915
1.01909
1.01903
1.019
1.01899
1.01898
1.01896
1.01894
1.01892
1.0189
1.01887
1.01886
1.01886
1.01888
1.01891
1.01894
1.01896
1.01898
1.019
1.01902
1.01904
1.01906
1.01908
1.0191
1.01913
1.01915
1.01915
1.01914
1.01914
1.01914
1.01913
1.01913
1.01913
1.01913
1.01914
1.01914
1.01913
1.01911
1.0191
1.01909
1.01907
1.01906
1.01905
1.01905
1.01905
1.01905
1.01904
1.01904
1.01904
1.01903
1.01903
1.01903
1.01903
1.01904
1.01906
1.01906
1.01906
1.01907
1.01908
1.01908
1.01909
1.01909
1.0191
1.01912
1.01912
1.01911
1.0191
1.01909
1.01908
1.01905
1.01902
1.01896
1.01887
1.0187
1.01835
1.01769
1.01652
1.01446
1.01099
1.00537
0.996652
0.983809
0.965893
0.942332
0.913346
0.880264
0.845705
0.813539
0.787877
0.772028
0.766801
0.765562
0.765016
0.764936
0.764984
0.76517
0.765521
0.765988
0.766483
0.766983
0.767316
0.767347
0.767326
0.767238
0.767088
0.766898
0.7667
0.766559
0.766528
0.76654
0.76659
0.766679
0.766782
0.766826
0.766824
0.766802
0.766734
0.766626
0.766555
0.766542
0.76655
0.766588
0.766675
0.766797
0.766902
0.76693
0.766924
0.766895
0.766831
0.76673
0.76661
0.766529
0.766515
0.766523
0.766557
0.766623
0.766708
0.766779
0.766811
0.766812
0.766799
0.766761
0.766696
0.766632
0.766611
0.76661
0.766618
0.766645
0.766697
0.766751
0.766773
0.766769
0.766745
0.766722
0.766859
0.768137
0.771211
0.774166
0.775211
0.775175
0.774396
0.77372
0.773243
0.772897
0.772485
0.771956
0.771236
0.7703
0.769168
0.76794
0.766632
0.765302
0.764122
0.7629
0.760949
0.752858
0.708554
0.513181
0.129595
0.00335312
6.24111e-06
6.31742e-10
2.04233e-14
2.42161e-14
2.2498e-14
1.43598e-14
5.44164e-15
1.08812e-14
1.6296e-14
1.92382e-14
2.14849e-14
2.21245e-14
2.37422e-14
2.43813e-14
2.67664e-14
2.5016e-14
2.18493e-14
1.64876e-14
1.22191e-14
1.25433e-14
9.93689e-15
9.76569e-15
1.27607e-14
1.37252e-14
1.44611e-14
1.321e-14
1.35542e-14
1.36179e-14
1.50559e-14
1.83938e-14
1.75124e-14
1.75451e-14
1.74441e-14
1.63412e-14
1.48775e-14
1.11844e-14
6.98468e-15
2.3664e-15
6.66941e-15
1.09599e-14
1.34683e-14
1.56249e-14
1.56628e-14
1.54105e-14
1.70228e-14
1.66347e-14
1.8482e-14
1.69284e-14
1.57732e-14
1.53523e-14
1.516e-14
1.62863e-14
1.65477e-14
1.70592e-14
1.80579e-14
1.72573e-14
1.87756e-14
1.99019e-14
2.12335e-14
2.04138e-14
2.0383e-14
2.11287e-14
1.91602e-14
1.52952e-14
1.31538e-14
1.48327e-14
1.37906e-14
1.4547e-14
1.35187e-14
1.2149e-14
1.3334e-14
1.38226e-14
1.72336e-14
1.88158e-14
1.93299e-14
1.62426e-14
1.24052e-14
9.71728e-15
1.07518e-14
1.05225e-14
9.77352e-15
8.80357e-15
1.01181e-14
1.23385e-14
1.29596e-14
1.60456e-14
1.74878e-14
1.69148e-14
1.73568e-14
2.00926e-14
1.8182e-14
1.75922e-14
1.6897e-14
1.51831e-14
1.47811e-14
1.38458e-14
1.51863e-14
1.85367e-14
2.16283e-14
2.00108e-14
2.05884e-14
2.26439e-14
2.21728e-14
2.06271e-14
1.70767e-14
1.26621e-14
1.22097e-14
1.259e-14
1.32658e-14
1.19614e-14
1.19519e-14
1.16535e-14
1.10009e-14
1.26428e-14
1.49126e-14
1.77842e-14
2.06892e-14
2.08836e-14
2.43414e-14
2.67011e-14
2.73113e-14
2.6783e-14
2.55346e-14
2.55439e-14
2.48355e-14
2.08512e-14
1.75691e-14
1.49344e-14
1.28094e-14
1.40955e-14
1.45583e-14
1.11201e-14
4.95105e-15
5.69128e-15
9.02969e-15
1.07935e-14
1.12313e-14
1.46151e-14
1.92055e-14
2.03976e-14
2.01504e-14
2.14458e-14
2.01534e-14
1.81808e-14
1.99428e-14
2.0047e-14
1.8375e-14
1.73807e-14
1.73916e-14
2.03423e-14
2.22047e-14
2.12063e-14
2.18797e-14
2.1245e-14
2.02157e-14
1.80218e-14
1.82127e-14
1.45463e-14
1.21021e-14
1.07423e-14
9.17377e-15
9.6869e-15
8.64918e-15
9.44341e-15
1.2095e-14
1.22587e-14
1.18839e-14
1.28688e-14
1.0784e-14
7.22498e-15
7.41132e-15
1.00908e-14
9.99591e-15
1.48089e-14
2.00997e-14
2.58321e-14
2.77274e-14
2.58539e-14
2.12329e-14
1.52679e-14
1.21618e-14
1.22641e-14
1.38417e-14
1.32798e-14
1.07366e-14
1.11863e-14
1.08702e-14
1.27316e-14
1.57841e-14
1.50962e-14
1.60783e-14
1.57812e-14
1.68347e-14
1.70073e-14
1.68899e-14
1.66168e-14
1.50167e-14
1.18844e-14
8.4042e-15
3.60331e-15
4.96533e-15
7.50935e-15
1.11657e-14
1.26481e-14
1.10944e-14
9.22453e-15
7.0458e-15
9.08888e-15
6.64427e-15
7.68628e-15
9.42479e-15
8.74684e-15
6.82455e-15
6.25267e-15
7.0338e-15
1.19576e-14
1.28719e-14
1.3371e-14
1.75128e-14
1.89375e-14
1.79836e-14
2.03409e-14
1.70389e-14
1.58538e-14
1.65874e-14
1.37569e-14
1.34953e-14
1.65785e-14
1.97432e-14
2.13798e-14
2.03561e-14
1.93744e-14
1.72316e-14
1.5094e-14
1.57371e-14
1.75652e-14
1.75914e-14
1.66193e-14
1.70238e-14
1.63841e-14
1.56133e-14
1.60752e-14
1.3848e-14
1.30438e-14
1.18836e-14
1.09609e-14
9.53322e-15
9.08027e-15
1.13443e-14
1.37224e-14
1.28986e-14
1.43195e-14
1.70157e-14
1.88945e-14
1.94037e-14
1.86277e-14
1.76683e-14
1.75193e-14
1.673e-14
1.70349e-14
1.6685e-14
1.7634e-14
1.95848e-14
1.97892e-14
1.99985e-14
2.1908e-14
2.14481e-14
1.88225e-14
1.75844e-14
1.79369e-14
1.93258e-14
1.91857e-14
2.14254e-14
2.25294e-14
2.08116e-14
1.90205e-14
1.66725e-14
1.38429e-14
1.29018e-14
1.32139e-14
1.43604e-14
1.78546e-14
2.18505e-14
2.1464e-14
2.25352e-14
2.54234e-14
2.63613e-14
2.55123e-14
2.50134e-14
2.33857e-14
2.12811e-14
1.92808e-14
1.86746e-14
1.4606e-14
8.66653e-15
8.5335e-15
1.09686e-14
9.83765e-15
7.31425e-15
7.30519e-15
4.92391e-15
6.55705e-15
1.04414e-14
1.14361e-14
9.57337e-15
8.9882e-15
1.07006e-14
1.01856e-14
1.09752e-14
1.22268e-14
1.19127e-14
1.17158e-14
1.28068e-14
1.22044e-14
1.1417e-14
1.17008e-14
9.99628e-15
8.66524e-15
1.26356e-14
1.10276e-14
7.33329e-15
7.009e-15
6.42712e-15
8.05275e-15
9.04131e-15
1.20275e-14
1.12834e-14
1.23298e-14
1.59987e-14
2.14577e-14
2.55465e-14
2.95093e-14
3.28139e-14
3.44785e-14
3.45923e-14
3.45075e-14
3.11498e-14
2.78438e-14
2.45079e-14
1.85646e-14
2.16123e-14
2.34807e-14
2.04574e-14
2.01081e-14
1.92306e-14
1.61809e-14
1.63557e-14
1.47819e-14
1.49096e-14
1.53545e-14
1.55867e-14
1.63851e-14
1.39251e-14
1.47073e-14
1.59667e-14
1.48605e-14
1.86302e-14
2.01383e-14
1.66534e-14
1.88356e-14
1.97241e-14
2.02755e-14
1.97909e-14
1.95034e-14
2.04222e-14
1.96418e-14
1.74515e-14
1.9269e-14
1.68479e-14
1.8057e-14
2.28466e-14
2.25802e-14
2.14506e-14
1.79354e-14
1.39743e-14
1.41553e-14
1.13249e-14
9.82102e-15
1.33321e-14
1.6962e-14
2.07473e-14
2.36522e-14
2.67343e-14
3.13304e-14
3.12257e-14
2.98366e-14
2.85186e-14
2.75742e-14
2.92397e-14
3.09066e-14
3.51745e-14
3.86921e-14
3.16739e-14
2.5537e-14
2.77698e-14
2.65582e-14
2.7851e-14
2.67762e-14
2.75318e-14
2.55115e-14
2.43918e-14
2.43975e-14