/*--------------------------------*- C++ -*----------------------------------*\
| =========                 |                                                 |
| \\      /  F ield         | OpenFOAM: The Open Source CFD Toolbox           |
|  \\    /   O peration     | Version:  2406                                  |
|   \\  /    A nd           | Website:  www.openfoam.com                      |
|    \\/     M anipulation  |                                                 |
\*---------------------------------------------------------------------------*/
FoamFile
{
    version     2.0;
    format      ascii;
    arch        "LSB;label=32;scalar=64";
    class       volVectorField;
    location    "0.015";
    object      U;
}
// * * * * * * * * * * * * * * * * * * * * * * * * * * * * * * * * * * * * * //

dimensions      [0 1 -1 0 0 0 0];

internalField   nonuniform List<vector> 
83682
(
(347.059 -8.31179e-12 -2.55856e-12)
(347.059 -6.89926e-12 -2.91124e-12)
(347.059 -5.07542e-12 -3.03311e-12)
(347.059 -3.86327e-12 -2.65795e-12)
(347.059 -1.77084e-11 -2.62038e-11)
(347.059 4.6415e-10 8.45602e-10)
(347.045 -1.16005e-08 -2.09321e-08)
(346.682 1.53799e-07 2.81682e-07)
(340.182 1.08159e-06 1.85026e-06)
(322.17 -1.04852e-05 -1.8709e-05)
(318.678 3.28204e-06 5.91826e-06)
(318.705 3.90587e-06 7.01501e-06)
(318.732 3.55031e-06 6.35714e-06)
(318.714 1.60002e-06 2.8752e-06)
(318.67 -1.8142e-07 -2.93028e-07)
(318.64 -6.6026e-07 -1.14639e-06)
(318.623 -7.58581e-07 -1.32681e-06)
(318.604 -6.98737e-07 -1.23583e-06)
(318.576 -5.10814e-07 -9.29225e-07)
(318.54 -2.96622e-07 -5.78145e-07)
(318.505 -1.53936e-07 -3.31658e-07)
(318.478 -1.04083e-07 -2.37613e-07)
(318.451 -2.31165e-08 -8.31612e-08)
(318.418 4.57692e-08 4.95071e-08)
(318.388 8.08316e-08 1.21182e-07)
(318.368 8.49292e-08 1.35971e-07)
(318.354 6.73158e-08 1.09856e-07)
(318.339 5.5928e-08 9.12496e-08)
(318.323 3.40285e-08 5.61256e-08)
(318.307 9.73806e-09 1.78986e-08)
(318.299 -6.70282e-09 -7.6501e-09)
(318.297 -1.36255e-08 -1.71198e-08)
(318.293 -1.43684e-08 -1.67127e-08)
(318.288 -1.25584e-08 -1.27404e-08)
(318.283 -9.80046e-09 -7.48227e-09)
(318.279 -7.36124e-09 -3.02755e-09)
(318.273 -6.38759e-09 -1.68816e-09)
(318.266 -5.02988e-09 6.3183e-11)
(318.264 -3.18786e-09 1.78769e-09)
(318.265 -2.07271e-09 2.1889e-09)
(318.269 -1.52153e-09 1.80701e-09)
(318.278 -1.19095e-09 1.16299e-09)
(318.286 -8.76579e-10 5.32248e-10)
(318.289 -5.69229e-10 6.45812e-11)
(318.293 -3.22908e-10 -1.89564e-10)
(318.298 -1.13987e-10 -2.69563e-10)
(318.303 4.65778e-11 -2.64663e-10)
(318.308 2.01204e-10 -2.27584e-10)
(318.313 4.01515e-10 -1.52562e-10)
(318.319 5.60721e-10 -7.14197e-11)
(318.325 6.46957e-10 -1.76337e-11)
(318.333 6.70429e-10 -5.20581e-12)
(318.339 7.01423e-10 1.08951e-12)
(318.34 7.19572e-10 -4.31724e-12)
(318.339 7.17622e-10 -1.86739e-11)
(318.337 6.80576e-10 -3.13055e-11)
(318.336 6.30332e-10 -3.43408e-11)
(318.333 5.31844e-10 -3.45125e-11)
(318.332 3.91164e-10 -3.12901e-11)
(318.331 2.49725e-10 -2.1839e-11)
(318.332 1.02346e-10 -1.07938e-11)
(318.335 -2.88142e-11 -9.34596e-13)
(318.335 -9.83439e-11 3.5089e-12)
(318.333 -1.17746e-10 5.37479e-12)
(318.33 -1.36481e-10 7.1179e-12)
(318.328 -1.43446e-10 6.83601e-12)
(318.324 -1.24478e-10 4.08732e-12)
(318.32 -1.38118e-10 4.73018e-12)
(318.316 -1.48058e-10 4.27584e-12)
(318.313 -1.46793e-10 5.00455e-12)
(318.312 -1.43627e-10 4.11373e-12)
(318.313 -1.44115e-10 3.9311e-12)
(318.312 -1.71867e-10 5.05015e-12)
(318.309 -1.90773e-10 6.42361e-12)
(318.308 -3.96368e-11 -1.58188e-12)
(318.308 8.90887e-11 -5.32819e-12)
(318.307 1.71839e-10 -8.9552e-12)
(318.306 1.71659e-10 -9.68708e-12)
(318.307 2.19363e-10 -1.14694e-11)
(318.309 1.67387e-10 -1.05153e-11)
(318.313 7.99871e-11 -4.35916e-12)
(318.317 -1.53629e-10 2.29992e-12)
(318.318 -7.64055e-11 1.92939e-13)
(318.318 -1.27886e-10 5.66253e-12)
(318.32 5.35909e-10 -1.37372e-11)
(318.32 7.14438e-10 -2.37741e-11)
(318.321 1.79529e-09 -7.20297e-11)
(318.323 1.91829e-09 -8.29519e-11)
(318.325 1.2346e-09 -6.06165e-11)
(318.327 8.7035e-10 -4.94531e-11)
(318.331 4.60531e-10 -3.29395e-11)
(318.333 -3.24416e-11 -7.08526e-12)
(318.331 -1.12244e-09 2.7163e-11)
(318.33 -1.48318e-09 5.32802e-11)
(318.329 -1.00731e-09 4.82543e-11)
(318.327 2.82907e-09 -1.79038e-11)
(318.325 7.17947e-09 -1.9891e-10)
(318.324 1.07057e-08 -3.66843e-10)
(318.323 1.13902e-08 -4.33053e-10)
(318.325 1.15725e-08 -4.58942e-10)
(318.327 1.03995e-08 -4.28405e-10)
(318.326 7.85793e-09 -3.48802e-10)
(318.325 3.3885e-09 -1.84568e-10)
(318.324 -2.20109e-09 7.52293e-12)
(318.324 -2.56283e-09 1.5422e-11)
(318.324 -7.55112e-09 3.70008e-10)
(318.328 5.16222e-09 -1.62441e-10)
(318.338 1.15586e-09 1.14948e-11)
(318.359 1.71112e-08 -4.80566e-10)
(318.4 3.00524e-08 -1.1174e-09)
(318.46 3.18544e-08 -1.27663e-09)
(318.538 2.2972e-08 -8.86415e-10)
(318.62 2.61701e-08 -1.14379e-09)
(318.676 3.51448e-08 -1.77779e-09)
(318.681 2.76457e-08 -1.29915e-09)
(318.49 2.06015e-08 -1.05276e-09)
(318.213 -1.34233e-08 1.01111e-10)
(318.589 -4.25108e-08 1.55594e-09)
(318.535 -4.48162e-08 2.14327e-09)
(318.307 -5.00718e-08 2.71574e-09)
(318.251 -5.74384e-08 3.10184e-09)
(318.221 -6.38691e-08 3.41159e-09)
(318.201 -7.99132e-08 4.28693e-09)
(318.197 -1.05802e-07 5.63345e-09)
(318.211 -1.30026e-07 6.79239e-09)
(318.253 -1.46781e-07 7.57101e-09)
(318.361 -1.56554e-07 7.87608e-09)
(318.461 -1.57818e-07 7.63355e-09)
(318.459 -1.51522e-07 7.16038e-09)
(318.45 -1.40244e-07 6.3504e-09)
(318.416 -1.21875e-07 5.03048e-09)
(318.36 -1.01881e-07 3.71022e-09)
(318.291 -8.36807e-08 2.66537e-09)
(318.225 -7.38824e-08 2.12057e-09)
(318.19 -7.49602e-08 2.09055e-09)
(318.209 -8.20278e-08 2.27736e-09)
(318.244 -8.99159e-08 2.38556e-09)
(318.291 -1.01898e-07 2.2886e-09)
(318.35 -1.10858e-07 1.8678e-09)
(318.409 -1.13642e-07 1.26979e-09)
(318.433 -1.08996e-07 7.12443e-10)
(318.432 -1.00945e-07 3.81404e-10)
(318.417 -8.41707e-08 6.13097e-11)
(318.375 -6.00551e-08 5.31939e-12)
(318.31 -3.04996e-08 1.31108e-10)
(318.26 -5.01525e-09 1.29986e-10)
(318.241 7.99334e-09 -9.61471e-11)
(318.233 1.76478e-08 -2.16514e-10)
(318.244 2.62372e-08 -2.0453e-10)
(318.28 2.8911e-08 -1.00793e-10)
(318.337 2.399e-08 1.50367e-11)
(318.391 1.46068e-08 8.76423e-11)
(318.41 7.32774e-09 1.75939e-10)
(318.414 3.23988e-09 2.42842e-10)
(318.408 -1.99264e-09 3.4168e-10)
(318.387 -4.95161e-09 3.31869e-10)
(318.346 -3.73458e-09 1.3825e-10)
(318.295 2.07541e-09 -2.39712e-10)
(318.261 1.04438e-08 -7.17832e-10)
(318.258 1.64213e-08 -1.02765e-09)
(318.264 2.16861e-08 -1.29966e-09)
(318.281 2.81974e-08 -1.63003e-09)
(318.311 3.28574e-08 -1.82562e-09)
(318.348 3.49442e-08 -1.83628e-09)
(318.378 3.52158e-08 -1.72736e-09)
(318.389 3.52291e-08 -1.62217e-09)
(318.383 3.50696e-08 -1.56807e-09)
(318.371 3.57194e-08 -1.51412e-09)
(318.348 3.6821e-08 -1.47746e-09)
(318.314 2.89098e-08 -9.84299e-10)
(318.281 1.58047e-07 -5.94622e-09)
(318.271 -9.70595e-08 2.70594e-09)
(318.272 -6.81656e-07 1.57436e-08)
(318.278 -3.299e-07 7.45189e-09)
(318.295 1.55812e-06 1.70258e-08)
(318.325 6.9284e-06 -1.12065e-07)
(318.355 0.000113251 -4.38785e-06)
(318.368 -0.000291546 9.64112e-06)
(318.368 -0.000223684 2.60959e-06)
(318.359 -0.00152199 6.23415e-05)
(318.372 0.00356882 -0.000102672)
(318.573 0.0423333 -0.00130027)
(319.483 0.153651 -0.00470479)
(320.726 0.328747 -0.0111773)
(321.408 0.510459 -0.0190373)
(321.555 0.685158 -0.0274323)
(321.344 0.928838 -0.0379329)
(320.595 0.896496 -0.0386156)
(320.324 0.770178 -0.0342056)
(320.087 0.598671 -0.0270705)
(319.855 0.454828 -0.0209971)
(319.605 0.422947 -0.0198259)
(319.334 0.520789 -0.0243612)
(319.024 0.748762 -0.0346716)
(318.635 0.995451 -0.0457036)
(318.166 1.16529 -0.0532295)
(317.683 1.27825 -0.058078)
(317.19 1.32662 -0.0598987)
(316.766 1.25268 -0.0562623)
(316.472 1.09193 -0.0490145)
(316.164 0.905256 -0.040993)
(315.421 0.692417 -0.0324283)
(311.635 0.467805 -0.0241731)
(290.256 0.261499 -0.0163151)
(200.229 0.105267 -0.00792988)
(45.5888 0.0181151 -0.00152758)
(1.1232 0.000404731 -3.31272e-05)
(0.00204306 7.13582e-07 -5.72842e-08)
(2.01188e-07 7.16394e-11 -1.87748e-11)
(-5.49068e-13 2.24609e-12 -1.20828e-11)
(-4.78118e-12 9.55731e-13 -1.16498e-11)
(-3.53704e-12 1.68847e-12 -8.42543e-12)
(-2.20642e-12 2.83156e-12 -3.35085e-12)
(1.20193e-12 3.48149e-12 9.69237e-13)
(3.1827e-12 5.80638e-12 3.87266e-12)
(3.07688e-12 6.77521e-12 6.87002e-12)
(3.94944e-12 7.32976e-12 7.42806e-12)
(4.47941e-12 6.71014e-12 8.89815e-12)
(5.9419e-12 6.09758e-12 9.5681e-12)
(6.63618e-12 6.37428e-12 8.59981e-12)
(7.42441e-12 5.27196e-12 6.68527e-12)
(7.41902e-12 4.91591e-12 4.07339e-12)
(5.36235e-12 3.68848e-12 3.22955e-12)
(3.48643e-12 3.05597e-12 1.66795e-12)
(1.444e-12 1.82791e-12 1.31831e-12)
(-3.23808e-13 1.77558e-12 2.15623e-12)
(-5.32423e-13 1.78184e-13 2.82945e-12)
(2.22889e-14 -8.11841e-14 3.60142e-12)
(-8.36077e-13 -6.67427e-13 4.11586e-12)
(7.89471e-13 -1.11433e-12 4.89488e-12)
(1.92844e-12 8.0907e-14 5.49313e-12)
(2.03187e-12 9.195e-13 3.4391e-12)
(5.75477e-13 2.71772e-12 3.08509e-13)
(-1.51677e-12 2.67943e-12 -1.96354e-12)
(-1.42641e-12 2.77444e-12 -2.39653e-12)
(-1.35473e-12 4.12428e-12 5.18691e-13)
(-1.79672e-12 3.67925e-12 5.72297e-12)
(-1.47819e-12 3.33722e-12 7.38124e-12)
(-1.56609e-12 3.07078e-12 6.84658e-12)
(-2.87338e-12 3.8217e-12 6.04554e-12)
(-4.40451e-12 3.14562e-12 5.67746e-12)
(-3.92964e-12 1.74404e-12 4.49592e-12)
(-4.34492e-12 -1.08272e-13 4.35369e-12)
(-2.46164e-12 -1.22107e-12 2.53221e-12)
(1.249e-13 -8.19958e-13 7.79907e-13)
(2.65866e-12 -2.71119e-13 1.42257e-12)
(4.37333e-12 1.0656e-12 1.13446e-12)
(4.81879e-12 1.75868e-12 1.23756e-12)
(4.64256e-12 1.63528e-12 1.35537e-12)
(5.8647e-12 1.53332e-12 8.96184e-13)
(5.15321e-12 2.36358e-12 -9.92757e-15)
(4.54463e-12 1.91912e-12 -1.63344e-12)
(5.10439e-12 2.44158e-12 -3.16238e-12)
(5.06685e-12 3.08605e-12 -1.88253e-12)
(3.71319e-12 5.49234e-12 -2.55511e-12)
(1.22979e-12 4.5648e-12 -3.07791e-12)
(3.12541e-12 4.15677e-12 -4.79654e-12)
(3.55513e-12 4.77856e-12 -6.73367e-12)
(3.37591e-12 4.98367e-12 -4.4647e-12)
(4.93347e-12 6.22427e-12 -3.41921e-12)
(5.766e-12 5.8868e-12 -2.123e-12)
(4.00332e-12 5.69944e-12 -2.95626e-12)
(2.23807e-12 4.84969e-12 -4.93524e-12)
(2.32422e-12 4.90287e-12 -5.04949e-12)
(3.31701e-12 3.95026e-12 -5.01424e-12)
(4.97045e-12 3.67634e-12 -4.27176e-12)
(6.7669e-12 4.4009e-12 -3.04842e-12)
(6.8956e-12 5.83841e-12 -2.33966e-12)
(5.53201e-12 5.71382e-12 -1.72071e-12)
(4.21655e-12 6.43041e-12 -1.03174e-12)
(2.4004e-12 6.33919e-12 -9.23358e-13)
(6.27523e-14 5.21949e-12 -1.61681e-12)
(1.15831e-13 2.94403e-12 -2.71977e-12)
(2.42791e-12 2.67813e-12 -4.01698e-12)
(1.47006e-12 3.60564e-12 -6.14685e-12)
(-4.50972e-13 2.90731e-12 -7.00318e-12)
(-2.81739e-14 2.78896e-12 -6.93901e-12)
(-3.30001e-13 3.17956e-12 -9.55349e-12)
(4.58071e-13 2.99653e-12 -7.83511e-12)
(9.69189e-14 4.53448e-12 -6.97913e-12)
(-1.60387e-12 4.01803e-12 -4.65298e-12)
(-4.21487e-12 4.99987e-12 -2.96729e-12)
(-4.93566e-12 3.48082e-12 -2.22066e-12)
(-2.9815e-12 3.3896e-12 -1.68859e-12)
(-2.72885e-12 3.37212e-12 -8.05606e-13)
(-1.87221e-12 3.86586e-12 -1.75141e-12)
(-8.44292e-13 3.48269e-12 -1.21302e-12)
(-2.52199e-13 4.1813e-12 9.10326e-13)
(2.06188e-12 5.09531e-12 1.0405e-12)
(3.42621e-12 5.48984e-12 1.33081e-12)
(2.95246e-12 6.08547e-12 1.30732e-12)
(3.04266e-12 5.66275e-12 9.79638e-13)
(2.54378e-12 6.46414e-12 6.45987e-13)
(2.20279e-12 7.11028e-12 3.52279e-13)
(3.64889e-12 6.57776e-12 1.83464e-12)
(1.851e-12 7.48271e-12 4.5853e-12)
(7.56072e-13 6.72833e-12 7.53436e-12)
(2.34423e-12 6.70658e-12 6.68442e-12)
(4.49481e-13 7.49946e-12 6.2637e-12)
(-1.00461e-12 6.5547e-12 6.48602e-12)
(-1.81098e-13 5.24595e-12 5.99557e-12)
(1.9204e-12 4.58812e-12 5.71817e-12)
(3.80073e-12 4.63734e-12 5.76293e-12)
(3.58656e-12 4.94464e-12 6.54826e-12)
(4.35467e-12 5.90774e-12 5.44849e-12)
(5.89191e-12 6.38554e-12 4.20911e-12)
(4.23792e-12 6.72439e-12 3.34485e-12)
(2.78809e-12 5.91714e-12 2.65848e-12)
(4.09199e-12 4.92863e-12 1.76872e-12)
(5.49146e-12 4.03316e-12 9.63455e-13)
(4.64376e-12 4.7824e-12 1.78888e-13)
(4.87741e-12 4.26423e-12 -2.41954e-12)
(5.30948e-12 6.21725e-12 -5.13216e-12)
(3.3292e-12 6.50182e-12 -7.05618e-12)
(3.60977e-12 6.15641e-12 -5.14531e-12)
(3.46909e-12 8.19474e-12 -1.79296e-12)
(7.38974e-13 7.53395e-12 1.0816e-12)
(4.74794e-13 5.52073e-12 2.70646e-12)
(6.82844e-13 5.64917e-12 2.09287e-12)
(1.61371e-12 5.00311e-12 1.34967e-12)
(2.42812e-12 5.07392e-12 1.62238e-12)
(1.53876e-12 5.53082e-12 1.98205e-12)
(2.01658e-12 6.70766e-12 3.65192e-12)
(-5.38153e-13 9.60118e-12 5.51784e-12)
(-3.1496e-12 1.02949e-11 9.8023e-12)
(-3.21883e-12 1.06292e-11 1.30079e-11)
(-5.96107e-12 1.04218e-11 1.07361e-11)
(-7.69752e-12 8.69117e-12 8.36935e-12)
(-5.40443e-12 7.48133e-12 7.12116e-12)
(-4.85465e-12 7.57917e-12 5.35461e-12)
(-4.88119e-12 7.35756e-12 4.66996e-12)
(-3.22424e-12 6.95271e-12 4.68434e-12)
(-3.3946e-12 7.46446e-12 4.08661e-12)
(-2.7334e-12 6.47816e-12 2.34393e-12)
(-1.91731e-12 6.4346e-12 -3.06884e-14)
(-4.5029e-12 5.28656e-12 1.78094e-12)
(-5.37901e-12 2.41567e-12 2.42147e-12)
(-3.32953e-12 1.34355e-12 2.51471e-12)
(-1.2944e-12 9.26825e-13 1.14753e-12)
(-4.16205e-13 2.22118e-12 -1.51534e-12)
(2.3945e-13 3.29997e-12 -3.51403e-12)
(1.1425e-12 3.84293e-12 -2.01915e-12)
(1.93133e-12 3.87197e-12 2.22781e-13)
(2.4955e-12 4.90862e-12 5.91622e-13)
(3.2648e-12 4.64836e-12 -7.61369e-13)
(4.51638e-12 5.65976e-12 -9.44356e-13)
(5.04488e-12 7.78392e-12 -1.06439e-12)
(2.49598e-12 1.00424e-11 -7.70832e-13)
(-8.23877e-13 1.04469e-11 4.67151e-13)
(-3.67123e-12 9.22504e-12 -1.28378e-12)
(-5.13505e-12 7.0093e-12 -2.59109e-12)
(-4.5286e-12 5.59713e-12 -2.64479e-12)
(-3.40524e-12 5.76888e-12 -2.41875e-12)
(-4.04802e-12 6.28866e-12 -1.23596e-12)
(-4.96072e-12 4.95438e-12 -7.23928e-13)
(-4.10928e-12 3.7836e-12 -1.85583e-13)
(-5.45246e-12 3.74055e-12 1.58395e-12)
(-6.11912e-12 3.72964e-12 3.27122e-12)
(-4.94558e-12 3.6747e-12 4.04205e-12)
(-4.19054e-12 4.54098e-12 4.3312e-12)
(-4.17431e-12 4.82142e-12 3.5745e-12)
(-5.25051e-12 4.81789e-12 2.67406e-12)
(-4.82618e-12 5.09968e-12 1.60654e-12)
(-5.05344e-12 5.552e-12 1.36688e-12)
(-4.77361e-12 4.13405e-12 1.14609e-12)
(-2.84286e-12 3.80044e-12 1.1995e-12)
(-2.60131e-12 4.1129e-12 1.67981e-12)
(-2.19499e-12 3.40131e-12 2.12925e-12)
(-1.63427e-12 3.9936e-12 2.16142e-12)
(-1.00662e-12 3.73972e-12 9.10982e-13)
(9.7336e-13 4.5002e-12 -5.65135e-13)
(2.81357e-12 4.13077e-12 -6.27902e-13)
(2.74328e-12 4.91242e-12 1.39748e-13)
(2.27249e-12 5.64057e-12 9.88092e-13)
(1.05001e-12 6.4739e-12 1.27325e-12)
(1.22362e-13 5.72653e-12 2.43121e-12)
(1.88839e-12 4.89792e-12 1.39587e-12)
(1.41001e-12 4.97952e-12 2.22381e-12)
(-1.19252e-13 4.23321e-12 3.4888e-12)
(-4.73311e-14 3.01756e-12 4.84995e-13)
(1.39164e-12 1.16805e-12 -4.29837e-12)
(1.07481e-12 1.39007e-12 -9.43561e-12)
(2.27344e-12 2.11629e-12 -1.32203e-11)
(-4.62893e-13 2.58885e-12 -1.46903e-11)
(-2.77637e-12 1.63539e-12 -1.34386e-11)
(-8.10642e-13 1.98707e-13 -1.16037e-11)
(1.26344e-12 7.82253e-13 -8.05359e-12)
(1.44586e-12 3.88927e-13 -4.67595e-12)
(2.91789e-12 7.66058e-13 -4.71148e-12)
(4.50312e-12 1.45283e-12 -4.26381e-12)
(4.5897e-12 3.07671e-12 -3.47281e-12)
(4.09592e-12 4.11429e-12 -5.43275e-12)
(5.00856e-13 4.96388e-12 -5.16918e-12)
(-3.15631e-12 4.38878e-12 -5.02207e-12)
(-3.33574e-12 2.60065e-12 -7.45588e-12)
(-2.79856e-12 1.7989e-12 -9.1668e-12)
(-3.13681e-12 1.27613e-12 -8.70594e-12)
(-1.6367e-12 4.62568e-13 -8.58899e-12)
(4.40257e-13 1.46865e-12 -9.23064e-12)
(2.41843e-12 2.00268e-12 -9.62578e-12)
(3.07851e-12 3.37408e-12 -8.39755e-12)
(6.30923e-13 4.21233e-12 -7.95081e-12)
(-2.23348e-12 4.25038e-12 -7.11479e-12)
(-2.48967e-12 2.32156e-12 -6.83944e-12)
(-2.44927e-13 9.9121e-13 -5.27841e-12)
(-3.74181e-13 1.11479e-12 -2.46767e-12)
(7.03313e-13 9.76321e-13 7.86271e-13)
(1.39056e-12 1.1691e-12 3.21968e-12)
(1.01787e-12 1.32282e-12 -2.63428e-14)
(2.21718e-12 7.61148e-13 -1.20182e-12)
(1.11498e-12 1.42276e-12 -2.02576e-12)
(-1.16585e-13 1.14993e-12 -1.05906e-12)
(2.52617e-13 1.83222e-12 -1.72461e-12)
(1.4135e-12 2.13261e-12 -1.22307e-12)
(3.30818e-12 3.41722e-12 -1.06663e-12)
(2.20957e-12 5.18848e-12 -1.01374e-12)
(2.06169e-13 5.04992e-12 -5.34356e-13)
(4.13704e-13 4.07281e-12 -9.20512e-13)
(-1.38248e-12 3.38299e-12 -6.43999e-13)
(-1.89951e-12 1.34548e-12 -3.14194e-13)
(6.81059e-13 6.65018e-13 -7.28166e-14)
(1.74703e-12 -7.72147e-13 4.61887e-13)
(3.75006e-12 -3.21984e-13 3.39455e-13)
(6.28967e-12 9.7838e-13 2.34232e-13)
(6.19595e-12 3.40238e-12 2.44698e-13)
(5.12764e-12 3.78953e-12 3.37208e-13)
(6.20188e-12 2.90047e-12 -8.49495e-13)
(6.6814e-12 3.14954e-12 -2.64253e-12)
(5.3073e-12 3.21001e-12 -3.40847e-12)
(5.55968e-12 2.93905e-12 -3.36828e-12)
(5.40326e-12 3.97794e-12 -3.19478e-12)
(3.1344e-12 4.14031e-12 -2.63452e-12)
(2.68009e-12 4.15706e-12 -3.33373e-12)
(3.67067e-12 5.1737e-12 -4.69975e-12)
(1.72652e-12 5.54218e-12 -1.09779e-12)
(2.18022e-15 4.67702e-12 3.38069e-12)
(-5.36617e-13 6.08417e-12 6.38443e-12)
(-1.13196e-12 5.38358e-12 6.44935e-12)
(2.98824e-13 4.51698e-12 6.12604e-12)
(5.75163e-13 3.89872e-12 3.92311e-12)
(-2.27909e-13 3.08619e-12 1.56738e-12)
(3.36286e-13 4.08856e-12 -2.29599e-13)
(-2.18338e-12 4.76191e-12 -2.12531e-12)
(-3.78068e-12 4.23949e-12 -2.0986e-12)
(-4.28031e-12 4.48148e-12 -1.47894e-12)
(-4.68077e-12 4.46392e-12 -1.95381e-12)
(-3.4587e-12 4.0042e-12 -2.48201e-12)
(-2.52378e-12 4.77433e-12 -2.81264e-12)
(-2.86455e-12 4.80112e-12 -3.23878e-12)
(-2.76188e-12 4.28937e-12 -2.45536e-12)
(-2.02068e-12 4.36661e-12 -2.12817e-12)
(-2.30018e-12 4.06052e-12 -1.96744e-12)
(-6.55554e-13 4.46286e-12 -1.74875e-12)
(-3.32192e-14 5.7953e-12 -2.34816e-12)
(-1.09204e-13 6.2502e-12 -1.13376e-12)
(2.10584e-13 6.32346e-12 -7.67217e-13)
(2.73748e-13 5.45681e-12 -8.44606e-13)
(1.53662e-12 4.81804e-12 -1.0895e-12)
(3.23784e-12 5.3431e-12 -1.44282e-12)
(4.31165e-12 5.56944e-12 -1.72706e-12)
(3.92892e-12 5.71582e-12 -2.31503e-12)
(4.00983e-12 6.20405e-12 -2.98897e-12)
(4.88036e-12 6.08031e-12 -3.09805e-12)
(3.21583e-12 7.17152e-12 -3.62209e-12)
(1.29448e-12 7.326e-12 -3.11462e-12)
(1.73213e-12 7.49691e-12 -2.20379e-12)
(1.21774e-12 8.1527e-12 -1.18897e-12)
(-9.37651e-13 8.10774e-12 -9.46892e-13)
(-1.3999e-12 8.26044e-12 -1.66236e-12)
(-1.87589e-12 9.54071e-12 -2.0669e-12)
(-2.64829e-12 9.43412e-12 -1.57042e-12)
(-3.60266e-12 9.11031e-12 -4.09929e-12)
(-5.16271e-12 7.64009e-12 -4.43494e-12)
(-3.71544e-12 6.71256e-12 -5.06841e-12)
(-2.90382e-12 5.87134e-12 -4.60205e-12)
(-4.17247e-12 4.49124e-12 -3.91665e-12)
(-3.34149e-12 3.54919e-12 -3.59003e-12)
(-2.18133e-12 2.80276e-12 -4.99023e-12)
(-1.9123e-12 1.94807e-12 -6.74622e-12)
(-2.15553e-12 2.70018e-12 -6.13289e-12)
(-2.85485e-12 3.28401e-12 -6.23315e-12)
(-2.54535e-12 2.69232e-12 -6.07015e-12)
(-1.79713e-12 1.89093e-12 -5.9149e-12)
(-2.44578e-12 1.48977e-12 -5.5248e-12)
(-4.34978e-12 1.2836e-12 -4.05564e-12)
(-4.5219e-12 -3.02296e-13 1.80592e-14)
(-4.41898e-12 -1.18622e-12 5.12642e-12)
(-4.26969e-12 -2.41201e-12 4.98786e-12)
(-4.22985e-12 -2.44671e-12 1.61519e-12)
(-4.01725e-12 -3.19474e-12 -2.81604e-12)
(-3.96764e-13 -3.44084e-12 -5.25681e-12)
(-1.30175e-13 -2.24981e-12 -9.21307e-12)
(4.11714e-13 -1.19843e-12 -1.05675e-11)
(-1.07976e-13 -6.17217e-13 -1.05741e-11)
(-1.81855e-13 -5.5378e-13 -1.15444e-11)
(1.35129e-12 2.77065e-13 -1.18828e-11)
(7.80778e-13 3.19238e-13 -1.22448e-11)
(1.11509e-12 1.19183e-12 -1.11547e-11)
(-7.24451e-13 2.90237e-12 -1.02284e-11)
(-2.44363e-12 1.88197e-12 -8.1395e-12)
(-7.97354e-13 2.02853e-12 -6.59641e-12)
(-6.72178e-13 3.07559e-12 -4.65023e-12)
(-1.18614e-12 2.16708e-12 -1.97886e-12)
(4.01466e-13 2.47771e-12 -7.90566e-13)
(-2.21899e-13 3.52741e-12 -4.33313e-13)
(-8.05268e-13 2.77859e-12 -1.51325e-12)
(-3.18886e-13 3.58137e-12 -4.15807e-12)
(-7.16543e-13 3.16879e-12 -4.16997e-12)
(3.81101e-13 2.79903e-12 -3.78934e-12)
(6.66642e-13 3.13475e-12 -3.70479e-12)
(-2.19287e-12 2.67713e-12 -4.09309e-12)
(-3.98646e-12 1.34863e-12 -2.52362e-12)
(-2.14823e-12 3.43359e-13 -1.41305e-12)
(-4.9833e-13 8.07053e-13 -9.00169e-13)
(-6.14577e-13 1.70285e-12 -1.43216e-13)
(1.97266e-14 1.49802e-12 3.39771e-13)
(1.22691e-12 1.3864e-12 9.06107e-14)
(1.13495e-12 1.71049e-12 -1.30588e-12)
(1.31129e-12 1.4622e-12 -1.83267e-12)
(1.03026e-12 2.44125e-12 -6.31725e-13)
(-5.75331e-13 3.11532e-12 8.91898e-13)
(-1.53012e-12 3.81017e-12 1.34283e-12)
(-1.91389e-12 4.08453e-12 1.01839e-14)
(-3.2827e-12 3.53616e-12 -7.22993e-13)
(-3.33282e-12 1.81999e-12 -8.89604e-13)
(-2.70358e-12 1.30945e-12 8.87177e-14)
(-3.44787e-12 1.66367e-12 1.28733e-12)
(-2.76022e-12 -1.40513e-13 5.2265e-13)
(2.4702e-14 -5.64112e-13 -1.51605e-13)
(2.65229e-12 -3.01519e-13 -1.16827e-12)
(3.48284e-12 1.29127e-12 -2.13134e-12)
(3.15617e-12 2.4519e-12 -1.30283e-13)
(2.54276e-12 3.82098e-12 2.11935e-12)
(2.3257e-12 3.70165e-12 3.80597e-12)
(2.39609e-12 3.37709e-12 3.64021e-12)
(3.25844e-12 3.50152e-12 4.46583e-12)
(3.93481e-12 4.50989e-12 5.73442e-12)
(2.62616e-12 3.98011e-12 8.57711e-12)
(5.20039e-12 4.46446e-12 1.40085e-11)
(6.07929e-12 5.91144e-12 2.0171e-11)
(5.80464e-12 7.26654e-12 2.06313e-11)
(7.35615e-12 8.18629e-12 1.76389e-11)
(6.21349e-12 1.06926e-11 1.35986e-11)
(4.37211e-12 1.05672e-11 1.12948e-11)
(3.74809e-12 1.08519e-11 9.50425e-12)
(9.07013e-13 1.00658e-11 9.59691e-12)
(4.35855e-13 8.96723e-12 5.97129e-12)
(4.14238e-13 1.01314e-11 1.54241e-12)
(-3.14774e-12 9.26456e-12 -8.09921e-13)
(-4.1296e-12 7.29574e-12 -1.4106e-12)
(-4.69419e-12 6.0918e-12 -3.29611e-13)
(-5.08614e-12 5.7787e-12 -8.19214e-13)
(-4.58858e-12 5.1822e-12 -8.26932e-13)
(-3.16499e-12 5.14116e-12 8.41145e-13)
(-1.50927e-12 4.47278e-12 3.16732e-12)
(-1.47743e-12 3.09252e-12 5.25952e-12)
(-6.13867e-14 2.85741e-12 6.61582e-12)
(5.00775e-13 3.54633e-12 6.3116e-12)
(-2.26931e-13 4.03165e-12 6.32838e-12)
(-2.73388e-13 2.87087e-12 5.34775e-12)
(1.62693e-12 3.45076e-12 4.11118e-12)
(2.69055e-12 3.68131e-12 3.27878e-12)
(2.22854e-12 5.26467e-12 3.1916e-12)
(2.93634e-13 6.23936e-12 2.55679e-12)
(-1.89443e-12 6.21148e-12 1.27539e-12)
(-3.25809e-12 5.178e-12 1.01638e-13)
(-2.65861e-12 5.98761e-12 -1.29856e-12)
(-2.89066e-12 6.63029e-12 -3.00623e-12)
(-4.08029e-12 5.9871e-12 -2.51277e-12)
(-4.8684e-12 5.43386e-12 -3.05893e-12)
(-6.08858e-12 4.82218e-12 -3.95661e-12)
(-6.24638e-12 3.40761e-12 -3.07514e-12)
(-5.63004e-12 2.04249e-12 -2.99024e-12)
(-4.17154e-12 1.26801e-12 -3.24795e-12)
(-2.32914e-12 2.2364e-12 -3.70848e-12)
(-1.29756e-12 3.66677e-12 -4.71911e-12)
(-1.0717e-12 3.94863e-12 -4.4679e-12)
(-1.43005e-12 3.32799e-12 -5.92081e-12)
(-4.65996e-14 3.02413e-12 -6.56674e-12)
(1.40875e-12 2.11509e-12 -6.52822e-12)
(1.79118e-12 2.33006e-12 -5.68695e-12)
(2.23426e-12 2.95177e-12 -5.46721e-12)
(2.02813e-12 3.43353e-12 -4.58358e-12)
(1.34095e-12 2.9745e-12 -4.41356e-12)
(1.80903e-12 2.37405e-12 -3.80446e-12)
(4.095e-12 2.12094e-12 -2.8447e-12)
(5.54272e-12 3.27268e-12 -2.26298e-12)
(6.53538e-12 3.63043e-12 -3.15163e-12)
(6.08163e-12 5.52412e-12 -4.16879e-12)
(6.81608e-12 4.93338e-12 -7.00539e-12)
(7.36343e-12 4.80334e-12 -1.01213e-11)
(7.17834e-12 4.73569e-12 -8.4139e-12)
(8.64483e-12 5.64507e-12 -8.08298e-12)
(7.79898e-12 7.19915e-12 -7.77205e-12)
(5.36573e-12 7.6267e-12 -9.14512e-12)
(4.18039e-12 7.21218e-12 -9.09337e-12)
(5.61399e-12 6.91632e-12 -8.65998e-12)
(6.94081e-12 8.24004e-12 -8.73296e-12)
(5.31116e-12 9.86987e-12 -8.49768e-12)
(1.40854e-12 1.1133e-11 -9.75899e-12)
(-1.31608e-12 1.06451e-11 -1.07404e-11)
(-2.83186e-12 8.46175e-12 -1.24348e-11)
(-4.85633e-12 5.81116e-12 -1.08092e-11)
(-4.28665e-12 3.10426e-12 -9.93718e-12)
(-2.52031e-12 3.55022e-12 -9.59547e-12)
(-4.78391e-13 4.11095e-12 -1.10664e-11)
(1.29221e-12 4.25474e-12 -1.11562e-11)
(-1.19569e-13 5.31774e-12 -9.79897e-12)
(-2.35781e-12 3.73734e-12 -9.29095e-12)
(-1.94918e-12 2.7295e-12 -9.16994e-12)
(-3.75898e-12 2.80625e-12 -8.81466e-12)
(-4.93957e-12 1.23525e-12 -8.70565e-12)
(-3.62226e-12 4.82317e-13 -8.82744e-12)
(-1.80792e-12 9.21496e-13 -8.47134e-12)
(-2.09539e-12 1.00576e-12 -6.70889e-12)
(-2.79625e-12 1.2239e-12 -1.1389e-12)
(-2.31607e-12 2.46344e-12 1.04193e-13)
(-2.41231e-12 2.36458e-12 -3.29812e-13)
(-1.44613e-12 1.79317e-12 4.81622e-13)
(9.06993e-13 1.41117e-12 8.82074e-14)
(1.25005e-12 1.48356e-12 -2.18142e-13)
(1.48698e-12 1.22186e-12 -2.55179e-13)
(1.68945e-12 2.2345e-12 -2.78981e-14)
(7.38683e-13 3.22508e-12 7.71573e-13)
(1.88482e-12 5.09075e-12 -2.63912e-13)
(1.13636e-12 6.47037e-12 -2.84424e-12)
(-7.16651e-13 6.91913e-12 -3.47878e-12)
(-1.37272e-12 7.52349e-12 -3.34687e-12)
(-2.11462e-12 7.0564e-12 -4.87636e-12)
(-2.53477e-12 5.81885e-12 -6.64606e-12)
(-7.83642e-13 3.86584e-12 -7.38619e-12)
(1.34755e-12 3.17033e-12 -5.12175e-12)
(3.79847e-12 2.09929e-12 -3.95122e-12)
(4.4485e-12 2.59905e-12 -2.7946e-12)
(3.63878e-12 1.6933e-12 -5.3368e-12)
(4.18507e-12 5.04938e-13 -6.69868e-12)
(6.68289e-12 -1.26352e-14 -6.85277e-12)
(9.34148e-12 -1.35432e-13 -5.99723e-12)
(1.10719e-11 2.03561e-12 -4.59226e-12)
(1.20061e-11 4.53191e-12 -3.41769e-12)
(1.09008e-11 6.32851e-12 -3.85735e-12)
(1.13244e-11 6.75839e-12 -3.69e-12)
(1.02457e-11 8.5687e-12 -2.85601e-12)
(5.88537e-12 9.17177e-12 -2.87196e-12)
(3.45748e-12 9.2212e-12 -2.76033e-12)
(4.02015e-12 1.08645e-11 -2.14621e-12)
(1.4427e-12 1.36408e-11 -1.70768e-12)
(-2.41114e-12 1.2167e-11 -3.1914e-13)
(-4.38424e-12 1.15944e-11 3.16875e-12)
(-5.77078e-12 1.05645e-11 6.27035e-12)
(-4.96632e-12 9.63587e-12 7.83934e-12)
(-4.68868e-12 9.01479e-12 5.79613e-12)
(-6.42572e-12 7.39876e-12 2.721e-12)
(-8.88571e-12 6.23158e-12 2.43352e-12)
(-8.85836e-12 4.56855e-12 1.44561e-12)
(-7.07982e-12 3.57691e-12 1.31578e-12)
(-6.06002e-12 2.78238e-12 8.96032e-13)
(-4.53532e-12 3.02137e-12 1.00445e-12)
(-5.09575e-12 4.5881e-12 1.57147e-12)
(-7.02538e-12 4.5487e-12 2.727e-12)
(-7.28434e-12 3.89453e-12 2.30273e-13)
(-7.31858e-12 3.34658e-12 -2.23999e-12)
(-5.97476e-12 3.70287e-12 -3.47854e-12)
(-5.086e-12 3.74761e-12 -3.7742e-12)
(-4.76663e-12 2.76626e-12 -3.26273e-12)
(-3.04022e-12 1.99436e-12 -2.34886e-12)
(-1.13222e-12 1.50218e-12 -1.68776e-12)
(-1.31696e-12 2.24888e-12 -1.72091e-12)
(-1.49013e-12 1.99214e-12 -1.74703e-12)
(-1.89333e-12 2.41456e-12 -2.29605e-12)
(-2.65999e-12 6.7835e-13 -5.19923e-12)
(4.7205e-13 8.94722e-13 -9.96123e-12)
(6.86112e-13 2.68857e-12 -1.32114e-11)
(-5.00265e-13 3.10357e-12 -1.32079e-11)
(-8.91504e-13 2.21847e-12 -1.18795e-11)
(-5.3711e-13 3.7291e-12 -1.0264e-11)
(4.5129e-13 4.50994e-12 -9.02576e-12)
(1.18119e-12 3.62053e-12 -8.24692e-12)
(1.03535e-12 3.23797e-12 -6.37975e-12)
(6.08601e-13 3.3894e-12 -6.98912e-12)
(8.88277e-13 2.24985e-12 -5.95317e-12)
(2.71636e-12 2.39967e-12 -5.88272e-12)
(2.92684e-12 3.09587e-12 -6.72972e-12)
(3.67669e-12 4.31487e-12 -6.71613e-12)
(4.04108e-12 5.1163e-12 -6.19165e-12)
(3.74802e-12 5.11742e-12 -5.96478e-12)
(3.16781e-12 5.65414e-12 -4.97442e-12)
(3.2001e-12 5.62097e-12 -5.34717e-12)
(4.25198e-12 5.43814e-12 -4.12284e-12)
(5.88773e-12 6.64233e-12 -2.33278e-12)
(5.39565e-12 6.64271e-12 7.20211e-13)
(4.69585e-12 5.80078e-12 2.2382e-12)
(4.3296e-12 6.86735e-12 3.99884e-12)
(8.00514e-13 6.71252e-12 5.45486e-12)
(-1.3138e-12 3.06849e-12 5.43506e-12)
(347.059 1.66321e-12 -3.95159e-12)
(347.059 -1.06936e-12 -4.19382e-12)
(347.059 -3.5261e-12 -4.05055e-12)
(347.059 -4.11922e-12 -3.63504e-12)
(347.059 -1.7718e-11 -2.94937e-11)
(347.059 4.41018e-10 9.3849e-10)
(347.045 -1.09895e-08 -2.3261e-08)
(346.682 1.45698e-07 3.13242e-07)
(340.182 1.02664e-06 2.0534e-06)
(322.17 -9.94073e-06 -2.07991e-05)
(318.678 3.11661e-06 6.58696e-06)
(318.705 3.70836e-06 7.80871e-06)
(318.732 3.37131e-06 7.07237e-06)
(318.714 1.51801e-06 3.19152e-06)
(318.67 -1.71828e-07 -3.34342e-07)
(318.64 -6.26908e-07 -1.28249e-06)
(318.623 -7.20186e-07 -1.47989e-06)
(318.604 -6.64171e-07 -1.37142e-06)
(318.576 -4.85839e-07 -1.02237e-06)
(318.54 -2.80668e-07 -6.30331e-07)
(318.505 -1.43358e-07 -3.61915e-07)
(318.478 -9.62639e-08 -2.60863e-07)
(318.451 -2.10446e-08 -9.22234e-08)
(318.418 4.35095e-08 5.66903e-08)
(318.388 7.68905e-08 1.36009e-07)
(318.368 8.08681e-08 1.50376e-07)
(318.354 6.34978e-08 1.19373e-07)
(318.339 5.21196e-08 9.84644e-08)
(318.323 3.08886e-08 5.96166e-08)
(318.307 8.46541e-09 1.78698e-08)
(318.299 -6.77935e-09 -9.39461e-09)
(318.297 -1.32584e-08 -1.90477e-08)
(318.293 -1.37177e-08 -1.79991e-08)
(318.288 -1.16354e-08 -1.34099e-08)
(318.283 -8.73872e-09 -7.70434e-09)
(318.279 -6.26412e-09 -2.93395e-09)
(318.273 -5.34986e-09 -1.4936e-09)
(318.266 -4.08883e-09 3.86352e-10)
(318.264 -2.35625e-09 2.12013e-09)
(318.265 -1.36806e-09 2.40553e-09)
(318.269 -9.61213e-10 1.87868e-09)
(318.278 -7.42647e-10 1.17019e-09)
(318.286 -5.44207e-10 5.12639e-10)
(318.289 -3.38898e-10 3.03302e-11)
(318.293 -1.58671e-10 -2.2723e-10)
(318.298 1.09e-11 -3.01926e-10)
(318.303 1.54011e-10 -2.88865e-10)
(318.308 2.92553e-10 -2.42494e-10)
(318.313 4.75805e-10 -1.56702e-10)
(318.319 6.26067e-10 -6.63705e-11)
(318.325 7.05166e-10 -9.9977e-12)
(318.333 7.232e-10 2.33319e-12)
(318.339 7.41285e-10 7.86757e-12)
(318.34 7.45172e-10 4.42395e-13)
(318.339 7.20774e-10 -1.38297e-11)
(318.337 6.63816e-10 -2.40533e-11)
(318.336 6.09048e-10 -2.69717e-11)
(318.333 5.05579e-10 -2.62013e-11)
(318.332 3.61487e-10 -2.33405e-11)
(318.331 2.17903e-10 -1.71075e-11)
(318.332 7.6764e-11 -1.02201e-11)
(318.335 -4.35778e-11 -1.25455e-12)
(318.335 -1.10355e-10 3.6292e-12)
(318.333 -1.27517e-10 4.80512e-12)
(318.33 -1.45004e-10 6.88383e-12)
(318.328 -1.48177e-10 6.3539e-12)
(318.324 -1.17844e-10 3.14162e-12)
(318.32 -1.24303e-10 3.73072e-12)
(318.316 -1.44782e-10 4.61568e-12)
(318.313 -1.46333e-10 5.93639e-12)
(318.312 -1.41689e-10 5.28357e-12)
(318.313 -1.3956e-10 4.43876e-12)
(318.312 -1.59108e-10 4.32181e-12)
(318.309 -2.00987e-10 5.47671e-12)
(318.308 -5.89679e-11 -6.38317e-13)
(318.308 8.62424e-11 -5.15668e-12)
(318.307 1.82956e-10 -7.37235e-12)
(318.306 1.99527e-10 -9.66989e-12)
(318.307 2.61083e-10 -1.24122e-11)
(318.309 1.83509e-10 -1.10199e-11)
(318.313 9.06505e-11 -4.52757e-12)
(318.317 -1.9969e-10 4.66121e-12)
(318.318 -1.68283e-10 2.61735e-12)
(318.318 -3.13749e-10 1.15626e-11)
(318.32 2.63825e-10 1.82108e-12)
(318.32 5.22134e-10 -1.22823e-11)
(318.321 1.70887e-09 -6.86867e-11)
(318.323 2.15001e-09 -9.49228e-11)
(318.325 1.70965e-09 -7.9939e-11)