/*--------------------------------*- C++ -*----------------------------------*\
| =========                 |                                                 |
| \\      /  F ield         | OpenFOAM: The Open Source CFD Toolbox           |
|  \\    /   O peration     | Version:  2406                                  |
|   \\  /    A nd           | Website:  www.openfoam.com                      |
|    \\/     M anipulation  |                                                 |
\*---------------------------------------------------------------------------*/
FoamFile
{
    version     2.0;
    format      ascii;
    arch        "LSB;label=32;scalar=64";
    class       volScalarField;
    location    "0.025";
    object      Ma;
}
// * * * * * * * * * * * * * * * * * * * * * * * * * * * * * * * * * * * * * //

dimensions      [0 0 0 0 0 0 0];

internalField   nonuniform List<scalar> 
13946
(
3.69592e-14
4.08831e-14
3.62313e-14
4.15137e-14
3.16095e-14
2.12307e-14
2.52566e-14
3.02629e-14
3.47238e-14
3.74931e-14
4.2643e-14
5.04128e-14
5.77517e-14
7.09242e-14
7.10372e-14
5.40303e-14
3.91574e-14
3.78916e-14
3.58266e-14
3.50449e-14
3.94636e-14
4.1019e-14
3.80558e-14
4.26358e-14
4.81452e-14
4.95991e-14
5.32982e-14
5.79183e-14
5.32803e-14
5.43375e-14
4.9166e-14
4.23893e-14
3.86183e-14
3.90315e-14
4.82003e-14
6.77602e-14
6.64054e-14
7.30112e-14
8.26522e-14
7.26589e-14
6.08028e-14
5.2152e-14
5.23768e-14
4.95948e-14
4.82928e-14
4.49576e-14
5.83278e-14
6.93158e-14
5.97735e-14
3.67097e-14
3.69189e-14
3.66575e-14
3.46059e-14
3.48627e-14
3.19718e-14
2.74331e-14
2.81221e-14
3.50038e-14
4.79822e-14
6.29945e-14
7.63805e-14
8.37406e-14
9.00926e-14
7.58439e-14
7.23563e-14
5.92221e-14
5.00338e-14
4.19942e-14
4.04995e-14
3.98456e-14
4.28312e-14
4.86357e-14
4.20008e-14
3.26418e-14
2.92423e-14
2.99611e-14
3.17316e-14
2.67743e-14
2.10475e-14
1.89e-14
2.03218e-14
2.06429e-14
2.30347e-14
2.35244e-14
2.92733e-14
3.08335e-14
4.25179e-14
5.25659e-14
3.98115e-14
2.81844e-14
2.08815e-14
2.16483e-14
3.36452e-14
3.54922e-14
3.22528e-14
3.9025e-14
4.32072e-14
3.96292e-14
4.17822e-14
4.09743e-14
3.5885e-14
3.8375e-14
5.47045e-14
6.74295e-14
6.58175e-14
6.90385e-14
6.72612e-14
5.3586e-14
4.17971e-14
3.77509e-14
3.97483e-14
4.91358e-14
5.32493e-14
5.38983e-14
4.96285e-14
5.05473e-14
4.82551e-14
5.05334e-14
5.54189e-14
6.12854e-14
6.08096e-14
5.83556e-14
5.33164e-14
5.19603e-14
4.44413e-14
4.36962e-14
4.90377e-14
6.03846e-14
6.09314e-14
6.92658e-14
7.2305e-14
6.39461e-14
5.67678e-14
5.22384e-14
6.04119e-14
6.33758e-14
5.91564e-14
4.86428e-14
5.54009e-14
5.96752e-14
5.29907e-14
3.52343e-14
3.94144e-14
4.0424e-14
4.8885e-14
4.5218e-14
4.88444e-14
4.67249e-14
3.72309e-14
3.38944e-14
4.73484e-14
6.24215e-14
8.39488e-14
8.41029e-14
8.74627e-14
8.02435e-14
7.07461e-14
6.35635e-14
4.55965e-14
3.74047e-14
3.85632e-14
4.62016e-14
4.4423e-14
4.58898e-14
3.97697e-14
3.57581e-14
2.8533e-14
3.45045e-14
3.61419e-14
2.98418e-14
2.10364e-14
1.81306e-14
2.27414e-14
2.29228e-14
2.56965e-14
2.56767e-14
3.29978e-14
4.19083e-14
4.59369e-14
4.88086e-14
3.93826e-14
2.77388e-14
2.09979e-14
2.41374e-14
4.57772e-14
4.8219e-14
4.62551e-14
5.35828e-14
5.46996e-14
5.72515e-14
5.81708e-14
5.87821e-14
5.44638e-14
5.31224e-14
6.85654e-14
7.70886e-14
7.93056e-14
8.03012e-14
7.7767e-14
6.66249e-14
5.62855e-14
5.2155e-14
5.34285e-14
6.22133e-14
6.35874e-14
6.49032e-14
6.08158e-14
6.22217e-14
5.82695e-14
6.30693e-14
6.88687e-14
7.5692e-14
7.74837e-14
7.05198e-14
6.90491e-14
6.17938e-14
5.75653e-14
5.90885e-14
6.59347e-14
6.82294e-14
6.98272e-14
7.59507e-14
7.83119e-14
7.1325e-14
6.73276e-14
6.31159e-14
7.01871e-14
7.39288e-14
6.90768e-14
6.29782e-14
6.72326e-14
6.91422e-14
6.18252e-14
5.00465e-14
5.19412e-14
5.29897e-14
6.01291e-14
6.24905e-14
6.5252e-14
6.40468e-14
5.35391e-14
4.89523e-14
6.14226e-14
7.20297e-14
9.34897e-14
9.0378e-14
9.2318e-14
8.74425e-14
7.84027e-14
6.9743e-14
5.42361e-14
5.26389e-14
5.39554e-14
5.68444e-14
5.65518e-14
5.93696e-14
5.27974e-14
5.27115e-14
4.69489e-14
4.99257e-14
4.8208e-14
4.5469e-14
3.76525e-14
3.98231e-14
4.00664e-14
3.80755e-14
3.92687e-14
4.60871e-14
5.30258e-14
5.86379e-14
5.92341e-14
6.03217e-14
5.12053e-14
4.42077e-14
3.54901e-14
4.14899e-14
4.86128e-14
4.38906e-14
4.68723e-14
4.82908e-14
4.85777e-14
4.81882e-14
5.11763e-14
4.90723e-14
4.71333e-14
4.48266e-14
4.81715e-14
6.27184e-14
7.60151e-14
8.32011e-14
8.24556e-14
7.79678e-14
6.60652e-14
5.25746e-14
4.4649e-14
5.20783e-14
5.72249e-14
5.32831e-14
5.52425e-14
5.76264e-14
5.86848e-14
5.24729e-14
5.8912e-14
6.29686e-14
7.03378e-14
7.16696e-14
7.18612e-14
6.64046e-14
6.16667e-14
5.7842e-14
5.71323e-14
5.82364e-14
5.54611e-14
5.6644e-14
6.1664e-14
6.44519e-14
6.46111e-14
5.79667e-14
5.93893e-14
6.05695e-14
6.18845e-14
5.94457e-14
5.7724e-14
5.46084e-14
5.48956e-14
5.38257e-14
5.03381e-14
4.71571e-14
4.62736e-14
4.78872e-14
5.04097e-14
5.19199e-14
5.3911e-14
5.27687e-14
4.73657e-14
4.9295e-14
6.44449e-14
7.4752e-14
7.272e-14
7.2714e-14
7.22608e-14
6.53731e-14
6.02903e-14
4.62898e-14
4.38411e-14
4.08968e-14
3.89436e-14
3.9976e-14
4.78711e-14
4.46594e-14
4.56227e-14
4.68951e-14
4.50212e-14
4.42068e-14
3.71117e-14
3.51426e-14
3.68341e-14
3.50814e-14
3.73746e-14
3.60677e-14
3.989e-14
4.04342e-14
4.78835e-14
4.92479e-14
4.87921e-14
4.52434e-14
3.62222e-14
3.31733e-14
3.52532e-14
3.21996e-14
3.8918e-14
2.76778e-14
2.79379e-14
3.36775e-14
3.36413e-14
3.12349e-14
3.14056e-14
2.52642e-14
1.96002e-14
2.56832e-14
3.8235e-14
5.16041e-14
6.91256e-14
7.36291e-14
7.65168e-14
7.02581e-14
4.93163e-14
3.3281e-14
2.95292e-14
3.2606e-14
3.32666e-14
2.76486e-14
3.10684e-14
3.4276e-14
3.77838e-14
4.07371e-14
5.03236e-14
5.16864e-14
5.84787e-14
5.91307e-14
6.1537e-14
6.1859e-14
5.10975e-14
4.80676e-14
4.09966e-14
4.29906e-14
3.97521e-14
3.95409e-14
3.68653e-14
4.15512e-14
4.22478e-14
4.04139e-14
4.51248e-14
4.21796e-14
4.03742e-14
3.90659e-14
3.62352e-14
3.04578e-14
3.12897e-14
3.27304e-14
3.48762e-14
3.35148e-14
2.93344e-14
2.89606e-14
3.03068e-14
3.06841e-14
3.04311e-14
3.50341e-14
3.39032e-14
2.97119e-14
3.90372e-14
4.35938e-14
4.09977e-14
4.01104e-14
4.31295e-14
3.8709e-14
3.30943e-14
2.2695e-14
2.12548e-14
2.14315e-14
1.87353e-14
1.88919e-14
2.49132e-14
3.17069e-14
3.10536e-14
3.21433e-14
3.11095e-14
2.93678e-14
1.95106e-14
1.74465e-14
1.55444e-14
2.2143e-14
2.69175e-14
2.38493e-14
2.25086e-14
1.92449e-14
2.35017e-14
2.50685e-14
2.4363e-14
2.11504e-14
1.62156e-14
1.28528e-14
1.07187e-14
1.49391e-14
4.85839e-14
3.36096e-14
2.46777e-14
2.45126e-14
2.43918e-14
2.55165e-14
2.66879e-14
3.00801e-14
3.17268e-14
2.82219e-14
4.05985e-14
5.75771e-14
6.95121e-14
7.72041e-14
7.55372e-14
5.93684e-14
3.45262e-14
2.08538e-14
2.03553e-14
1.71097e-14
1.59931e-14
1.18541e-14
1.77834e-14
1.76976e-14
1.75319e-14
2.05508e-14
3.49709e-14
5.1669e-14
6.62052e-14
6.65196e-14
6.71967e-14
6.56987e-14
6.104e-14
4.68617e-14
3.17315e-14
2.748e-14
2.9555e-14
2.87296e-14
2.59448e-14
2.09456e-14
2.05594e-14
1.95136e-14
2.7642e-14
3.02617e-14
2.89897e-14
2.45833e-14
2.28819e-14
2.21873e-14
1.80205e-14
2.10046e-14
2.06686e-14
2.46122e-14
2.34851e-14
2.63195e-14
2.33445e-14
2.47453e-14
2.43763e-14
2.18889e-14
1.65011e-14
2.20452e-14
1.98812e-14
2.16172e-14
2.05504e-14
2.02736e-14
2.0505e-14
1.70693e-14
1.85111e-14
2.10452e-14
2.06456e-14
1.79553e-14
1.67238e-14
2.02766e-14
2.61115e-14
3.32325e-14
3.50361e-14
3.58643e-14
3.64167e-14
2.87894e-14
1.27651e-14
7.24088e-15
7.28036e-15
1.01654e-14
1.78178e-14
2.48061e-14
2.25914e-14
1.77657e-14
1.53062e-14
1.5304e-14
2.21927e-14
2.09103e-14
2.25904e-14
2.31081e-14
1.58405e-14
3.77404e-15
4.79953e-14
3.4838e-14
2.81052e-14
2.559e-14
2.33217e-14
1.98626e-14
1.9119e-14
2.79315e-14
3.99167e-14
2.23686e-14
3.98135e-14
7.06731e-14
6.98942e-14
7.77336e-14
8.44291e-14
5.9117e-14
2.91529e-14
1.16459e-14
3.68834e-15
7.84502e-15
1.01638e-14
8.68049e-15
1.13693e-14
7.09326e-15
5.10085e-15
9.47591e-15
3.09586e-14
6.0174e-14
7.63269e-14
6.5053e-14
6.7505e-14
6.49875e-14
7.18537e-14
4.87282e-14
2.41903e-14
1.57287e-14
1.28856e-14
1.06752e-14
8.74508e-15
1.03512e-14
5.97374e-15
1.1478e-14
2.28446e-14
2.93569e-14
2.55491e-14
1.15576e-14
2.42987e-15
3.39796e-15
3.35831e-15
5.15673e-15
6.87382e-15
1.13992e-14
1.00687e-14
1.50748e-14
1.242e-14
1.03911e-14
9.79829e-15
1.15222e-14
4.48672e-15
4.76053e-15
4.78622e-15
5.8245e-15
7.99679e-15
6.52498e-15
5.95565e-15
9.97794e-15
1.57305e-14
2.1845e-14
1.65752e-14
1.57575e-14
1.5644e-14
1.66552e-14
2.2992e-14
3.15751e-14
3.5519e-14
4.01513e-14
3.89945e-14
2.82434e-14
1.90408e-14
1.94751e-14
1.88927e-14
1.5224e-14
2.19346e-14
3.13666e-14
2.81012e-14
2.51869e-14
2.53723e-14
2.31903e-14
2.3286e-14
2.46853e-14
3.16444e-14
3.33481e-14
2.59179e-14
1.47554e-14
3.11079e-14
2.53111e-14
1.99596e-14
1.89896e-14
1.9007e-14
1.89025e-14
1.94817e-14
2.37516e-14
2.92084e-14
2.44273e-14
3.25674e-14
4.63723e-14
4.74291e-14
5.19313e-14
5.45568e-14
4.2031e-14
2.35831e-14
9.99957e-15
1.78704e-15
2.0506e-15
4.17024e-15
2.73165e-15
4.20143e-15
3.75682e-15
7.46471e-15
1.29135e-14
2.24656e-14
4.11424e-14
5.01864e-14
4.60648e-14
4.46178e-14
4.36829e-14
4.40789e-14
2.9749e-14
1.36812e-14
5.95194e-15
4.59995e-15
3.12689e-15
3.18385e-15
3.37723e-15
3.14327e-15
2.54422e-15
1.0181e-14
1.62246e-14
1.48891e-14
1.03821e-14
6.97285e-15
4.24359e-15
4.55945e-15
4.72291e-15
6.12663e-15
5.94255e-15
5.72036e-15
8.37466e-15
7.02804e-15
4.59272e-15
4.54034e-15
5.21238e-15
5.39264e-15
6.18298e-15
7.396e-15
4.88058e-15
5.76018e-15
1.43428e-15
4.14824e-15
1.20209e-15
4.43364e-15
8.03941e-15
9.24198e-15
9.29995e-15
1.15688e-14
1.59445e-14
2.11152e-14
2.31732e-14
2.70197e-14
3.00944e-14
3.23031e-14
2.7289e-14
2.10814e-14
1.83613e-14
1.50542e-14
1.47275e-14
1.69317e-14
1.88235e-14
1.91326e-14
1.67793e-14
2.07243e-14
1.97183e-14
1.79525e-14
1.93571e-14
2.25316e-14
2.17267e-14
2.05536e-14
1.15634e-14
3.72826e-14
3.97974e-14
4.25896e-14
3.74632e-14
3.72634e-14
3.78508e-14
4.1129e-14
3.884e-14
3.99408e-14
4.39574e-14
4.26137e-14
4.29943e-14
4.91444e-14
5.21408e-14
5.00872e-14
4.95562e-14
4.21334e-14
3.62345e-14
3.85073e-14
3.14383e-14
2.72308e-14
2.79103e-14
2.54312e-14
2.68471e-14
3.02498e-14
3.14578e-14
3.62547e-14
3.76454e-14
4.4568e-14
4.7683e-14
4.71841e-14
4.98143e-14
4.41693e-14
4.06697e-14
3.48875e-14
3.77924e-14
2.99286e-14
2.83357e-14
3.04784e-14
3.50151e-14
3.26896e-14
3.01242e-14
3.10842e-14
3.41093e-14
3.26601e-14
3.05494e-14
2.89845e-14
3.1763e-14
2.93017e-14
3.13502e-14
3.20689e-14
3.76846e-14
3.43089e-14
2.6642e-14
2.90611e-14
3.29828e-14
3.04299e-14
3.21578e-14
2.98204e-14
3.18778e-14
2.81732e-14
3.02353e-14
2.54503e-14
2.74739e-14
2.53401e-14
2.76342e-14
2.92041e-14
2.67957e-14
2.83772e-14
2.28828e-14
2.54974e-14
2.60998e-14
2.95192e-14
2.96316e-14
3.08838e-14
3.11405e-14
3.24633e-14
3.19858e-14
2.84627e-14
2.43485e-14
1.99855e-14
1.52224e-14
1.81835e-14
1.87856e-14
2.21335e-14
2.50788e-14
2.76645e-14
2.25491e-14
2.4943e-14
2.44154e-14
2.36329e-14
2.4272e-14
2.92319e-14
3.24029e-14
2.71247e-14
6.18914e-14
6.13791e-14
5.90712e-14
6.03454e-14
5.98672e-14
6.16297e-14
5.81015e-14
5.82374e-14
6.03181e-14
6.03172e-14
5.77862e-14
5.81628e-14
5.88405e-14
5.89268e-14
6.17276e-14
6.15804e-14
5.633e-14
5.42447e-14
5.04921e-14
5.26276e-14
5.23461e-14
5.44596e-14
5.33679e-14
5.13966e-14
5.42935e-14
5.55243e-14
5.16011e-14
5.49733e-14
5.92556e-14
5.89273e-14
5.70314e-14
5.68579e-14
5.57727e-14
5.64575e-14
5.60224e-14
5.06546e-14
5.31912e-14
5.34442e-14
5.30462e-14
4.81755e-14
5.11872e-14
5.13259e-14
5.1897e-14
5.00735e-14
5.1602e-14
4.97737e-14
4.83445e-14
4.8507e-14
4.94618e-14
4.76041e-14
4.52968e-14
4.43869e-14
4.37198e-14
4.57895e-14
4.67008e-14
4.53908e-14
4.44859e-14
4.46007e-14
4.66842e-14
4.6255e-14
4.3195e-14
3.99751e-14
3.997e-14
4.4855e-14
4.52029e-14
4.29778e-14
3.97093e-14
4.18108e-14
4.21823e-14
4.42475e-14
4.08329e-14
3.51367e-14
3.94869e-14
4.3731e-14
4.23776e-14
4.60617e-14
4.73643e-14
4.1355e-14
4.28905e-14
3.78665e-14
3.65443e-14
3.41341e-14
3.63834e-14
3.51306e-14
4.14992e-14
4.31298e-14
4.02441e-14
4.0209e-14
4.00524e-14
3.77124e-14
3.62836e-14
4.13103e-14
4.93038e-14
5.05188e-14
4.88278e-14
4.48023e-14
4.59638e-14
4.47265e-14
4.55175e-14
4.5442e-14
4.39814e-14
4.12332e-14
4.33469e-14
4.4403e-14
4.41362e-14
4.06446e-14
4.23297e-14
4.36124e-14
4.26473e-14
4.05077e-14
4.11351e-14
4.11913e-14
3.92424e-14
4.15394e-14
4.25043e-14
4.18973e-14
3.7117e-14
3.23375e-14
3.69714e-14
4.16413e-14
4.01507e-14
4.19565e-14
4.23384e-14
4.16394e-14
4.14024e-14
3.89475e-14
4.13045e-14
4.23421e-14
4.17985e-14
4.16109e-14
3.82955e-14
4.08728e-14
3.80674e-14
3.72567e-14
3.14073e-14
3.75449e-14
3.92245e-14
3.85572e-14
3.52543e-14
3.58746e-14
3.56086e-14
3.47316e-14
3.26929e-14
3.45509e-14
3.37838e-14
3.30149e-14
3.11172e-14
3.18367e-14
3.03133e-14
2.61248e-14
2.29797e-14
2.4552e-14
3.03557e-14
2.79888e-14
2.20887e-14
2.64159e-14
2.68352e-14
2.89517e-14
2.8121e-14
2.62822e-14
2.11972e-14
2.49337e-14
2.68144e-14
2.78703e-14
2.6643e-14
2.39412e-14
2.6083e-14
2.61129e-14
3.02337e-14
2.92931e-14
2.86535e-14
2.78651e-14
3.1195e-14
2.96316e-14
3.51886e-14
3.98806e-14
3.59264e-14
3.2738e-14
2.79983e-14
3.09648e-14
3.2878e-14
3.08568e-14
3.37381e-14
3.47611e-14
3.57864e-14
3.59137e-14
3.59198e-14
3.3463e-14
3.63203e-14
3.90198e-14
3.90327e-14
4.47161e-14
3.77786e-14
3.57716e-14
1.57135e-14
1.57401e-14
1.4205e-14
1.25775e-14
1.34218e-14
1.25023e-14
1.37266e-14
1.18687e-14
1.05387e-14
1.11021e-14
1.2872e-14
1.19641e-14
1.01835e-14
1.27319e-14
1.64833e-14
1.74029e-14
2.00035e-14
2.20723e-14
2.35303e-14
2.13625e-14
1.64283e-14
1.06472e-14
6.81427e-15
7.67103e-15
8.44213e-15
1.17535e-14
1.84551e-14
2.07296e-14
2.38028e-14
2.53213e-14
2.44563e-14
2.07561e-14
1.76794e-14
1.38219e-14
1.26446e-14
1.06751e-14
8.75761e-15
7.01172e-15
1.00654e-14
1.67084e-14
2.01226e-14
2.42026e-14
2.69125e-14
2.64948e-14
1.92623e-14
9.1347e-15
4.59501e-15
5.11993e-15
3.61407e-15
2.70616e-15
1.91146e-15
4.81608e-15
5.79891e-15
4.58405e-15
8.29891e-15
7.13261e-15
5.42291e-15
6.17883e-15
1.43058e-14
2.092e-14
2.13995e-14
2.08612e-14
1.81359e-14
1.74763e-14
1.9016e-14
2.02285e-14
1.55977e-14
9.88143e-15
5.7326e-15
4.09785e-15
1.92729e-15
2.73248e-15
3.01057e-15
1.05158e-15
7.22287e-15
1.14383e-14
1.1321e-14
1.57166e-14
2.23451e-14
2.56245e-14
2.61727e-14
2.56062e-14
3.00552e-14
3.31925e-14
2.88124e-14
2.74531e-14
2.59649e-14
2.6492e-14
2.59038e-14
2.59117e-14
2.62686e-14
3.11147e-14
3.80438e-14
4.50157e-14
4.50648e-14
4.40628e-14
3.231e-14
1.73419e-14
1.20818e-14
2.62173e-14
2.82461e-14
2.96909e-14
3.1405e-14
3.30828e-14
3.30904e-14
3.22995e-14
3.34666e-14
3.32226e-14
3.30249e-14
3.14777e-14
3.34885e-14
3.50375e-14
3.45577e-14
3.40619e-14
3.66556e-14
3.93014e-14
4.09218e-14
4.31638e-14
4.18958e-14
3.87129e-14
3.43328e-14
3.42971e-14
3.42957e-14
3.42178e-14
3.42613e-14
3.3548e-14
3.84248e-14
4.05003e-14
4.22078e-14
4.05029e-14
4.05137e-14
3.63268e-14
3.41122e-14
3.45245e-14
3.2705e-14
3.64706e-14
3.6537e-14
3.8191e-14
4.04978e-14
4.41359e-14
4.50913e-14
4.68945e-14
4.54277e-14
4.42673e-14
3.86908e-14
3.65306e-14
3.72103e-14
3.95481e-14
4.03397e-14
4.08138e-14
3.92511e-14
4.03093e-14
4.30672e-14
4.38836e-14
4.4915e-14
4.36906e-14
4.61266e-14
4.82366e-14
4.84164e-14
4.69383e-14
4.63711e-14
4.16666e-14
3.89188e-14
4.10024e-14
4.02683e-14
3.99371e-14
3.99778e-14
4.02269e-14
3.86324e-14
3.48093e-14
3.53285e-14
3.63486e-14
3.76361e-14
3.48799e-14
3.05798e-14
3.22926e-14
3.57884e-14
3.96602e-14
4.58475e-14
4.4763e-14
4.32157e-14
4.22687e-14
4.37994e-14
4.50397e-14
4.44827e-14
4.00059e-14
3.80966e-14
4.04375e-14
4.24785e-14
4.01167e-14
4.12684e-14
4.81998e-14
4.87095e-14
4.37073e-14
4.10083e-14
3.40057e-14
3.22134e-14
3.00967e-14
4.12517e-14
4.29445e-14
4.39158e-14
4.34139e-14
4.28544e-14
4.14998e-14
3.76057e-14
3.54102e-14
3.501e-14
3.61937e-14
3.66533e-14
4.28639e-14
4.84053e-14
5.01848e-14
4.81731e-14
4.8552e-14
4.79639e-14
4.34709e-14
4.19948e-14
4.0371e-14
4.09607e-14
4.11798e-14
4.33096e-14
4.53572e-14
4.50505e-14
4.6253e-14
4.95829e-14
4.99357e-14
4.43341e-14
3.73566e-14
3.75252e-14
3.97461e-14
3.97854e-14
4.35007e-14
4.74136e-14
4.87398e-14
4.73281e-14
4.61803e-14
4.56988e-14
4.48868e-14
4.3609e-14
4.43594e-14
3.82768e-14
4.17958e-14
4.5863e-14
5.07793e-14
5.37899e-14
5.75646e-14
5.54082e-14
5.42522e-14
5.30354e-14
4.90877e-14
4.21134e-14
4.12647e-14
4.26439e-14
4.60367e-14
4.89001e-14
4.85335e-14
4.37077e-14
4.86389e-14
4.92539e-14
4.62856e-14
4.82359e-14
5.08683e-14
5.414e-14
5.24767e-14
4.97949e-14
4.92169e-14
4.77798e-14
4.56635e-14
4.17179e-14
4.06847e-14
4.0095e-14
4.1691e-14
4.07358e-14
4.10751e-14
3.89398e-14
3.70467e-14
3.55416e-14
3.738e-14
3.77443e-14
3.70471e-14
3.67556e-14
3.4132e-14
3.27817e-14
3.48838e-14
4.03975e-14
4.40089e-14
4.73267e-14
4.67549e-14
4.39394e-14
4.09597e-14
3.84603e-14
3.98408e-14
3.84484e-14
3.86942e-14
3.72626e-14
4.03012e-14
4.2947e-14
4.88511e-14
4.96074e-14
4.92193e-14
4.07305e-14
3.00659e-14
2.72952e-14
3.05803e-14
1.97386e-14
2.30993e-14
2.53187e-14
2.62529e-14
2.28094e-14
1.76737e-14
1.64496e-14
1.05102e-14
9.79765e-15
6.37241e-15
1.02464e-14
1.70171e-14
1.54068e-14
1.37869e-14
8.08987e-15
5.78849e-15
8.29091e-15
8.70537e-15
4.07163e-15
4.52906e-15
1.22671e-14
1.60114e-14
2.02893e-14
2.09342e-14
2.38517e-14
2.5342e-14
2.32104e-14
1.52056e-14
7.01127e-15
1.21881e-14
6.20405e-15
1.01238e-14
2.11896e-14
2.58415e-14
3.01174e-14
3.3145e-14
3.1776e-14
3.00801e-14
3.00103e-14
2.78251e-14
2.10431e-14
1.63048e-14
6.48005e-15
1.39522e-14
8.83349e-15
6.16076e-15
1.87396e-14
2.07502e-14
1.87252e-14
1.95303e-14
1.86814e-14
9.62613e-15
7.26825e-15
1.12686e-14
1.54016e-14
2.0175e-14
1.94637e-14
1.35848e-14
6.01038e-15
1.08991e-14
6.63119e-15
4.85096e-15
6.43316e-15
8.46314e-15
1.20248e-14
1.6532e-14
2.10858e-14
2.16282e-14
2.10436e-14
2.119e-14
1.77096e-14
1.95869e-14
2.08223e-14
1.87588e-14
1.73576e-14
1.60684e-14
1.50081e-14
1.10759e-14
9.25562e-15
6.66546e-15
3.38879e-15
4.26586e-15
4.34772e-15
5.5819e-15
1.00545e-14
1.55699e-14
2.78697e-14
3.11339e-14
2.88515e-14
2.39184e-14
2.69943e-14
3.03696e-14
2.89217e-14
2.62814e-14
2.40335e-14
2.39419e-14
2.47521e-14
2.484e-14
3.24094e-14
4.18303e-14
3.87701e-14
3.90142e-14
3.41286e-14
2.10658e-14
1.40962e-14
7.41531e-15
3.11231e-14
3.50717e-14
3.57237e-14
3.77112e-14
3.75836e-14
3.48904e-14
2.77913e-14
2.29031e-14
2.12677e-14
1.83797e-14
2.36648e-14
2.78806e-14
3.06753e-14
2.42445e-14
2.34494e-14
2.33891e-14
2.14461e-14
1.9884e-14
2.09428e-14
2.35621e-14
2.496e-14
3.19442e-14
3.12069e-14
3.088e-14
2.9368e-14
2.85203e-14
3.08983e-14
3.13742e-14
2.80028e-14
2.65083e-14
2.48274e-14
2.66004e-14
4.08685e-14
4.24759e-14
4.21831e-14
4.29701e-14
4.22789e-14
4.38289e-14
4.2365e-14
4.04364e-14
3.8948e-14
3.02099e-14
2.12805e-14
2.57757e-14
2.76691e-14
2.69704e-14
2.48665e-14
2.52644e-14
2.41884e-14
1.89936e-14
1.8558e-14
2.24433e-14
2.2638e-14
2.80775e-14
3.1217e-14
3.53986e-14
4.21146e-14
3.24369e-14
2.34604e-14
2.74165e-14
2.63981e-14
2.76922e-14
2.52594e-14
2.51241e-14
3.08266e-14
3.13081e-14
3.39779e-14
3.24274e-14
3.3154e-14
3.45035e-14
3.56155e-14
3.31402e-14
3.678e-14
3.68633e-14
3.45186e-14
3.27106e-14
2.92603e-14
2.60572e-14
2.34416e-14
2.52134e-14
2.37906e-14
2.84955e-14
2.7348e-14
2.78234e-14
2.61467e-14
2.71628e-14
3.40135e-14
3.62835e-14
3.7074e-14
3.53056e-14
3.30281e-14
3.36579e-14
3.57252e-14
3.53551e-14
3.03061e-14
2.87913e-14
2.74216e-14
3.11923e-14
3.4708e-14
3.84371e-14
3.73852e-14
3.9077e-14
3.34997e-14
2.50294e-14
2.64205e-14
2.60284e-14
1.7133e-14
1.65281e-14
1.87666e-14
2.08547e-14
2.37839e-14
2.09146e-14
1.84272e-14
1.50064e-14
1.05913e-14
1.16958e-14
7.18737e-15
5.45485e-15
7.78185e-15
7.30435e-15
4.27533e-15
6.61366e-15
8.92915e-15
1.13808e-14
1.0622e-14
8.95592e-15
1.01338e-14
1.51537e-14
1.98533e-14
1.74068e-14
1.66042e-14
1.63227e-14
1.54183e-14
1.80176e-14
1.86741e-14
1.50713e-14
9.59633e-15
1.1632e-14
1.69468e-14
2.08677e-14
2.27182e-14
2.27698e-14
2.31011e-14
2.42666e-14
2.67545e-14
2.52853e-14
2.65848e-14
2.48088e-14
2.1448e-14
1.83601e-14
2.01469e-14
1.89507e-14
1.23795e-14
5.3923e-15
9.62821e-15
1.07623e-14
1.172e-14
9.44475e-15
1.03392e-14
1.14358e-14
1.9995e-14
2.78063e-14
3.48819e-14
3.61358e-14
3.16008e-14
2.74015e-14
2.59858e-14
2.0584e-14
1.4962e-14
1.38888e-14
1.42411e-14
1.6054e-14
1.62762e-14
1.7958e-14
1.76894e-14
1.92129e-14
1.77935e-14
1.89008e-14
1.78658e-14
2.02513e-14
2.06316e-14
2.09312e-14
2.079e-14
1.80823e-14
1.59644e-14
1.04658e-14
6.01615e-15
1.37961e-14
1.29658e-14
1.1386e-14
7.10974e-15
9.90055e-15
1.73342e-14
2.11761e-14
2.24993e-14
2.08527e-14
2.04053e-14
2.21283e-14
2.09396e-14
2.35015e-14
2.44565e-14
2.03362e-14
2.09677e-14
2.17103e-14
1.88984e-14
1.88711e-14
2.36231e-14
2.64425e-14
2.49164e-14
1.7777e-14
1.0748e-14
1.15989e-14
1.5543e-14
2.66304e-14
2.7529e-14
2.82886e-14
2.90404e-14
2.51925e-14
3.07206e-14
2.51977e-14
2.57882e-14
2.46558e-14
2.6249e-14
2.59021e-14
2.54234e-14
2.12078e-14
2.67852e-14
2.57594e-14
2.77337e-14
2.66574e-14
2.51857e-14
2.86432e-14
3.01365e-14
3.08186e-14
2.75034e-14
2.55442e-14
3.02309e-14
3.34899e-14
3.33176e-14
3.17283e-14
2.7338e-14
2.8056e-14
2.72136e-14
2.77036e-14
2.62261e-14
2.075e-14
2.10342e-14
1.79697e-14
2.19361e-14
2.6993e-14
2.96955e-14
2.77418e-14
3.1077e-14
2.84488e-14
3.00699e-14
3.39184e-14
3.40739e-14
2.87777e-14
2.7382e-14
2.70209e-14
2.24793e-14
2.04582e-14
1.87915e-14
1.59482e-14
1.59813e-14
2.08021e-14
2.31208e-14
2.62753e-14
2.67011e-14
3.28069e-14
3.63856e-14
3.83236e-14
4.27895e-14
3.56087e-14
2.58285e-14
1.7702e-14
1.38134e-14
1.4239e-14
1.69187e-14
1.69344e-14
1.61745e-14
2.09578e-14
2.14185e-14
2.16598e-14
1.99553e-14
2.46556e-14
2.19281e-14
2.49081e-14
2.85281e-14
3.15142e-14
3.227e-14
2.72396e-14
2.8863e-14
2.58759e-14
2.42286e-14
1.98531e-14
1.84033e-14
2.04822e-14
2.36076e-14
2.95626e-14
3.1781e-14
2.91332e-14
2.53086e-14
2.60241e-14
2.71597e-14
2.9408e-14
3.36402e-14
3.30704e-14
3.37462e-14
3.05182e-14
2.61571e-14
2.14924e-14
2.03414e-14
2.59984e-14
2.65828e-14
2.26376e-14
1.93447e-14
1.73066e-14
1.57282e-14
2.32174e-14
2.00517e-14
1.91899e-14
1.96758e-14
2.3231e-14
2.60756e-14
2.33366e-14
3.00351e-14
2.77845e-14
2.43288e-14
2.40728e-14
2.99194e-14
2.93819e-14
2.52775e-14
2.32449e-14
2.76459e-14
2.59902e-14
2.7737e-14
3.25199e-14
3.26999e-14
3.35929e-14
3.45545e-14
3.31099e-14
3.44214e-14
2.92496e-14
3.38069e-14
3.56817e-14
4.01385e-14
3.45239e-14
2.58544e-14
2.78532e-14
2.92865e-14
2.97801e-14
2.83277e-14
2.45062e-14
1.8756e-14
1.20739e-14
2.00405e-14
2.46625e-14
2.38361e-14
2.19919e-14
2.59397e-14
2.585e-14
2.61091e-14
3.3007e-14
3.4691e-14
2.80577e-14
2.40703e-14
2.31522e-14
1.97734e-14
1.89394e-14
1.63825e-14
1.83447e-14
1.42495e-14
1.90379e-14
2.22683e-14
2.51395e-14
2.8745e-14
3.63663e-14
4.06033e-14
4.40623e-14
4.52556e-14
3.32598e-14
2.13851e-14
1.6775e-14
1.08078e-14
1.44315e-14
1.45051e-14
1.94761e-14
1.85589e-14
2.02209e-14
2.05774e-14
2.17902e-14
1.56391e-14
1.92568e-14
2.48651e-14
2.68446e-14
2.74843e-14
2.99439e-14
3.14495e-14
2.498e-14
2.7726e-14
3.22461e-14
3.57078e-14
2.72984e-14
2.38089e-14
1.57813e-14
1.66202e-14
2.12673e-14
2.72317e-14
2.81771e-14
1.94087e-14
2.04906e-14
3.25881e-14
3.48524e-14
2.868e-14
2.9436e-14
2.76563e-14
2.58145e-14
2.09694e-14
1.53377e-14
1.22018e-14
2.07807e-14
2.23037e-14
1.89406e-14
1.79939e-14
1.57465e-14
1.69355e-14
2.70986e-14
2.29885e-14
2.19678e-14
2.28773e-14
2.71295e-14
2.65406e-14
2.76091e-14
2.82336e-14
3.73289e-14
3.11547e-14
3.55277e-14
3.80462e-14
3.91356e-14
3.28674e-14
3.36265e-14
3.71466e-14
3.09529e-14
3.11925e-14
3.81724e-14
4.57869e-14
5.01985e-14
4.53482e-14
4.34585e-14
4.50133e-14
4.5034e-14
4.17402e-14
4.08594e-14
3.95464e-14
4.66768e-14
3.78515e-14
3.41408e-14
3.30281e-14
3.33009e-14
3.35106e-14
3.02109e-14
2.70999e-14
2.66124e-14
3.13462e-14
3.10148e-14
3.11145e-14
3.14345e-14
3.12147e-14
3.08919e-14
3.05307e-14
4.09895e-14
4.091e-14
3.4999e-14
2.94314e-14
3.10511e-14
2.81129e-14
2.53437e-14
2.34731e-14
2.25656e-14
2.58119e-14
2.55933e-14
2.76424e-14
3.03522e-14
3.86811e-14
3.70809e-14
3.88771e-14
4.20984e-14
4.67505e-14
3.40707e-14
2.64987e-14
2.40557e-14
2.4618e-14
2.22624e-14
2.26815e-14
2.50663e-14
2.79487e-14
2.60372e-14
2.60683e-14
2.88681e-14
3.21595e-14
2.84619e-14
3.28459e-14
3.10737e-14
3.28788e-14
3.59159e-14
3.82336e-14
2.7911e-14
3.60705e-14
3.03766e-14
4.41731e-14
3.79829e-14
3.12803e-14
1.74733e-14
2.19886e-14
3.45143e-14
4.55142e-14
3.00347e-14
2.52687e-14
2.99051e-14
3.79805e-14
2.59806e-14
2.89493e-14
3.26415e-14
3.43362e-14
3.56435e-14
2.99595e-14
2.55881e-14
2.97905e-14
2.27899e-14
3.45807e-14
2.74671e-14
2.67594e-14
3.30781e-14
3.40061e-14
3.4317e-14
1.14766e-14
9.79436e-15
8.80551e-15
6.07259e-15
4.19456e-15
7.37291e-15
1.20607e-14
8.04877e-15
1.29269e-14
1.68968e-14
1.89622e-14
1.74488e-14
1.64617e-14
1.48921e-14
1.12062e-14
1.47242e-14
1.71606e-14
2.27438e-14
2.62203e-14
2.35696e-14
2.49148e-14
2.34962e-14
2.52324e-14
2.5781e-14
1.97607e-14
1.36967e-14
1.43839e-14
1.63684e-14
1.6577e-14
1.76638e-14
1.79212e-14
1.81136e-14
2.05086e-14
1.7683e-14
1.16667e-14
9.99512e-15
1.1695e-14
1.126e-14
7.27464e-15
1.19344e-14
1.36601e-14
1.20891e-14
1.77723e-14
2.02599e-14
1.78053e-14
1.80202e-14
1.67225e-14
1.95935e-14
2.01149e-14
1.61362e-14
1.28378e-14
1.06916e-14
1.19336e-14
1.51796e-14
1.86684e-14
2.13065e-14
2.27977e-14
2.48965e-14
2.67269e-14
2.77022e-14
2.84075e-14
2.39124e-14
2.14051e-14
1.93894e-14
1.94944e-14
1.77402e-14
1.39715e-14
1.29243e-14
1.46202e-14
1.7839e-14
2.0941e-14
1.94125e-14
1.91505e-14
1.62638e-14
1.29465e-14
1.38666e-14
1.63637e-14
1.33385e-14
6.7552e-15
9.73225e-15
1.00287e-14
2.5472e-15
1.46781e-14
1.33405e-14
1.24825e-14
1.03694e-14
1.72141e-14
2.43859e-14
2.22727e-14
1.05787e-14
1.12025e-14
4.77254e-15
1.28564e-14
2.118e-14
1.75395e-14
1.46939e-14
1.56732e-14
1.76274e-14
2.04384e-14
1.76789e-14
1.18866e-14
6.78803e-15
9.70579e-15
1.50508e-14
1.10188e-14
1.66408e-14
1.34386e-14
8.48846e-15
4.96681e-14
5.25351e-14
5.35983e-14
4.53934e-14
5.06881e-14
5.68782e-14
5.89479e-14
5.44084e-14
4.9334e-14
4.88984e-14
4.85919e-14
4.85312e-14
4.54869e-14
4.64837e-14
5.23059e-14
5.63211e-14
5.55384e-14
5.01371e-14
4.18311e-14
4.15452e-14
3.79341e-14
4.13267e-14
3.88489e-14
4.03566e-14
4.31897e-14
4.71788e-14
4.58499e-14
4.8383e-14
4.83239e-14
4.38024e-14
4.80348e-14
4.59728e-14
4.69339e-14
4.76586e-14
4.59533e-14
4.9422e-14
5.09066e-14
4.373e-14
4.48735e-14
4.29909e-14
4.32137e-14
3.92366e-14
4.04387e-14
4.29436e-14
4.28931e-14
4.57922e-14
4.83089e-14
5.04428e-14
4.58428e-14
4.74123e-14
4.50438e-14
4.17053e-14
4.62791e-14
4.84727e-14
5.13173e-14
4.80749e-14
5.18924e-14
5.25653e-14
5.21186e-14
4.89961e-14
5.22466e-14
4.85772e-14
4.65172e-14
4.96547e-14
4.50619e-14
4.42629e-14
4.37717e-14
4.96202e-14
5.07665e-14
5.60412e-14
5.29048e-14
5.26138e-14
4.67733e-14
4.35773e-14
4.58609e-14
4.47024e-14
4.18899e-14
4.42667e-14
4.69809e-14
4.57568e-14
4.10286e-14
4.33395e-14
4.01553e-14
3.50494e-14
3.70649e-14
2.84153e-14
3.63904e-14
3.67628e-14
4.36599e-14
4.28429e-14
4.37783e-14
4.55938e-14
5.20933e-14
5.52141e-14
5.87704e-14
5.22456e-14
5.25646e-14
4.80219e-14
5.16161e-14
4.64184e-14
4.34627e-14
4.19551e-14
4.52762e-14
4.30099e-14
4.01639e-14
3.99218e-14
4.23043e-14
4.40714e-14
4.65593e-14
4.20762e-14
4.71204e-14
5.54501e-14
6.1108e-14
5.59133e-14
5.28558e-14
5.28013e-14
5.23197e-14
4.95175e-14
4.97788e-14
5.00386e-14
5.11832e-14
5.08438e-14
4.58384e-14
4.88736e-14
6.09837e-14
6.97809e-14
6.66452e-14
6.13314e-14
6.12533e-14
5.96593e-14
5.98509e-14
5.90941e-14
5.5591e-14
5.25184e-14
5.4076e-14
5.54753e-14
5.26291e-14
5.71599e-14
5.79971e-14
5.72095e-14
5.7484e-14
5.35493e-14
4.93386e-14
4.64918e-14
4.97119e-14
5.61277e-14
5.4587e-14
5.86542e-14
5.53761e-14
4.82234e-14
5.19773e-14
5.33822e-14
5.35714e-14
5.32337e-14
5.11894e-14
4.80269e-14
4.32673e-14
4.50322e-14
4.60292e-14
4.63616e-14
4.73645e-14
4.70597e-14
4.92734e-14
5.58105e-14
5.7826e-14
5.39986e-14
5.2937e-14
4.88288e-14
4.65292e-14
4.70881e-14
5.24847e-14
5.47224e-14
5.49195e-14
5.5015e-14
5.37225e-14
5.13744e-14
5.06894e-14
5.47438e-14
5.8431e-14
5.64775e-14
5.90225e-14
5.72137e-14
5.28347e-14
5.59465e-14
5.72304e-14
5.62176e-14
5.3267e-14
5.75691e-14
6.09093e-14
5.56992e-14
5.65329e-14
5.15911e-14
5.22473e-14
4.63919e-14
5.2506e-14
5.6876e-14
5.87723e-14
6.46123e-14
6.57363e-14
6.1487e-14
6.4228e-14
6.24292e-14
6.70779e-14
6.97434e-14
6.82664e-14
6.97275e-14
6.71466e-14
5.92114e-14
5.77113e-14
5.61657e-14
5.82234e-14
5.89791e-14
5.97667e-14
6.15583e-14
5.98625e-14
5.84514e-14
6.15266e-15
4.61762e-15
8.20716e-15
1.67892e-14
1.80769e-14
1.26784e-14
8.93456e-15
1.46131e-14
1.82846e-14
1.86222e-14
1.55988e-14
1.38588e-14
1.24989e-14
1.22053e-14
1.34245e-14
1.54322e-14
2.08992e-14
2.84867e-14
2.97466e-14
2.17161e-14
2.27336e-14
1.97501e-14
2.10485e-14
1.88119e-14
1.98621e-14
1.92285e-14
2.02842e-14
1.78053e-14
1.83331e-14
1.98171e-14
1.81883e-14
1.89702e-14
1.78457e-14
1.71474e-14
1.67106e-14
1.00707e-14
1.08451e-14
1.47397e-14
1.64493e-14
1.85031e-14
1.84861e-14
1.75953e-14
1.54799e-14
1.58565e-14
1.82523e-14
1.6568e-14
1.63148e-14
1.75613e-14
1.73563e-14
1.7715e-14
1.63779e-14
1.55897e-14
1.35399e-14
1.5316e-14
1.4731e-14
1.96293e-14
2.15224e-14
1.88052e-14
1.68987e-14
1.75038e-14
1.344e-14
1.49149e-14
1.62338e-14
1.70183e-14
1.76792e-14
1.66835e-14
1.58267e-14
1.55751e-14
1.69984e-14
1.73749e-14
1.8771e-14
1.75068e-14
1.91831e-14
1.98731e-14
1.6554e-14
1.60963e-14
1.87238e-14
1.45428e-14
1.1749e-14
1.25641e-14
1.72015e-14
1.93133e-14
2.08644e-14
2.15216e-14
1.75965e-14
1.81489e-14
1.57986e-14
2.0951e-14
2.36241e-14
2.81594e-14
2.8957e-14
2.65949e-14
2.50719e-14
2.87296e-14
2.79533e-14
3.09105e-14
2.9198e-14
3.10483e-14
2.70363e-14
2.78292e-14
2.55816e-14
2.76573e-14
2.41106e-14
2.6726e-14
2.66068e-14
2.90995e-14
2.79902e-14
2.56509e-14
3.57781e-14
3.49206e-14
3.24572e-14
3.34436e-14
3.16873e-14
2.77185e-14
2.66296e-14
2.55778e-14
2.2422e-14
2.22818e-14
2.46821e-14
2.67212e-14
3.10513e-14
2.77195e-14
2.57148e-14
2.64723e-14
3.19257e-14
3.21945e-14
2.79631e-14
2.86144e-14
2.81562e-14
2.73712e-14
2.9145e-14
3.30056e-14
3.59522e-14
3.79988e-14
3.23728e-14
3.01506e-14
2.99636e-14
2.91013e-14
2.96798e-14
2.81708e-14
2.80278e-14
3.1323e-14
2.84479e-14