/*--------------------------------*- C++ -*----------------------------------*\
| =========                 |                                                 |
| \\      /  F ield         | OpenFOAM: The Open Source CFD Toolbox           |
|  \\    /   O peration     | Version:  2406                                  |
|   \\  /    A nd           | Website:  www.openfoam.com                      |
|    \\/     M anipulation  |                                                 |
\*---------------------------------------------------------------------------*/
FoamFile
{
    version     2.0;
    format      ascii;
    arch        "LSB;label=32;scalar=64";
    class       volVectorField;
    location    "0.025";
    object      U;
}
// * * * * * * * * * * * * * * * * * * * * * * * * * * * * * * * * * * * * * //

dimensions      [0 1 -1 0 0 0 0];

internalField   nonuniform List<vector> 
13946
(
(-1.51537e-12 -8.38911e-12 -9.4157e-12)
(-1.25127e-12 -9.73071e-12 -1.00574e-11)
(-1.92055e-12 -9.80172e-12 -7.43473e-12)
(-3.88648e-12 -1.02027e-11 -9.1837e-12)
(-2.5444e-12 -8.81995e-12 -5.80867e-12)
(-1.09333e-12 -6.89857e-12 -2.10932e-12)
(1.26711e-12 -8.57346e-12 4.78457e-13)
(3.40389e-12 -9.79877e-12 7.50692e-13)
(1.33757e-12 -1.17924e-11 -1.24675e-12)
(-3.83412e-12 -1.1323e-11 -4.80766e-12)
(-2.81238e-12 -9.72989e-12 -1.05918e-11)
(2.29777e-12 -9.75782e-12 -1.41302e-11)
(6.83833e-13 -9.93642e-12 -1.71671e-11)
(-6.58701e-13 -1.10988e-11 -2.16905e-11)
(3.36564e-12 -1.15365e-11 -2.12502e-11)
(4.33605e-12 -9.92665e-12 -1.50812e-11)
(2.78118e-12 -8.77751e-12 -9.8138e-12)
(-2.22436e-13 -1.06053e-11 -7.55322e-12)
(-2.66291e-12 -9.86991e-12 -6.86198e-12)
(-8.2579e-13 -9.78446e-12 -6.97369e-12)
(-1.02378e-12 -1.14569e-11 -7.18506e-12)
(-1.84264e-12 -1.16436e-11 -7.72972e-12)
(3.35301e-13 -9.91033e-12 -8.52749e-12)
(3.07076e-12 -1.09295e-11 -9.26337e-12)
(3.16169e-12 -1.22235e-11 -1.06936e-11)
(3.15133e-13 -1.29779e-11 -1.10463e-11)
(-1.34515e-12 -1.30883e-11 -1.27431e-11)
(1.995e-12 -1.24689e-11 -1.53862e-11)
(2.16197e-12 -1.12177e-11 -1.43096e-11)
(-4.2102e-13 -1.30497e-11 -1.33507e-11)
(-2.28462e-12 -1.34561e-11 -9.96033e-12)
(2.3636e-14 -1.26486e-11 -7.22701e-12)
(4.37765e-12 -1.09516e-11 -6.08573e-12)
(2.71893e-12 -1.09791e-11 -7.21082e-12)
(-6.48894e-13 -1.23397e-11 -1.10318e-11)
(1.81258e-12 -1.40349e-11 -1.84934e-11)
(4.81668e-13 -1.20151e-11 -1.93962e-11)
(-2.23481e-12 -1.108e-11 -2.24012e-11)
(1.00956e-12 -1.03836e-11 -2.64194e-11)
(1.69113e-12 -1.09462e-11 -2.23793e-11)
(-2.00443e-12 -1.08102e-11 -1.77695e-11)
(-4.27287e-12 -1.05558e-11 -1.384e-11)
(-3.60883e-12 -1.04093e-11 -1.42346e-11)
(-1.11579e-13 -1.03577e-11 -1.35352e-11)
(3.02934e-12 -9.74294e-12 -1.30898e-11)
(2.63293e-12 -9.77552e-12 -1.16713e-11)
(-8.30417e-13 -1.13758e-11 -1.64837e-11)
(-1.73774e-12 -1.25691e-11 -2.01607e-11)
(1.68581e-12 -1.10816e-11 -1.72142e-11)
(1.58647e-12 -1.11534e-11 -5.67832e-12)
(1.25483e-12 -1.2298e-11 2.85704e-12)
(-9.29135e-13 -1.24168e-11 1.91493e-12)
(-1.79972e-12 -1.1717e-11 9.54443e-13)
(-2.06848e-12 -1.18006e-11 1.11185e-13)
(-3.46897e-12 -1.04009e-11 -7.1721e-13)
(-2.6703e-13 -9.11806e-12 -2.38178e-12)
(3.39983e-12 -8.06299e-12 -4.10283e-12)
(3.00994e-12 -8.94862e-12 -7.45468e-12)
(8.25623e-13 -1.15838e-11 -1.17067e-11)
(-9.77915e-13 -1.06712e-11 -1.88108e-11)
(-1.35105e-12 -1.0024e-11 -2.42222e-11)
(2.33043e-13 -1.26905e-11 -2.58284e-11)
(1.764e-12 -1.36365e-11 -2.77409e-11)
(2.88898e-12 -1.2793e-11 -2.25248e-11)
(-1.03487e-12 -1.31629e-11 -2.10712e-11)
(-1.90736e-13 -1.25675e-11 -1.60077e-11)
(5.09956e-12 -1.17867e-11 -1.14337e-11)
(2.84491e-12 -1.19546e-11 -7.56789e-12)
(-1.81596e-12 -1.20527e-11 -6.71951e-12)
(-9.0671e-13 -1.1955e-11 -6.61581e-12)
(7.82582e-13 -1.1746e-11 -8.83655e-12)
(4.8886e-13 -1.06089e-11 -1.29067e-11)
(2.93862e-12 -1.09808e-11 -8.89564e-12)
(7.63835e-13 -9.00628e-12 -6.644e-12)
(1.06374e-12 -9.10998e-12 -4.10731e-12)
(3.37774e-13 -7.31488e-12 -7.2386e-12)
(-1.01042e-12 -7.37045e-12 -7.97338e-12)
(-5.30054e-13 -6.19449e-12 -6.78324e-12)
(-1.73851e-12 -6.06383e-12 -3.53946e-12)
(-3.85375e-12 -5.22844e-12 1.99014e-14)
(-3.43042e-12 -5.96835e-12 -1.17702e-12)
(-1.41924e-12 -6.73858e-12 -1.70451e-12)
(-1.22623e-12 -7.57191e-12 -1.95673e-12)
(-9.5911e-13 -7.51216e-12 -2.82959e-12)
(-2.40612e-12 -8.68941e-12 -4.46226e-12)
(-7.71915e-13 -8.54317e-12 -6.22102e-12)
(-1.87909e-12 -9.76188e-12 -1.07089e-11)
(-4.02502e-12 -8.27094e-12 -1.55479e-11)
(1.53526e-12 -9.77733e-12 -9.44657e-12)
(2.41054e-12 -8.78129e-12 -3.30093e-12)
(-3.58742e-13 -7.08624e-12 -1.0745e-12)
(7.77871e-13 -7.23804e-12 -1.53472e-12)
(4.37997e-13 -9.63286e-12 -6.38053e-12)
(-1.03459e-12 -1.03443e-11 -6.37983e-12)
(-1.401e-12 -9.21263e-12 -6.00185e-12)
(-1.90141e-12 -1.19375e-11 -5.80946e-12)
(-1.16418e-12 -1.42796e-11 -3.90169e-12)
(-1.26214e-12 -1.35603e-11 -7.30789e-14)
(-2.63343e-14 -1.4195e-11 2.16405e-12)
(1.21658e-12 -1.37928e-11 2.56212e-12)
(-2.49002e-13 -1.23276e-11 2.38975e-13)
(-2.5894e-12 -1.20322e-11 -4.7379e-12)
(-7.45879e-13 -1.47157e-11 -1.16761e-11)
(9.15666e-13 -1.5369e-11 -1.7319e-11)
(5.16245e-13 -1.1813e-11 -1.92824e-11)
(3.65947e-13 -1.29076e-11 -1.99044e-11)
(1.38966e-12 -1.32635e-11 -1.88802e-11)
(1.94888e-12 -1.0622e-11 -1.49167e-11)
(2.97568e-12 -1.04071e-11 -9.4428e-12)
(1.30307e-12 -1.14492e-11 -5.96093e-12)
(-1.957e-14 -1.20255e-11 -6.47949e-12)
(1.03066e-12 -1.48727e-11 -7.93009e-12)
(-6.21337e-14 -1.65206e-11 -7.87088e-12)
(-1.67315e-12 -1.66439e-11 -7.9548e-12)
(-1.3759e-12 -1.52122e-11 -7.58852e-12)
(5.93883e-13 -1.53637e-11 -8.08496e-12)
(1.01347e-12 -1.32351e-11 -9.94073e-12)
(9.51133e-13 -1.32214e-11 -1.12199e-11)
(-2.72019e-13 -1.46859e-11 -1.21236e-11)
(-1.77851e-13 -1.45014e-11 -1.52732e-11)
(9.21384e-13 -1.21082e-11 -1.7008e-11)
(7.51215e-13 -1.29632e-11 -1.52834e-11)
(-4.46434e-13 -1.41693e-11 -1.16087e-11)
(1.13789e-13 -1.54586e-11 -8.93796e-12)
(1.66257e-12 -1.30702e-11 -7.72436e-12)
(1.8752e-12 -1.2109e-11 -8.68109e-12)
(2.13994e-12 -1.31475e-11 -1.03233e-11)
(2.20951e-12 -1.5232e-11 -1.39195e-11)
(1.39072e-13 -1.31308e-11 -1.63108e-11)
(-1.21322e-12 -1.4548e-11 -1.88022e-11)
(-3.28823e-14 -1.38882e-11 -2.06051e-11)
(2.39598e-13 -1.20233e-11 -1.83936e-11)
(-1.87505e-12 -1.14286e-11 -1.56995e-11)
(-1.45047e-12 -1.14143e-11 -1.37805e-11)
(-6.34837e-13 -1.55871e-11 -1.36995e-11)
(-7.86147e-14 -1.70363e-11 -1.35693e-11)
(3.98598e-13 -1.57194e-11 -1.28859e-11)
(4.24149e-13 -1.22654e-11 -1.13504e-11)
(1.13376e-14 -1.34686e-11 -1.3457e-11)
(-9.65134e-13 -1.49645e-11 -1.399e-11)
(1.02212e-13 -1.39022e-11 -1.17626e-11)
(1.97089e-12 -1.11896e-11 -4.18694e-12)
(2.10937e-12 -1.33617e-11 7.01658e-13)
(1.60246e-13 -1.3846e-11 1.12117e-12)
(-5.25967e-13 -1.67125e-11 1.63027e-12)
(-8.08494e-13 -1.54271e-11 1.68429e-12)
(-1.27581e-12 -1.66537e-11 1.67303e-12)
(-7.47173e-13 -1.60258e-11 6.82249e-13)
(-2.26515e-13 -1.27017e-11 -1.52485e-12)
(1.64433e-12 -1.06481e-11 -4.42672e-12)
(1.6254e-12 -1.36798e-11 -8.66003e-12)
(4.55411e-13 -1.20211e-11 -1.77616e-11)
(8.40282e-13 -1.57387e-11 -2.41645e-11)
(1.27416e-12 -1.64464e-11 -2.37336e-11)
(7.28681e-13 -1.75726e-11 -2.43751e-11)
(1.36447e-12 -1.55758e-11 -2.27159e-11)
(-2.83996e-13 -1.53661e-11 -1.88393e-11)
(1.63458e-13 -1.72669e-11 -1.33795e-11)
(2.05202e-12 -1.39335e-11 -6.86973e-12)
(1.99032e-12 -1.20602e-11 -3.9789e-12)
(2.77929e-13 -1.2804e-11 -3.40832e-12)
(2.44161e-13 -1.55077e-11 -3.39964e-12)
(-6.61398e-13 -1.34296e-11 -7.23029e-12)
(-2.97515e-13 -1.28732e-11 -9.10536e-12)
(7.33502e-13 -1.13185e-11 -7.6257e-12)
(-2.47397e-13 -9.42799e-12 -7.87817e-12)
(3.09568e-13 -7.67807e-12 -6.09136e-12)
(3.71642e-13 -6.86347e-12 -9.6626e-12)
(-4.03039e-14 -7.25483e-12 -1.00816e-11)
(-1.43128e-12 -7.27984e-12 -7.08036e-12)
(-2.29451e-12 -6.49845e-12 -2.18416e-12)
(-2.82722e-12 -5.45891e-12 -1.01517e-12)
(-1.90236e-12 -7.41856e-12 -1.55774e-12)
(-1.00531e-12 -7.47101e-12 -2.28745e-12)
(-1.38831e-12 -8.34112e-12 -2.54642e-12)
(-5.4999e-13 -8.22344e-12 -3.15248e-12)
(-6.52325e-13 -1.01223e-11 -5.07069e-12)
(4.44542e-13 -1.20627e-11 -7.85637e-12)
(-1.34538e-12 -1.15798e-11 -1.06453e-11)
(-2.86128e-12 -1.22042e-11 -1.11459e-11)
(-1.05829e-13 -1.1645e-11 -6.89662e-12)
(-2.80925e-13 -9.24793e-12 -2.29603e-12)
(-3.77154e-13 -7.20104e-12 2.77346e-13)
(1.10062e-12 -8.17986e-12 8.29637e-13)
(2.37102e-13 -1.51949e-11 -4.06879e-12)
(-1.16511e-12 -1.59811e-11 -4.2249e-12)
(-9.55156e-13 -1.53133e-11 -4.15681e-12)
(-5.75537e-13 -1.79811e-11 -3.92957e-12)
(-1.35381e-12 -1.85732e-11 -2.56464e-12)
(-1.94482e-12 -1.95748e-11 4.00363e-13)
(1.7674e-13 -1.98383e-11 2.46191e-12)
(1.57929e-12 -1.99562e-11 2.71105e-12)
(1.26454e-13 -1.87052e-11 6.61015e-13)
(-2.86086e-12 -1.74858e-11 -4.39912e-12)
(-6.7237e-13 -2.06123e-11 -1.13981e-11)
(-8.93938e-14 -1.99676e-11 -1.7411e-11)
(-8.5339e-13 -1.80563e-11 -2.03973e-11)
(6.05031e-13 -1.81094e-11 -2.08149e-11)
(1.97098e-12 -1.85631e-11 -1.91256e-11)
(1.98357e-12 -1.77207e-11 -1.4363e-11)
(3.21698e-12 -1.72032e-11 -8.23792e-12)
(1.03149e-12 -1.72682e-11 -4.69111e-12)
(1.52318e-13 -1.73474e-11 -6.01568e-12)
(2.42193e-12 -1.89339e-11 -9.63155e-12)
(5.64646e-13 -2.03673e-11 -7.89905e-12)
(-2.62329e-12 -2.07433e-11 -7.76804e-12)
(-7.09373e-13 -1.97253e-11 -6.87236e-12)
(1.3551e-12 -2.00198e-11 -7.39057e-12)
(8.75595e-13 -1.80409e-11 -8.64666e-12)
(9.73502e-13 -1.89346e-11 -1.05036e-11)
(-7.03058e-13 -2.00557e-11 -1.25473e-11)
(-2.95973e-13 -2.02696e-11 -1.63006e-11)
(1.03349e-12 -1.92333e-11 -1.8387e-11)
(8.64471e-13 -1.82126e-11 -1.59655e-11)
(-1.57436e-13 -2.00269e-11 -1.27277e-11)
(-3.92225e-13 -1.88294e-11 -9.81227e-12)
(1.38029e-12 -1.7782e-11 -8.55975e-12)
(1.7931e-12 -1.80195e-11 -9.18923e-12)
(2.32455e-12 -2.03011e-11 -9.79328e-12)
(2.63144e-12 -2.01264e-11 -1.17393e-11)
(1.53799e-13 -1.90029e-11 -1.46536e-11)
(-1.14498e-12 -1.95511e-11 -1.72549e-11)
(-3.35352e-13 -2.01689e-11 -1.78161e-11)
(-2.87074e-13 -1.76929e-11 -1.6962e-11)
(-1.80088e-12 -1.78627e-11 -1.45963e-11)
(-7.90144e-13 -1.74296e-11 -1.28868e-11)
(-9.35733e-15 -2.07076e-11 -1.23696e-11)
(-1.46191e-13 -2.24535e-11 -1.18878e-11)
(-3.0888e-13 -2.10689e-11 -1.09342e-11)
(5.81398e-13 -1.93932e-11 -9.59163e-12)
(7.57137e-13 -2.06577e-11 -1.03221e-11)
(-6.38649e-13 -2.1555e-11 -9.97951e-12)
(-8.60821e-13 -1.9972e-11 -7.19843e-12)
(1.6782e-12 -1.69264e-11 -2.54826e-12)
(2.35836e-12 -1.76651e-11 1.00869e-12)
(1.11913e-12 -1.81517e-11 9.44421e-13)
(3.84375e-13 -2.05931e-11 1.6696e-12)
(-1.15798e-12 -2.12244e-11 3.0646e-12)
(-2.07916e-12 -2.21674e-11 2.67514e-12)
(-1.99585e-12 -2.18609e-11 1.60753e-12)
(-3.30662e-13 -1.83965e-11 -7.30511e-15)
(2.31417e-12 -1.64391e-11 -2.72361e-12)
(9.38581e-13 -1.95349e-11 -7.9427e-12)
(4.63898e-13 -1.74463e-11 -1.75548e-11)
(1.79166e-12 -2.19175e-11 -2.34241e-11)
(1.39808e-12 -2.14016e-11 -2.2466e-11)
(1.17632e-12 -2.24932e-11 -2.23436e-11)
(1.25982e-12 -2.09567e-11 -2.15008e-11)
(-3.43845e-13 -2.126e-11 -1.65494e-11)
(8.30938e-14 -2.18289e-11 -9.89782e-12)
(1.6382e-12 -1.81904e-11 -3.71974e-12)
(2.08579e-12 -1.7847e-11 -2.09458e-12)
(1.22148e-12 -1.84234e-11 -1.70681e-12)
(-8.63703e-14 -1.93976e-11 -2.31492e-12)
(-1.69887e-12 -1.82338e-11 -6.50811e-12)
(-8.44676e-13 -1.89896e-11 -7.41422e-12)
(9.0677e-14 -1.65812e-11 -7.36759e-12)
(-9.38568e-13 -1.64214e-11 -7.59018e-12)
(-2.04372e-13 -1.41673e-11 -7.71846e-12)
(4.24932e-13 -1.4096e-11 -9.77285e-12)
(2.62661e-13 -1.25342e-11 -1.08306e-11)
(-1.25169e-12 -1.39864e-11 -6.85464e-12)
(-2.92906e-12 -1.2372e-11 -2.40674e-12)
(-2.86279e-12 -1.32056e-11 -2.17164e-12)
(-1.41435e-12 -1.35288e-11 -2.13744e-12)
(-5.38081e-13 -1.28298e-11 -2.5155e-12)
(-1.02267e-12 -1.31669e-11 -2.77656e-12)
(-4.80155e-13 -1.55077e-11 -3.18424e-12)
(-7.50911e-13 -1.75681e-11 -4.78319e-12)
(-4.17216e-13 -1.85501e-11 -7.86197e-12)
(-1.54678e-12 -1.70303e-11 -1.10439e-11)
(-2.97948e-12 -1.8225e-11 -9.41912e-12)
(2.89e-14 -1.62907e-11 -6.65437e-12)
(-1.18306e-13 -1.50917e-11 -1.7437e-12)
(-7.05477e-13 -1.21494e-11 8.08047e-13)
(1.0479e-12 -1.41092e-11 1.77213e-12)
(5.14019e-13 -1.44811e-11 -8.31503e-12)
(-5.42832e-14 -1.41471e-11 -5.23175e-12)
(-8.84339e-13 -1.59187e-11 -2.30022e-12)
(6.49158e-14 -1.63426e-11 -2.88715e-12)
(-6.82912e-13 -1.63994e-11 -3.04882e-12)
(-1.27362e-12 -1.64181e-11 -1.75384e-12)
(-7.50325e-14 -1.75566e-11 1.03852e-12)
(-4.63552e-14 -1.68575e-11 4.80616e-13)
(2.55604e-13 -1.61774e-11 7.75836e-13)
(-1.49694e-12 -1.53196e-11 6.26675e-13)
(-2.37586e-12 -1.58915e-11 -3.98448e-12)
(-2.2621e-13 -1.88592e-11 -1.04335e-11)
(1.14252e-13 -1.86133e-11 -1.83297e-11)
(-2.21131e-13 -1.80479e-11 -2.21765e-11)
(2.1714e-13 -1.83668e-11 -2.15778e-11)
(1.90017e-12 -1.91399e-11 -1.8655e-11)
(2.89717e-12 -1.86623e-11 -1.26019e-11)
(2.44784e-12 -1.6927e-11 -5.82556e-12)
(2.90948e-13 -1.52635e-11 -1.54521e-12)
(-1.9188e-13 -1.75999e-11 -3.24429e-12)
(1.71944e-12 -1.82565e-11 -7.10638e-12)
(1.73596e-12 -1.71739e-11 -6.11172e-12)
(-5.88975e-13 -1.77906e-11 -6.60091e-12)
(-5.20847e-13 -1.90143e-11 -5.51268e-12)
(3.70558e-13 -1.90024e-11 -6.74641e-12)
(7.65275e-13 -1.60717e-11 -8.14287e-12)
(2.32937e-12 -1.65274e-11 -1.14594e-11)
(6.83595e-13 -1.70619e-11 -1.32935e-11)
(3.01633e-13 -1.8259e-11 -1.58377e-11)
(-1.85328e-14 -1.71898e-11 -1.76398e-11)
(1.42367e-13 -1.6541e-11 -1.83377e-11)
(-1.30905e-12 -1.67714e-11 -1.54207e-11)
(-2.30858e-12 -1.76192e-11 -1.15483e-11)
(1.1312e-12 -1.74633e-11 -9.42848e-12)
(4.09183e-12 -1.69927e-11 -8.94492e-12)
(3.49928e-12 -1.72774e-11 -9.47622e-12)
(6.76485e-13 -1.56681e-11 -1.08321e-11)
(-6.77661e-13 -1.49448e-11 -1.24555e-11)
(-1.47404e-13 -1.57533e-11 -1.41739e-11)
(-1.56741e-12 -1.68826e-11 -1.42525e-11)
(-1.68195e-12 -1.61515e-11 -1.5144e-11)
(-1.10205e-12 -1.66403e-11 -1.08966e-11)
(-9.93017e-14 -1.68668e-11 -1.14921e-11)
(1.14649e-12 -1.77402e-11 -1.08285e-11)
(-1.17166e-14 -1.86827e-11 -1.01619e-11)
(-5.06961e-13 -1.84086e-11 -8.84454e-12)
(1.10962e-12 -1.83604e-11 -7.42936e-12)
(1.01377e-12 -1.73137e-11 -7.16991e-12)
(-1.60856e-12 -1.76187e-11 -6.55021e-12)
(-2.53114e-12 -1.79646e-11 -3.61125e-12)
(1.07175e-12 -1.72555e-11 -6.06265e-13)
(2.01781e-12 -1.58242e-11 2.85736e-12)
(1.52067e-12 -1.58295e-11 -7.31252e-14)
(7.66491e-13 -1.64247e-11 6.92396e-13)
(-7.00517e-14 -1.7005e-11 3.30825e-12)
(-6.39025e-13 -1.76105e-11 2.79914e-12)
(-2.06374e-12 -1.82203e-11 2.64994e-12)
(-1.75533e-12 -1.80152e-11 1.11306e-12)
(2.06636e-12 -1.61011e-11 -1.20566e-12)
(7.8828e-13 -1.59515e-11 -5.64995e-12)
(6.83823e-13 -1.80664e-11 -1.27924e-11)
(2.12611e-12 -1.884e-11 -1.73346e-11)
(1.09532e-12 -1.80573e-11 -1.72423e-11)
(6.2007e-13 -1.77841e-11 -1.75442e-11)
(1.03022e-12 -1.71538e-11 -1.79272e-11)
(9.17679e-13 -1.71285e-11 -1.4509e-11)
(-2.07934e-12 -1.80275e-11 -9.9995e-12)
(6.88392e-13 -1.52039e-11 -4.6298e-12)
(1.87234e-12 -1.489e-11 1.33565e-12)
(2.72672e-13 -1.4052e-11 6.33776e-14)
(-7.36932e-14 -1.3338e-11 -1.10082e-12)
(1.92515e-13 -1.31242e-11 -4.05715e-12)
(-1.20973e-12 -1.53408e-11 -5.81811e-12)
(-5.85232e-13 -1.36227e-11 -7.04531e-12)
(-1.09722e-13 -1.32799e-11 -8.33423e-12)
(-9.83742e-13 -1.32126e-11 -9.17553e-12)
(-1.73402e-12 -1.16522e-11 -1.00303e-11)
(-9.30284e-13 -1.06145e-11 -1.08292e-11)
(-5.14836e-13 -1.05817e-11 -7.10115e-12)
(-1.51819e-12 -1.1429e-11 -3.59614e-12)
(-1.96638e-12 -1.2353e-11 -1.94348e-12)
(-3.10341e-12 -1.11855e-11 -3.25671e-12)
(-1.39638e-12 -1.21628e-11 -3.88492e-12)
(6.40963e-13 -1.17594e-11 -3.86614e-12)
(1.13817e-12 -1.2908e-11 -4.47419e-12)
(-4.94822e-13 -1.30754e-11 -4.67786e-12)
(-1.64712e-12 -1.51169e-11 -6.28967e-12)
(-1.45634e-12 -1.46801e-11 -8.29586e-12)
(-2.17177e-12 -1.49858e-11 -7.20264e-12)
(-1.11973e-12 -1.47222e-11 -4.87431e-12)
(-2.42899e-12 -1.19804e-11 -2.35142e-12)
(-1.92408e-13 -1.13897e-11 4.56052e-13)
(2.29098e-12 -1.16762e-11 2.2798e-12)
(1.93244e-13 -1.06894e-11 2.85528e-12)
(9.0301e-13 -6.77437e-12 -1.14968e-11)
(8.188e-13 -6.71965e-12 -6.68218e-12)
(-4.02999e-13 -9.23603e-12 -2.59183e-12)
(-9.06327e-13 -1.09542e-11 -3.62422e-12)
(-5.68558e-13 -1.04404e-11 -4.93351e-12)
(-9.01815e-13 -1.01205e-11 -3.46219e-12)
(-5.0097e-13 -1.05063e-11 -2.41979e-12)
(-4.27189e-13 -8.29656e-12 -2.52365e-12)
(6.41868e-14 -6.14836e-12 -2.75062e-12)
(-4.4606e-14 -8.12783e-12 -3.44116e-12)
(-9.14264e-13 -1.08823e-11 -7.30756e-12)
(2.01207e-13 -1.071e-11 -1.41339e-11)
(-2.75035e-13 -1.30802e-11 -1.98288e-11)
(-1.49562e-13 -1.06135e-11 -2.29697e-11)
(9.97876e-13 -1.06469e-11 -2.40236e-11)
(2.11533e-12 -1.2428e-11 -2.05927e-11)
(2.30625e-12 -1.15595e-11 -1.21779e-11)
(1.06621e-12 -9.99018e-12 -5.46586e-12)
(8.82067e-13 -9.94155e-12 -1.83635e-12)
(1.11152e-12 -1.09741e-11 -1.97426e-12)
(8.48155e-13 -1.09301e-11 -3.24284e-12)
(3.86168e-13 -8.87816e-12 -3.36364e-12)
(-3.1326e-14 -9.81446e-12 -4.20428e-12)
(2.41094e-13 -1.12083e-11 -3.61531e-12)
(-7.85977e-13 -1.20154e-11 -4.86003e-12)
(-5.27116e-13 -1.09108e-11 -8.75633e-12)
(1.77701e-12 -1.11579e-11 -1.30935e-11)
(4.74653e-13 -9.41671e-12 -1.50538e-11)
(3.34843e-13 -1.04575e-11 -1.71586e-11)
(-1.92824e-13 -9.54976e-12 -1.79363e-11)
(-7.8438e-14 -9.86079e-12 -1.87082e-11)
(-2.5452e-13 -1.05745e-11 -1.84404e-11)
(-7.46605e-13 -1.01426e-11 -1.43156e-11)
(1.29565e-12 -1.25699e-11 -1.06396e-11)
(2.89091e-12 -1.11739e-11 -8.08008e-12)
(2.68937e-12 -9.95837e-12 -1.05773e-11)
(8.01716e-13 -7.90817e-12 -1.11109e-11)
(-3.38062e-13 -8.04313e-12 -1.09475e-11)
(-3.43372e-13 -8.20911e-12 -9.64382e-12)
(-6.72891e-13 -8.33647e-12 -1.15741e-11)
(-6.58899e-13 -9.34653e-12 -1.1091e-11)
(-7.02543e-13 -1.00187e-11 -9.59326e-12)
(-3.23492e-13 -1.11008e-11 -1.0824e-11)
(7.67006e-13 -1.00784e-11 -1.03904e-11)
(-6.31754e-14 -1.01058e-11 -9.50734e-12)
(-6.36377e-13 -1.10212e-11 -7.64021e-12)
(2.85272e-13 -1.11128e-11 -5.61202e-12)
(4.00677e-13 -8.89484e-12 -5.50315e-12)
(-6.91425e-13 -9.60853e-12 -4.77788e-12)
(-7.0018e-13 -1.09076e-11 -2.65663e-12)
(2.58487e-13 -1.19829e-11 -3.95779e-14)
(1.59606e-12 -1.13347e-11 1.27968e-12)
(1.79747e-12 -9.87776e-12 9.1062e-13)
(6.33856e-13 -9.8133e-12 1.53421e-12)
(-3.07153e-13 -9.83411e-12 3.41693e-12)
(-6.00385e-13 -1.03513e-11 1.92012e-12)
(-1.42284e-12 -1.00994e-11 2.31261e-12)
(-1.65249e-12 -1.18585e-11 1.26713e-12)
(7.19547e-13 -1.14547e-11 -2.00664e-12)
(1.8378e-12 -8.80241e-12 -4.83763e-12)
(5.5676e-13 -1.04785e-11 -8.35889e-12)
(9.36627e-13 -9.74902e-12 -1.1337e-11)
(7.56548e-13 -7.66241e-12 -1.17995e-11)
(3.79141e-13 -6.71519e-12 -1.20322e-11)
(1.14177e-12 -7.34274e-12 -1.28247e-11)
(1.05987e-12 -6.5579e-12 -1.15255e-11)
(-1.40688e-12 -7.04031e-12 -8.82083e-12)
(7.38269e-14 -6.94893e-12 -3.54099e-12)
(4.91399e-13 -7.16419e-12 -1.33748e-12)
(-5.51154e-13 -7.21483e-12 -1.37443e-12)
(2.77458e-13 -6.17009e-12 -1.81911e-12)
(1.07305e-12 -5.29552e-12 -3.59976e-12)
(-1.65319e-12 -6.15392e-12 -5.7184e-12)
(-2.16627e-12 -7.1039e-12 -7.97346e-12)
(-3.70377e-13 -5.93983e-12 -8.85848e-12)
(-6.78284e-13 -5.33563e-12 -9.64865e-12)
(-1.3573e-12 -4.1645e-12 -9.75279e-12)
(-1.64055e-12 -4.85878e-12 -8.69268e-12)
(-5.98627e-13 -3.46517e-12 -5.70899e-12)
(-1.4031e-12 -5.31421e-12 -2.39572e-12)
(-2.50549e-12 -4.19868e-12 -2.15205e-12)
(-2.70407e-12 -4.85038e-12 -5.2029e-12)
(-9.71048e-13 -6.78225e-12 -6.21543e-12)
(6.30789e-14 -6.25552e-12 -5.29542e-12)
(4.39774e-13 -4.63546e-12 -6.17703e-12)
(-3.92635e-13 -4.4329e-12 -4.8926e-12)
(-5.87145e-13 -6.06108e-12 -5.30581e-12)
(-1.66816e-12 -6.71067e-12 -5.13856e-12)
(-1.90721e-12 -6.00411e-12 -5.51497e-12)
(-1.18874e-12 -5.7108e-12 -4.33664e-12)
(-1.75068e-12 -4.37553e-12 -2.97406e-12)
(7.57607e-13 -4.00988e-12 -1.69031e-12)
(1.81756e-12 -2.94969e-12 1.25094e-12)
(-5.00585e-13 -3.1807e-12 3.99883e-12)
(-8.83022e-13 -2.98787e-12 -1.64033e-11)
(4.96575e-13 -2.26753e-12 -1.13147e-11)
(2.46921e-12 -3.89607e-12 -7.11675e-12)
(1.30928e-12 -5.01857e-12 -6.63814e-12)
(-1.79245e-13 -4.924e-12 -6.7816e-12)
(-4.09315e-13 -5.77809e-12 -6.58354e-12)
(-9.02477e-13 -6.00597e-12 -6.87264e-12)
(-1.78866e-12 -5.94916e-12 -8.26265e-12)
(2.9157e-13 -3.80967e-12 -1.0212e-11)
(9.1873e-13 -4.43998e-12 -8.57382e-12)
(-1.31424e-12 -5.87075e-12 -1.25886e-11)
(3.29372e-13 -3.26524e-12 -1.95131e-11)
(2.27372e-13 -6.16429e-12 -2.30787e-11)
(-1.6557e-12 -4.75548e-12 -2.60501e-11)
(8.91663e-13 -3.66322e-12 -2.56842e-11)
(2.31597e-12 -6.43851e-12 -1.92212e-11)
(6.27605e-13 -6.47685e-12 -9.92191e-12)
(2.58514e-12 -5.98142e-12 -2.98353e-12)
(7.30307e-13 -6.58745e-12 2.23774e-12)
(6.88627e-13 -5.2193e-12 2.619e-12)
(3.33795e-13 -4.89528e-12 2.47659e-12)
(6.89088e-13 -3.52744e-12 1.91789e-12)
(6.98547e-13 -5.59447e-12 2.35894e-12)
(-8.41071e-14 -5.73003e-12 2.03734e-12)
(-3.31816e-13 -5.98592e-12 6.00158e-13)
(-1.36987e-13 -6.13849e-12 -3.49004e-12)
(7.8082e-13 -7.19046e-12 -9.5982e-12)
(-3.03392e-13 -3.45596e-12 -1.74146e-11)
(1.4103e-12 -3.67561e-12 -2.24092e-11)
(8.20212e-13 -6.47257e-12 -2.19096e-11)
(9.75765e-13 -6.3025e-12 -2.2195e-11)
(-1.0377e-12 -5.9442e-12 -2.17571e-11)
(-1.00544e-12 -3.62249e-12 -2.06376e-11)
(1.14262e-12 -6.06973e-12 -1.48733e-11)
(1.77375e-12 -6.56309e-12 -8.52633e-12)
(1.20856e-12 -6.92414e-12 -6.30736e-12)
(-4.08034e-14 -7.63474e-12 -6.69878e-12)
(7.77688e-13 -7.88359e-12 -5.89293e-12)
(4.00593e-13 -7.72442e-12 -4.43543e-12)
(-1.03881e-12 -5.34736e-12 -4.70549e-12)
(-7.08255e-13 -6.04043e-12 -3.59626e-12)
(3.41454e-14 -5.65037e-12 -3.61169e-12)
(-4.38228e-13 -6.35465e-12 -7.04754e-12)
(4.18282e-13 -4.9322e-12 -9.14632e-12)
(1.67008e-12 -6.24171e-12 -7.58337e-12)
(4.22604e-14 -7.66975e-12 -3.54237e-12)
(-2.80392e-13 -7.81437e-12 -8.33379e-13)
(-4.46642e-13 -7.56421e-12 -8.50577e-13)
(-7.74978e-13 -6.14334e-12 -1.09668e-13)
(-4.98288e-13 -7.12157e-12 1.06872e-12)
(1.47528e-12 -6.71404e-12 1.78849e-12)
(1.80348e-12 -7.26624e-12 3.93608e-12)
(1.42971e-12 -6.83679e-12 4.04414e-12)
(6.93229e-13 -6.8722e-12 5.84002e-12)
(1.06795e-13 -5.83992e-12 5.49975e-12)
(-6.27184e-13 -6.60356e-12 5.32153e-12)
(-2.05131e-12 -6.12197e-12 5.33778e-12)
(-1.82264e-12 -6.4692e-12 3.37851e-12)
(7.58934e-14 -5.649e-12 4.91157e-13)
(7.12426e-13 -7.50443e-12 -7.57503e-13)
(1.65059e-12 -6.3321e-12 -1.96533e-12)
(5.18407e-13 -6.89546e-12 -2.7156e-12)
(-1.2355e-12 -5.71211e-12 -3.96526e-12)
(-1.8842e-13 -5.28931e-12 -4.53114e-12)
(2.99155e-13 -5.32002e-12 -4.61148e-12)
(-8.39267e-13 -3.6359e-12 -4.52626e-12)
(-1.51014e-12 -2.49282e-12 -5.65467e-12)
(5.4946e-13 -2.65724e-12 -6.70418e-12)
(1.91837e-12 -4.11124e-12 -5.45514e-12)
(-1.09631e-13 -3.87374e-12 -4.80191e-12)
(-1.23198e-12 -2.88938e-12 -4.8131e-12)
(-4.30847e-13 -4.18368e-12 -5.556e-12)
(-1.39922e-13 -3.28184e-12 -8.35074e-12)
(-1.22919e-12 -3.57749e-12 -1.07762e-11)
(-3.39885e-12 -2.49854e-12 -1.12775e-11)
(-2.41566e-12 -2.88346e-13 -1.20828e-11)
(-1.42385e-12 -1.12041e-12 -1.23833e-11)
(-7.84781e-13 -1.03324e-12 -9.80844e-12)
(5.05911e-13 -9.02609e-13 -4.26313e-12)
(-1.99218e-12 -5.4755e-13 -1.38698e-12)
(-2.16801e-12 -5.34818e-14 -1.24775e-12)
(-8.61972e-13 -2.25442e-12 -2.52569e-12)
(-1.79695e-13 -1.97328e-12 -5.79388e-12)
(-8.22181e-13 -9.9722e-13 -8.42641e-12)
(-1.00188e-12 -6.20722e-13 -7.67388e-12)
(4.02957e-13 1.67499e-12 -5.85732e-12)
(1.01523e-12 4.93493e-14 -5.16104e-12)
(-1.13704e-12 -2.29296e-13 -5.12994e-12)
(-2.88106e-12 -1.16726e-12 -6.96458e-12)
(-3.11805e-12 -9.11964e-13 -6.40987e-12)
(-3.94505e-12 -4.14283e-14 -6.68634e-12)
(-1.09998e-12 1.74346e-12 -7.66921e-12)
(3.17877e-12 5.69745e-13 -4.38244e-12)
(1.07899e-12 -5.64693e-13 -4.46223e-13)
(-1.94692e-12 1.4578e-12 -1.63139e-11)
(2.16322e-12 1.02857e-12 -1.17305e-11)
(3.3454e-12 1.00239e-12 -9.00528e-12)
(1.73286e-12 1.25145e-12 -8.53065e-12)
(3.32748e-13 8.56457e-13 -7.962e-12)
(1.35887e-13 -1.79187e-14 -6.82467e-12)
(-1.00629e-12 7.19979e-13 -6.45294e-12)
(-3.49084e-12 8.35662e-14 -8.94141e-12)
(-1.01052e-12 6.03807e-13 -1.36673e-11)
(2.05202e-12 1.06005e-12 -7.33211e-12)
(-1.24867e-12 3.57076e-13 -1.36207e-11)
(4.37033e-14 1.88805e-13 -2.4287e-11)
(7.69828e-13 3.64372e-13 -2.4005e-11)
(-2.7844e-12 -3.34269e-13 -2.65667e-11)
(2.14444e-12 -1.84971e-13 -2.89353e-11)
(4.30579e-12 3.3236e-13 -1.98521e-11)
(6.44041e-13 -5.38254e-13 -9.98358e-12)
(2.68098e-12 1.94483e-13 -2.96526e-12)
(-3.14327e-14 5.39513e-13 1.14657e-12)
(-2.93806e-14 1.89049e-12 1.92195e-12)
(-1.09992e-12 2.75543e-12 1.84347e-12)
(5.4538e-13 2.24068e-12 1.89242e-12)
(2.07939e-12 2.63608e-12 1.99843e-12)
(6.77015e-13 1.56425e-12 1.74274e-12)
(-6.64669e-13 1.60817e-12 2.11954e-13)
(2.16967e-13 5.94742e-15 -3.24929e-12)
(3.53251e-13 1.36958e-13 -1.06326e-11)
(-3.31272e-12 1.02693e-14 -2.04126e-11)
(2.97446e-12 7.82591e-13 -2.60499e-11)
(2.74425e-12 -1.75382e-13 -2.21866e-11)
(8.38802e-14 -6.97804e-13 -2.31884e-11)
(-2.31204e-12 9.80433e-13 -2.21922e-11)
(-1.00587e-12 4.60302e-13 -2.46688e-11)
(3.56643e-12 9.20407e-13 -1.63361e-11)
(2.56151e-12 -4.67863e-13 -7.89501e-12)
(1.77675e-12 8.24113e-13 -5.03808e-12)
(4.40683e-13 4.62743e-13 -4.38195e-12)
(7.50986e-13 3.52038e-13 -3.57371e-12)
(-1.25806e-12 4.88036e-13 -2.6854e-12)
(-1.71804e-12 1.29382e-12 -2.83356e-12)
(-2.85235e-13 6.85354e-13 -1.91405e-12)
(-1.05195e-13 1.307e-12 -3.72028e-12)
(-5.18017e-13 1.68412e-12 -7.6506e-12)
(6.87061e-13 1.00288e-13 -1.0065e-11)
(2.75209e-12 3.44157e-13 -8.33075e-12)
(5.49653e-13 -1.37722e-13 -3.93131e-12)
(-3.17231e-13 5.8059e-13 -5.09511e-13)
(-9.2916e-13 -1.88197e-13 -6.81835e-13)
(-1.01141e-12 5.55185e-13 2.9007e-14)
(-1.58993e-13 -8.19193e-14 1.76314e-12)
(1.15281e-12 2.53446e-13 2.04626e-12)
(1.3089e-12 6.33403e-13 3.63762e-12)
(1.21506e-12 4.86872e-13 3.20309e-12)
(7.55604e-13 9.36123e-13 5.03906e-12)
(3.18314e-13 1.3564e-13 4.25425e-12)
(-3.34394e-13 7.77175e-13 3.46936e-12)
(-1.76411e-12 1.09264e-13 2.86615e-12)
(-2.4377e-12 7.14139e-15 3.12045e-12)
(2.62283e-13 4.87004e-13 1.43929e-12)
(1.36407e-12 -8.88851e-13 1.607e-13)
(1.00295e-12 -7.65274e-13 -1.05546e-12)
(4.52945e-14 3.86342e-13 -1.96351e-12)
(-1.48135e-12 7.51799e-13 -2.1893e-12)
(-3.2916e-13 9.07875e-13 -2.0238e-12)
(-4.8602e-13 1.40771e-12 -1.40403e-12)
(-1.4151e-12 1.91329e-12 -2.46886e-12)
(-9.05629e-13 1.97439e-12 -4.9504e-12)
(1.45438e-12 9.62288e-13 -7.30197e-12)
(1.74272e-12 1.42121e-12 -5.23364e-12)
(-1.57798e-12 2.1528e-12 -4.71177e-12)
(-9.12187e-14 2.2356e-12 -4.88857e-12)
(7.87549e-13 7.45241e-13 -5.62017e-12)
(-1.28491e-12 2.30402e-12 -7.44813e-12)
(-2.20991e-12 3.73935e-12 -9.94398e-12)
(-4.88336e-12 3.98562e-12 -1.04532e-11)
(-3.24959e-12 4.82351e-12 -1.2513e-11)
(-3.19376e-13 5.2969e-12 -1.23056e-11)
(-6.87835e-14 5.10188e-12 -8.25696e-12)
(2.29204e-13 5.17247e-12 -4.00154e-12)
(-2.79633e-12 5.81471e-12 -1.7789e-12)
(-2.67144e-12 5.64473e-12 -1.77652e-12)
(-3.77999e-13 4.5213e-12 -2.60541e-12)
(-1.00111e-12 4.66559e-12 -5.83556e-12)
(-1.40071e-12 5.01816e-12 -9.43692e-12)
(-1.92579e-12 6.13246e-12 -7.20759e-12)
(7.34112e-13 6.538e-12 -5.62487e-12)
(3.1371e-12 6.42823e-12 -4.9867e-12)
(-5.77896e-13 6.39361e-12 -4.72265e-12)
(-2.3909e-12 5.05835e-12 -5.72167e-12)
(-3.93215e-12 4.17775e-12 -6.24929e-12)
(-5.45854e-12 5.45211e-12 -7.66457e-12)
(-8.40447e-13 3.89346e-12 -1.07461e-11)
(3.83618e-12 5.21687e-12 -6.11587e-12)
(9.58606e-13 4.91177e-12 -8.18244e-13)
(2.7712e-13 -2.5854e-12 -1.03696e-11)
(7.06199e-13 -3.31472e-12 -8.01114e-12)
(6.65564e-13 -1.54561e-12 -6.64979e-12)
(1.24085e-12 -1.43814e-12 -6.24349e-12)
(7.09412e-13 -1.69163e-12 -6.26917e-12)
(-6.95622e-13 -2.0582e-12 -6.12205e-12)
(-8.67451e-13 -1.39952e-12 -6.48953e-12)
(-6.91514e-13 -1.93766e-12 -7.89905e-12)
(2.12302e-13 -4.20113e-12 -9.11399e-12)
(4.48404e-13 -2.98028e-12 -7.83515e-12)
(-4.95685e-13 -2.25785e-12 -1.09509e-11)
(-1.11901e-13 -4.33629e-12 -1.53348e-11)
(-3.37478e-13 -2.43369e-12 -1.61134e-11)
(-9.89988e-13 -3.00882e-12 -1.75636e-11)
(1.03198e-14 -3.77331e-12 -1.83656e-11)
(1.372e-12 -7.18728e-13 -1.43613e-11)
(1.04627e-12 -1.63094e-12 -7.86962e-12)
(1.35599e-12 -1.41152e-12 -2.8246e-12)
(1.54754e-14 -3.17948e-13 -5.25205e-13)
(-1.08873e-13 1.15865e-13 6.86548e-13)
(7.5407e-13 9.10014e-13 8.10682e-13)
(3.15791e-13 -1.61747e-13 8.69138e-13)
(3.53845e-13 1.21225e-12 7.00026e-13)
(1.28999e-12 5.07512e-14 1.58892e-14)
(2.116e-12 1.52022e-13 -1.44238e-12)
(1.36813e-12 -2.98378e-12 -2.98668e-12)
(1.18993e-13 -1.33102e-12 -7.6041e-12)
(-7.42626e-13 -3.3412e-12 -1.37186e-11)
(9.56969e-13 -3.64438e-12 -1.68306e-11)
(8.99422e-13 -1.78631e-12 -1.5704e-11)
(-2.25783e-13 -2.20234e-12 -1.51729e-11)
(-9.31038e-13 -9.76256e-13 -1.49515e-11)
(-4.48996e-13 -2.85282e-12 -1.48705e-11)
(6.25914e-13 -7.21009e-13 -1.0179e-11)
(1.17913e-12 -1.31289e-12 -4.35802e-12)
(5.76001e-13 8.706e-13 -1.75904e-12)
(-3.72348e-13 1.3532e-12 -7.27506e-13)
(9.71196e-14 1.02078e-12 3.21457e-13)
(5.91789e-14 2.81884e-13 1.05558e-12)
(2.44262e-13 -6.64502e-13 9.19697e-13)
(-1.84573e-13 -8.8088e-14 1.06069e-12)
(-7.09514e-13 -1.24994e-13 -4.95445e-13)
(6.29103e-13 -2.99021e-14 -3.44171e-12)
(1.10552e-12 -9.22256e-13 -5.38674e-12)
(7.66762e-13 -2.15566e-13 -5.05449e-12)
(-7.57494e-13 1.25254e-13 -3.48437e-12)
(-1.03383e-13 3.22451e-13 -2.37227e-12)
(4.41632e-13 -1.57083e-13 -1.38099e-12)
(9.33405e-14 -1.26871e-12 -9.14819e-13)
(1.4958e-13 -1.61598e-12 2.59131e-14)
(2.13063e-13 -2.01853e-12 5.59708e-13)
(8.12847e-13 -1.33931e-12 1.31007e-12)
(5.63897e-13 -3.65107e-13 1.84754e-12)
(1.24346e-12 7.14842e-14 2.59461e-12)
(6.10764e-13 -9.81784e-13 2.12053e-12)
(-4.12215e-13 -4.42133e-13 1.45801e-12)
(-5.0732e-13 -1.00178e-12 1.08341e-12)
(-1.05112e-12 -1.0128e-12 1.03835e-12)
(-2.90033e-13 -1.73312e-12 5.88834e-13)
(6.05072e-13 -1.58836e-12 1.27517e-12)
(7.03763e-13 -2.38597e-12 5.21806e-13)
(-9.62402e-13 -1.32537e-12 -3.61162e-13)
(-1.93281e-12 1.75407e-14 -4.27336e-13)
(-4.62257e-13 1.25957e-13 1.15816e-13)
(4.86548e-14 7.81708e-13 1.19118e-12)
(3.22386e-13 -2.05372e-13 1.56698e-13)
(-1.5464e-14 1.22273e-13 -1.51869e-12)
(5.64237e-13 -5.39301e-14 -2.70409e-12)
(6.55611e-13 1.87863e-12 -2.47564e-12)
(-5.24563e-13 1.15525e-12 -2.93343e-12)
(-7.53677e-13 -8.28853e-14 -3.9028e-12)
(-1.06391e-12 1.05712e-12 -5.27029e-12)
(-1.73336e-12 2.62572e-12 -6.53898e-12)
(-1.03564e-12 2.6968e-12 -7.42139e-12)
(-2.4696e-12 3.06988e-12 -8.40841e-12)
(-3.20428e-12 2.3257e-12 -9.55448e-12)
(-2.40027e-12 3.92305e-12 -1.0104e-11)