/*--------------------------------*- C++ -*----------------------------------*\
| =========                 |                                                 |
| \\      /  F ield         | OpenFOAM: The Open Source CFD Toolbox           |
|  \\    /   O peration     | Version:  2406                                  |
|   \\  /    A nd           | Website:  www.openfoam.com                      |
|    \\/     M anipulation  |                                                 |
\*---------------------------------------------------------------------------*/
FoamFile
{
    version     2.0;
    format      ascii;
    arch        "LSB;label=32;scalar=64";
    class       volVectorField;
    location    "0.08";
    object      U;
}
// * * * * * * * * * * * * * * * * * * * * * * * * * * * * * * * * * * * * * //

dimensions      [0 1 -1 0 0 0 0];

internalField   nonuniform List<vector> 
83682
(
(347.059 2.54724e-11 -2.43409e-11)
(347.059 2.16863e-11 -2.2965e-11)
(347.059 1.74554e-11 -2.33477e-11)
(347.059 1.25627e-11 -2.23304e-11)
(347.059 8.61561e-12 -2.28589e-11)
(347.059 1.45295e-14 -2.27006e-11)
(347.059 -7.50453e-12 -2.34861e-11)
(347.059 -5.64743e-12 -2.39603e-11)
(347.059 -5.83602e-12 -2.54585e-11)
(347.059 -7.63224e-12 -2.61916e-11)
(347.059 -1.10214e-11 -2.4933e-11)
(347.059 -1.0003e-11 -2.54415e-11)
(347.059 -8.0901e-12 -2.59457e-11)
(347.059 -5.1928e-12 -2.57632e-11)
(347.059 -6.02728e-12 -2.58898e-11)
(347.059 -6.33359e-12 -2.58112e-11)
(347.059 -5.53848e-12 -2.66418e-11)
(347.059 -1.84727e-12 -2.6571e-11)
(347.059 3.6929e-12 -2.71675e-11)
(347.059 8.68539e-12 -2.71038e-11)
(347.059 7.55051e-12 -2.72912e-11)
(347.059 4.82951e-12 -2.68401e-11)
(347.059 -2.43851e-12 -2.69134e-11)
(347.059 -9.88874e-12 -2.6724e-11)
(347.059 -1.25366e-11 -2.49617e-11)
(347.059 -1.09911e-11 -2.46835e-11)
(347.059 -6.57011e-12 -2.42397e-11)
(347.059 -3.20233e-12 -2.43789e-11)
(347.059 4.94663e-14 -2.37535e-11)
(347.059 9.12063e-15 -2.41325e-11)
(347.059 -4.03934e-12 -2.51091e-11)
(347.059 -3.44129e-12 -2.62017e-11)
(347.059 -3.03878e-12 -2.80124e-11)
(347.059 4.80319e-13 -2.88346e-11)
(347.059 5.06468e-12 -3.13195e-11)
(347.059 6.89035e-12 -3.33921e-11)
(347.059 5.97004e-12 -3.3986e-11)
(347.059 4.27706e-12 -3.4439e-11)
(347.059 6.75881e-12 -3.47897e-11)
(347.059 1.87272e-10 -4.27847e-11)
(347.058 -1.07007e-08 4.40807e-10)
(347.023 3.15798e-07 -1.4129e-08)
(346.101 -5.21641e-06 2.28855e-07)
(334.553 -1.05278e-05 5.25578e-07)
(319.387 0.000117834 -5.35467e-06)
(318.273 -2.17174e-05 9.10224e-07)
(318.276 -3.82003e-05 1.68622e-06)
(318.277 -3.12496e-05 1.39321e-06)
(318.278 -3.02541e-05 1.36038e-06)
(318.28 -2.23842e-05 1.02844e-06)
(318.28 2.51569e-06 -3.2847e-08)
(318.273 9.84508e-06 -3.82159e-07)
(318.273 1.80336e-05 -7.99337e-07)
(318.28 2.02938e-05 -9.28897e-07)
(318.291 1.60498e-05 -7.70446e-07)
(318.309 4.8474e-06 -2.66467e-07)
(318.326 -7.1661e-07 1.46343e-08)
(318.333 -5.17038e-06 2.5103e-07)
(318.334 -9.1796e-06 4.55117e-07)
(318.33 -1.02976e-05 5.03085e-07)
(318.329 -8.88134e-06 4.37032e-07)
(318.326 -2.32623e-06 1.37547e-07)
(318.322 3.01853e-06 -1.33572e-07)
(318.326 3.52356e-06 -1.6632e-07)
(318.328 2.16703e-06 -1.06033e-07)
(318.329 1.82821e-06 -9.07479e-08)
(318.33 -7.93286e-07 -1.12293e-08)
(318.331 -7.66599e-06 2.61001e-07)
(318.338 -8.8248e-06 3.20839e-07)
(318.341 -9.23849e-06 3.53589e-07)
(318.343 -7.07903e-06 2.79201e-07)
(318.344 -6.94821e-06 2.87947e-07)
(318.343 -3.96738e-06 1.62807e-07)
(318.338 2.40022e-06 -4.63095e-08)
(318.327 3.87975e-06 -1.10302e-07)
(318.319 6.22527e-06 -2.10912e-07)
(318.313 7.17625e-06 -2.54722e-07)
(318.309 6.2742e-06 -2.24892e-07)
(318.308 4.34798e-06 -1.5746e-07)
(318.31 -2.1632e-06 6.75915e-08)
(318.317 -5.11832e-06 1.77343e-07)
(318.319 -7.1885e-06 2.5529e-07)
(318.318 -8.2554e-06 2.91608e-07)
(318.315 -7.79272e-06 2.70835e-07)
(318.31 -3.33309e-06 8.50503e-08)
(318.305 5.59191e-06 -2.98795e-07)
(318.299 1.11937e-05 -5.51675e-07)
(318.298 9.7071e-06 -4.91385e-07)
(318.3 9.26252e-06 -4.69685e-07)
(318.304 8.72026e-06 -4.46231e-07)
(318.309 7.24205e-06 -3.72435e-07)
(318.313 -5.84296e-06 2.05571e-07)
(318.321 -1.53352e-05 6.15392e-07)
(318.326 -1.56334e-05 6.26189e-07)
(318.329 -1.3213e-05 5.18922e-07)
(318.331 -1.38619e-05 5.51227e-07)
(318.333 -1.13372e-05 4.45036e-07)
(318.335 -1.28064e-06 1.70952e-08)
(318.333 5.60991e-06 -2.70966e-07)
(318.33 6.85551e-06 -3.19976e-07)
(318.328 8.27786e-06 -3.7463e-07)
(318.325 8.51632e-06 -3.8307e-07)
(318.323 7.25839e-06 -3.24149e-07)
(318.321 4.65379e-06 -2.06244e-07)
(318.322 1.1221e-06 -6.31717e-08)
(318.326 5.8006e-07 -4.27162e-08)
(318.327 -4.62282e-08 -2.69833e-08)
(318.328 -3.48057e-07 -1.96677e-08)
(318.328 3.61822e-07 -3.88649e-08)
(318.328 1.15184e-06 -8.92214e-08)
(318.326 6.39573e-07 -7.71441e-08)
(318.321 -1.00792e-06 1.26208e-09)
(318.318 -2.31741e-06 6.23971e-08)
(318.316 -3.2561e-06 1.03027e-07)
(318.315 -3.85719e-06 1.32416e-07)
(318.315 -3.80315e-06 1.29715e-07)
(318.317 -3.25815e-06 9.82676e-08)
(318.322 -2.88088e-06 7.7454e-08)
(318.325 -1.48119e-06 8.27604e-09)
(318.328 -8.48746e-08 -2.5372e-08)
(318.33 2.38184e-07 -3.1096e-08)
(318.331 2.07456e-07 -3.2743e-08)
(318.329 1.46337e-07 -4.62464e-08)
(318.324 1.68594e-07 -4.86338e-08)
(318.321 3.42603e-07 -5.59765e-08)
(318.318 -2.45758e-07 -6.96942e-08)
(318.316 -7.20114e-07 -4.3491e-08)
(318.314 2.68101e-07 -5.87658e-08)
(318.312 1.36986e-06 -9.69158e-08)
(318.315 1.76633e-06 -1.16053e-07)
(318.316 1.63083e-06 -1.19006e-07)
(318.317 1.53207e-06 -1.01877e-07)
(318.317 2.02793e-06 -1.49915e-07)
(318.318 1.54618e-06 -1.55357e-07)
(318.319 2.7649e-07 -8.16756e-08)
(318.319 -2.0723e-07 -4.51411e-08)
(318.319 -4.42005e-07 -1.36378e-08)
(318.32 -5.42347e-07 2.19259e-08)
(318.32 -6.10544e-07 4.2517e-08)
(318.32 -6.57542e-07 4.33172e-08)
(318.321 -6.086e-07 3.57762e-08)
(318.322 -5.9732e-07 3.26328e-08)
(318.324 -6.84435e-07 3.81426e-08)
(318.327 -1.01604e-06 4.68425e-08)
(318.33 -1.64045e-06 6.77176e-08)
(318.334 -2.26653e-06 1.04059e-07)
(318.336 -2.92957e-06 1.5074e-07)
(318.335 -3.31339e-06 1.72423e-07)
(318.333 -3.50523e-06 1.86135e-07)
(318.331 -3.74822e-06 2.13349e-07)
(318.327 -3.52741e-06 1.87543e-07)
(318.323 -2.78435e-06 1.80658e-07)
(318.319 -2.30421e-06 1.3776e-07)
(318.316 -8.73986e-07 9.39249e-08)
(318.316 -5.68791e-07 7.39306e-08)
(318.317 -6.42876e-07 6.7313e-08)
(318.317 -4.83505e-07 7.16068e-08)
(318.317 -7.737e-07 9.36274e-08)
(318.317 -6.86877e-07 8.76114e-08)
(318.317 -5.41402e-07 8.14666e-08)
(318.317 -1.27671e-07 6.23399e-08)
(318.317 3.62467e-07 5.47351e-08)
(318.318 1.38533e-07 4.0233e-08)
(318.319 3.00471e-07 6.55722e-08)
(318.321 -8.89594e-07 2.99004e-08)
(318.322 1.46248e-06 1.02658e-07)
(318.32 1.29978e-05 -5.10674e-07)
(318.312 -4.19478e-06 6.92129e-08)
(318.303 -1.78648e-05 7.33838e-07)
(318.306 -3.78902e-06 2.51937e-08)
(318.324 -3.97095e-05 2.00035e-06)
(318.39 0.000130571 -6.27442e-06)
(318.533 -0.000226125 1.15452e-05)
(318.765 0.000439499 -2.05331e-05)
(319.072 -0.00036339 1.53204e-05)
(319.428 0.000181927 -1.75227e-06)
(319.81 0.000267377 -2.41165e-05)
(320.199 -0.000634595 3.62723e-05)
(320.585 7.34497e-05 -1.16636e-06)
(320.962 0.000839558 -4.96845e-05)
(321.318 -0.00165192 7.02275e-05)
(321.631 -0.00113364 4.83416e-05)
(321.884 -0.000696616 4.10297e-05)
(322.067 0.0040083 -0.000135812)
(322.162 0.00279543 -0.000115042)
(322.191 0.00122232 -6.61586e-05)
(322.187 -0.00252815 6.09596e-05)
(322.178 -0.0027324 8.76604e-05)
(322.161 -0.00257658 9.55238e-05)
(322.137 -0.0021912 9.64449e-05)
(322.112 -0.00186554 9.56633e-05)
(322.087 -0.00159076 7.57103e-05)
(322.064 -0.00132245 4.36245e-05)
(322.047 -0.0012983 3.35432e-05)
(322.037 -0.00114388 4.38014e-05)
(322.027 -0.00114255 7.48411e-06)
(322.01 -0.00109452 2.33809e-05)
(321.969 -0.0010953 4.90307e-05)
(321.871 -0.000911822 3.61216e-05)
(321.661 -0.00123103 -0.000349484)
(321.291 -0.00168971 0.000891555)
(320.814 0.00100358 0.000372675)
(320.385 -0.00081236 -0.00223047)
(320.089 -0.00301209 0.000347206)
(319.889 -0.000667928 0.00178397)
(319.731 0.000816926 0.000594415)
(319.591 0.000564729 -0.000755458)
(319.463 -0.000541976 -0.00109476)
(319.347 -0.0012139 -0.000258952)
(319.245 -0.00108807 0.000726878)
(319.158 -2.71528e-05 0.000857712)
(319.086 0.000353981 0.000137297)
(319.029 -0.000366923 -0.00071167)
(318.984 -0.00070286 -0.000733669)
(318.95 -0.000421758 -0.000223782)
(318.924 -8.5155e-05 0.000111595)
(318.903 1.09324e-05 0.00013361)
(318.887 6.9813e-05 8.33494e-05)
(318.873 -9.0824e-05 8.62664e-05)
(318.861 -0.000438141 0.000273967)
(318.85 -0.000526473 0.000345523)
(318.839 -0.000430983 0.000296517)
(318.828 -5.79606e-05 -1.52602e-05)
(318.817 6.22053e-05 -0.000117935)
(318.805 9.1036e-05 -0.000136971)
(318.792 7.23709e-05 -7.61355e-05)
(318.779 4.12931e-05 -2.09049e-05)
(318.765 3.45088e-05 -3.15375e-05)
(318.75 1.4688e-05 -9.19278e-05)
(318.736 -4.6415e-05 -0.000129368)
(318.721 -0.000147682 -6.51255e-05)
(318.707 -0.000234934 4.9814e-05)
(318.695 -0.000252438 0.000115658)
(318.687 -0.000235106 0.000119107)
(318.683 -0.000178838 9.80574e-05)
(318.681 -8.81148e-05 5.95183e-05)
(318.68 2.54419e-07 2.76093e-05)
(318.681 6.06634e-05 1.12156e-05)
(318.682 0.000101211 2.38769e-06)
(318.683 9.53758e-05 -1.84554e-05)
(318.682 6.24987e-05 -3.33548e-05)
(318.681 1.42677e-05 -4.52423e-05)
(318.68 -5.32907e-05 -5.7932e-05)
(318.678 -0.000112818 -6.5067e-05)
(318.676 -0.00014008 -5.78442e-05)
(318.673 -0.00011464 -3.46818e-05)
(318.67 -5.04636e-05 -5.80382e-06)
(318.666 2.67455e-05 1.43033e-05)
(318.662 8.57899e-05 1.84196e-05)
(318.657 9.6347e-05 1.31558e-05)
(318.651 5.30845e-05 8.42502e-06)
(318.644 -1.67234e-05 9.32946e-06)
(318.637 -7.51154e-05 1.26178e-05)
(318.631 -9.65482e-05 1.44683e-05)
(318.626 -8.80062e-05 1.30928e-05)
(318.623 -6.58202e-05 8.56403e-06)
(318.62 -2.34944e-05 3.18278e-08)
(318.619 1.68985e-05 -7.17358e-06)
(318.619 3.43026e-05 -9.02292e-06)
(318.619 3.13192e-05 -7.17751e-06)
(318.62 1.43751e-05 -8.77436e-07)
(318.62 -1.10352e-05 2.05862e-05)
(318.62 -5.18758e-05 3.04859e-05)
(318.619 -6.94462e-05 6.76067e-05)
(318.618 -6.9669e-05 7.89139e-05)
(318.616 -5.76029e-05 9.24792e-05)
(318.615 -1.21976e-05 9.70125e-05)
(318.614 2.44433e-05 9.43916e-05)
(318.612 3.85534e-05 9.11375e-05)
(318.609 4.03106e-05 8.39648e-05)
(318.605 2.71485e-05 7.00229e-05)
(318.6 2.9422e-06 5.35355e-05)
(318.595 -2.23799e-05 3.88107e-05)
(318.59 -4.25634e-05 2.84903e-05)
(318.584 -5.35035e-05 2.4024e-05)
(318.579 -5.10487e-05 2.54201e-05)
(318.575 -4.32593e-05 2.83808e-05)
(318.57 -3.09048e-05 3.25394e-05)
(318.566 -6.385e-06 3.96551e-05)
(318.562 1.63531e-05 4.5404e-05)
(318.558 2.79631e-05 4.66531e-05)
(318.555 2.83089e-05 4.53015e-05)
(318.553 1.06747e-05 3.43295e-05)
(318.551 -6.50468e-06 2.67184e-05)
(318.551 -3.45956e-05 6.80403e-06)
(318.549 -5.33412e-05 -3.21314e-06)
(318.546 -6.42401e-05 -6.3585e-06)
(318.543 -7.53627e-05 -1.12341e-05)
(318.54 -7.81138e-05 -1.1595e-05)
(318.537 -6.29601e-05 2.65145e-06)
(318.534 -4.71317e-05 1.49575e-05)
(318.532 -3.32852e-05 2.31482e-05)
(318.529 -2.25369e-05 2.85988e-05)
(318.527 -1.1892e-05 3.3075e-05)
(318.524 -3.13379e-07 3.48132e-05)
(318.521 1.11382e-05 3.20379e-05)
(318.519 2.19132e-05 2.40808e-05)
(318.516 2.91307e-05 1.27395e-05)
(318.514 2.85638e-05 1.41177e-06)
(318.511 1.70051e-05 -7.8807e-06)
(318.51 4.07272e-06 -1.1651e-05)
(318.509 -7.18433e-06 -1.20174e-05)
(318.508 -3.10851e-05 -1.02908e-05)
(318.507 -5.55703e-05 -5.89316e-06)
(318.506 -6.7713e-05 -1.99583e-07)
(318.505 -5.60983e-05 6.00108e-06)
(318.505 -4.79967e-05 1.01482e-05)
(318.507 -1.57577e-05 1.47478e-05)
(318.508 2.32908e-05 1.77591e-05)
(318.509 4.38984e-05 1.85187e-05)
(318.51 6.42451e-05 1.95398e-05)
(318.509 9.13842e-05 2.13793e-05)
(318.507 0.000102849 2.15708e-05)
(318.503 9.47781e-05 1.93189e-05)
(318.499 7.58036e-05 1.59918e-05)
(318.495 5.1134e-05 1.19213e-05)
(318.492 2.50245e-05 7.65731e-06)
(318.489 -1.4432e-06 2.37259e-06)
(318.486 -2.41961e-05 -4.157e-06)
(318.483 -3.74496e-05 -1.02435e-05)
(318.48 -4.42341e-05 -1.46744e-05)
(318.477 -4.47306e-05 -1.73193e-05)
(318.474 -4.29241e-05 -1.89097e-05)
(318.472 -3.8335e-05 -2.08822e-05)
(318.471 -3.0081e-05 -2.23634e-05)
(318.471 -1.72649e-05 -2.41422e-05)
(318.471 -3.63538e-06 -2.58961e-05)
(318.471 7.62928e-06 -2.64042e-05)
(318.47 2.09087e-05 -2.79292e-05)
(318.469 3.43451e-05 -3.02779e-05)
(318.469 4.01935e-05 -3.00764e-05)
(318.47 3.71244e-05 -2.63501e-05)
(318.47 2.73762e-05 -1.9601e-05)
(318.469 1.73205e-05 -1.27937e-05)
(318.468 9.3062e-06 -6.74171e-06)
(318.467 -3.55667e-06 4.32473e-06)
(318.464 -1.36137e-05 1.74932e-05)
(318.462 -1.74079e-05 2.96871e-05)
(318.459 -1.60404e-05 3.88197e-05)
(318.456 -1.24224e-05 4.64329e-05)
(318.453 -5.32963e-06 5.26337e-05)
(318.451 1.43501e-06 5.70692e-05)
(318.451 4.18216e-06 5.83629e-05)
(318.453 6.43364e-06 5.8208e-05)
(318.456 8.17768e-06 5.57353e-05)
(318.458 1.01395e-05 5.04577e-05)
(318.459 7.82184e-06 4.15325e-05)
(318.459 6.45567e-06 3.0465e-05)
(318.459 5.97594e-06 2.02028e-05)
(318.459 6.56863e-06 9.65141e-06)
(318.461 9.69248e-07 -1.36407e-06)
(318.463 -1.22025e-05 -1.07362e-05)
(318.467 -2.38727e-05 -2.07431e-05)
(318.469 -3.43473e-05 -3.08848e-05)
(318.471 -4.63048e-05 -4.01333e-05)
(318.471 -5.55316e-05 -4.93414e-05)
(318.471 -5.32897e-05 -5.70602e-05)
(318.47 -4.91333e-05 -6.01437e-05)
(318.469 -3.53939e-05 -6.59484e-05)
(318.469 -9.74406e-06 -7.3962e-05)
(318.469 2.08285e-05 -8.19934e-05)
(318.468 4.81494e-05 -8.89822e-05)
(318.465 6.65468e-05 -9.38739e-05)
(318.462 7.41107e-05 -9.6237e-05)
(318.458 7.47062e-05 -9.66643e-05)
(318.455 7.04679e-05 -9.57531e-05)
(318.452 6.04547e-05 -9.39873e-05)
(318.45 4.94177e-05 -9.19673e-05)
(318.449 4.03042e-05 -9.02623e-05)
(318.448 2.58013e-05 -8.68291e-05)
(318.448 1.32435e-05 -8.33575e-05)
(318.447 3.31779e-06 -8.01026e-05)
(318.447 -6.47986e-06 -7.50188e-05)
(318.448 -1.57031e-05 -6.78578e-05)
(318.448 -2.21549e-05 -5.93552e-05)
(318.448 -2.6403e-05 -4.89743e-05)
(318.449 -2.94594e-05 -3.90542e-05)
(318.449 -3.10962e-05 -3.0561e-05)
(318.447 -2.75598e-05 -2.32467e-05)
(318.445 -1.91613e-05 -1.87619e-05)
(318.442 -1.48915e-05 -1.74486e-05)
(318.44 -7.87313e-06 -1.58492e-05)
(318.438 -5.63815e-07 -1.57053e-05)
(318.435 6.75535e-06 -1.65097e-05)
(318.432 1.06546e-05 -1.78806e-05)
(318.43 8.15654e-06 -2.00853e-05)
(318.427 5.44464e-06 -2.30829e-05)
(318.422 5.48267e-06 -2.44267e-05)
(318.417 1.08709e-06 -2.44557e-05)
(318.413 -5.87684e-06 -2.45879e-05)
(318.41 -5.53481e-06 -2.39652e-05)
(318.407 -3.89856e-06 -2.27433e-05)
(318.406 -3.57747e-06 -2.03437e-05)
(318.405 -3.83765e-07 -1.59883e-05)
(318.403 9.43577e-06 -1.15775e-05)
(318.402 1.24432e-05 -7.37817e-06)
(318.401 8.53982e-06 -2.62956e-06)
(318.4 5.94606e-06 1.16632e-06)
(318.4 1.02934e-05 4.48963e-06)
(318.4 9.3424e-06 8.23414e-06)
(318.401 4.09748e-06 1.22788e-05)
(318.404 1.524e-06 1.44036e-05)
(318.408 3.2781e-06 1.60336e-05)
(318.412 4.01877e-06 1.92162e-05)
(318.413 9.87223e-07 2.11603e-05)
(318.413 1.13143e-06 2.30214e-05)
(318.412 8.69453e-06 2.3522e-05)
(318.411 1.06906e-05 2.44728e-05)
(318.41 -1.03988e-06 2.56998e-05)
(318.409 -5.89338e-06 2.48304e-05)
(318.41 1.05814e-06 2.38098e-05)
(318.409 9.89383e-07 2.43617e-05)
(318.408 -5.01673e-06 2.64016e-05)
(318.406 -7.46666e-06 2.85266e-05)
(318.404 -5.63827e-06 3.01195e-05)
(318.402 -2.6975e-06 3.24436e-05)
(318.4 -1.02853e-06 3.73965e-05)
(318.4 -2.3912e-07 4.38774e-05)
(318.4 4.55064e-06 5.13568e-05)
(318.401 1.14135e-05 5.79106e-05)
(318.401 1.00834e-05 6.33082e-05)
(318.401 4.95407e-06 6.69731e-05)
(318.401 4.82733e-06 6.8618e-05)
(318.402 8.46022e-06 6.8799e-05)
(318.402 8.85782e-06 6.70809e-05)
(318.402 7.43697e-06 6.5538e-05)
(318.402 5.24966e-06 6.19569e-05)
(318.401 6.06152e-06 5.86807e-05)
(318.4 4.25063e-06 5.41379e-05)
(318.398 1.63469e-06 5.21298e-05)
(318.396 -1.4661e-06 4.85228e-05)
(318.393 -5.71493e-06 4.44547e-05)
(318.391 -2.20144e-06 4.62742e-05)
(318.388 -2.77707e-06 4.25034e-05)
(318.387 -7.56643e-06 3.94873e-05)
(318.387 -6.38505e-06 3.53008e-05)
(318.387 -3.50491e-06 2.94053e-05)
(318.386 -3.37225e-06 2.58121e-05)
(318.385 -1.85959e-07 2.23294e-05)
(318.383 2.48513e-06 1.64218e-05)
(318.383 2.78619e-06 9.8975e-06)
(318.383 2.55453e-07 2.97225e-06)
(318.383 9.48206e-06 -6.47069e-06)
(318.384 2.05276e-05 -1.62742e-05)
(318.385 7.20618e-06 -2.32456e-05)
(318.384 -6.24449e-06 -2.9717e-05)
(318.382 -7.67175e-06 -3.61578e-05)
(318.381 -9.08154e-06 -4.02517e-05)
(318.38 -1.25706e-05 -4.14263e-05)
(318.379 -1.55849e-05 -4.17684e-05)
(318.378 -1.5446e-05 -4.09968e-05)
(318.378 -1.59215e-05 -3.85816e-05)
(318.378 -2.26155e-05 -3.50291e-05)
(318.377 -2.93412e-05 -2.72951e-05)
(318.375 -1.30663e-05 -1.96447e-05)
(318.373 -6.44431e-07 -1.28275e-05)
(318.372 -4.96701e-07 -4.68117e-06)
(318.371 3.49322e-07 3.58055e-06)
(318.371 5.05529e-06 8.63745e-06)
(318.372 8.03122e-06 1.29458e-05)
(318.374 4.82027e-06 1.99674e-05)
(318.375 2.16476e-06 2.53781e-05)
(318.376 4.77786e-06 2.72439e-05)
(318.376 3.89931e-06 2.64005e-05)
(318.377 5.77455e-06 2.31767e-05)
(318.379 6.00813e-06 1.9601e-05)
(318.379 2.27691e-06 1.53256e-05)
(318.379 4.01231e-06 8.00994e-06)
(318.379 6.90162e-06 -1.04126e-06)
(318.378 4.6726e-06 -6.36379e-06)
(318.376 4.55094e-06 -1.31831e-05)
(318.373 1.29565e-05 -2.36074e-05)
(318.369 4.8708e-06 -3.3266e-05)
(318.367 -5.23487e-06 -4.09788e-05)
(318.364 3.39231e-06 -4.92452e-05)
(318.361 8.70089e-06 -5.65656e-05)
(318.359 -7.1379e-06 -6.17745e-05)
(318.357 -1.50692e-06 -6.74455e-05)
(318.354 1.12544e-05 -7.2125e-05)
(318.351 5.64231e-06 -7.35827e-05)
(318.347 4.01536e-06 -7.45394e-05)
(318.344 7.57047e-06 -7.57985e-05)
(318.341 3.46844e-06 -7.53328e-05)
(318.339 4.36539e-07 -7.39347e-05)
(318.337 7.69557e-07 -7.14928e-05)
(318.337 -7.81359e-06 -6.73038e-05)
(318.337 -9.64972e-06 -6.278e-05)
(318.337 2.03248e-05 -6.00635e-05)
(318.335 1.99992e-05 -5.58459e-05)
(318.333 -2.04709e-05 -4.80702e-05)
(318.332 -1.5456e-05 -4.34184e-05)
(318.332 1.55684e-06 -4.05839e-05)
(318.333 -4.98207e-06 -3.7924e-05)
(318.336 -2.2735e-05 -3.36245e-05)
(318.339 -1.22446e-06 -3.09166e-05)
(318.339 2.89268e-05 -2.94337e-05)
(318.336 -1.40221e-05 -2.54031e-05)
(318.332 -0.000110132 -1.89414e-05)
(318.329 -1.9749e-05 -2.1558e-05)
(318.327 8.51137e-05 -2.39451e-05)
(318.326 3.92118e-05 -2.13832e-05)
(318.326 -4.42326e-05 -1.68356e-05)
(318.328 -1.70196e-05 -1.71674e-05)
(318.329 5.9171e-06 -1.77272e-05)
(318.327 2.34977e-06 -1.68114e-05)
(318.326 -2.73494e-05 -1.48183e-05)
(318.327 -1.33993e-05 -1.52103e-05)
(318.328 1.35857e-05 -1.56196e-05)
(318.329 6.73128e-06 -1.5163e-05)
(318.331 -1.50661e-05 -1.41819e-05)
(318.334 -4.02353e-05 -1.22065e-05)
(318.339 -7.02107e-06 -1.30406e-05)
(318.342 2.91306e-05 -1.28559e-05)
(318.344 1.35418e-05 -1.13218e-05)
(318.346 2.84109e-06 -1.08308e-05)
(318.347 1.48116e-05 -1.10269e-05)
(318.346 9.27802e-06 -1.07159e-05)
(318.345 -3.40304e-05 -8.26995e-06)
(318.347 -3.37837e-05 -7.06904e-06)
(318.348 -1.64183e-05 -6.93851e-06)
(318.347 9.95056e-06 -7.29102e-06)
(318.344 4.89362e-05 -6.67775e-06)
(318.342 3.37638e-05 -5.08383e-06)
(318.34 -4.95885e-05 -1.00297e-06)
(318.34 -2.76653e-05 -2.16339e-06)
(318.34 1.66859e-05 -4.43493e-06)
(318.34 1.90009e-05 -4.68796e-06)
(318.342 -2.32264e-05 -3.35197e-06)
(318.344 -3.38947e-06 -4.22107e-06)
(318.345 7.25076e-05 -8.46819e-06)
(318.346 4.54985e-05 -9.64968e-06)
(318.348 -9.885e-05 -1.36628e-06)
(318.349 -5.7146e-05 -2.5781e-06)
(318.35 5.96115e-05 -6.90526e-06)
(318.351 2.40399e-05 -5.62916e-06)
(318.352 -3.999e-05 2.10545e-07)
(318.354 -3.72696e-05 -2.25423e-06)
(318.354 -2.88957e-05 6.98908e-07)
(318.353 -3.92188e-05 8.85835e-06)
(318.353 -3.95245e-05 1.39309e-05)
(318.354 -3.20859e-05 1.71039e-05)
(318.355 -2.977e-05 2.72522e-05)
(318.357 2.64249e-05 3.67407e-05)
(318.358 0.000170209 2.54702e-05)
(318.359 7.72358e-05 4.41891e-05)
(318.359 -0.000141405 5.9516e-05)
(318.356 -0.000149307 4.77918e-05)
(318.354 -2.96361e-05 3.68295e-05)
(318.354 7.22439e-05 3.24369e-05)
(318.354 9.03589e-05 2.26406e-05)
(318.354 0.000123772 -1.85804e-05)
(318.355 0.000183984 -3.68225e-05)
(318.357 0.000294426 -2.72439e-05)
(318.358 0.000202144 5.15222e-05)
(318.358 -5.12681e-06 0.000155733)
(318.357 -0.000144434 0.000189578)
(318.359 -0.000210178 0.000152816)
(318.362 -0.000271654 4.38659e-05)
(318.366 -0.00030286 -2.70867e-05)
(318.367 -0.000275565 -0.000223823)
(318.369 -0.000132554 -0.000386991)
(318.369 1.20936e-05 -0.000398764)
(318.368 -3.9197e-05 -0.000172645)
(318.365 0.000133475 0.000159486)
(318.364 0.000126347 0.000513705)
(318.365 -9.11223e-05 0.000733854)
(318.363 -8.1265e-05 0.000658537)
(318.362 -0.000120049 0.000261004)
(318.361 -0.000230677 -0.000255513)
(318.363 -0.00119866 -0.000327407)
(318.362 -0.00271869 0.000102729)
(318.363 -0.00441589 0.00095728)
(318.363 -0.00848672 0.00259928)
(318.371 -0.0148865 0.0042809)
(318.377 -0.0230545 0.00472936)
(318.387 -0.0342255 0.00347905)
(318.395 -0.0508971 0.000915459)
(318.414 -0.0721282 -0.00258703)
(318.434 -0.093427 -0.00779113)
(318.459 -0.121354 -0.011577)
(318.488 -0.151231 -0.0134922)
(318.527 -0.183797 -0.0113944)
(318.573 -0.210057 -0.00585154)
(318.62 -0.233389 0.00392833)
(318.675 -0.252796 0.0169809)
(318.731 -0.250778 0.0276154)
(318.788 -0.228179 0.0339951)
(318.835 -0.190115 0.0358916)
(318.873 -0.122963 0.0290978)
(318.893 -0.0192768 0.01018)
(318.895 0.102389 -0.0175016)
(318.878 0.217207 -0.04548)
(318.838 0.335733 -0.0777902)
(318.769 0.429676 -0.105493)
(318.685 0.483527 -0.128403)
(318.581 0.447154 -0.131514)
(318.415 0.386151 -0.120679)
(318.394 0.273624 -0.0843223)
(318.405 0.146447 -0.0416894)
(318.075 0.0682798 -0.0187282)
(318.1 0.0465692 -0.0129386)
(318.163 0.0435277 -0.0120492)
(318.205 0.0373729 -0.0100994)
(318.259 0.031317 -0.00828211)
(318.304 0.0277621 -0.0074285)
(318.311 0.0212918 -0.00566379)
(318.284 0.0172434 -0.00445085)
(318.24 0.0130178 -0.00292285)
(318.192 0.00888222 -0.00132034)
(318.151 0.00553268 -5.62947e-05)
(318.123 0.00317555 0.000771177)
(318.12 0.00182252 0.00120471)
(318.15 0.000906804 0.00147156)
(318.201 0.000215233 0.00164634)
(318.25 -0.000229303 0.00173297)
(318.268 -0.000438844 0.00175765)
(318.272 -0.000486467 0.0017543)
(318.266 -0.000477723 0.00172433)
(318.244 -0.000403773 0.00166853)
(318.206 -0.000320939 0.00159417)
(318.165 -0.000264387 0.00150257)
(318.149 -0.000249592 0.00140647)
(318.151 -0.000266606 0.00134619)
(318.156 -0.000308193 0.0012502)
(318.171 -0.000354457 0.00113853)
(318.195 -0.000365682 0.00102063)
(318.212 -0.000329082 0.000902571)
(318.219 -0.000269469 0.000790764)
(318.259 -0.000175855 0.000663068)
(318.411 -9.91754e-05 0.00056779)
(318.843 4.78919e-05 0.000523641)
(319.574 -0.000350217 0.000267919)
(320.509 0.000230332 0.000578901)
(321.565 -0.000336672 0.000256863)
(322.689 0.000323143 -0.000314126)
(323.854 -0.000935558 0.000506959)
(325.047 0.000500227 0.000847646)
(326.253 -0.000231562 -0.00118323)
(327.466 -4.62681e-05 -0.000510805)
(328.677 -0.000866524 0.00171127)
(329.886 0.000387456 -0.000120018)
(331.093 3.42239e-05 -0.00256911)
(332.303 -3.92307e-05 0.000619033)
(333.521 -0.000328177 0.00253044)
(334.748 0.00126977 -0.00232844)
(335.985 0.000898982 -0.00362264)
(337.233 0.000361467 0.0031316)
(338.49 0.000155615 0.00333554)
(339.75 0.00259059 -0.00529571)
(341.009 0.00166659 -0.00448467)
(342.264 8.23896e-05 0.00603532)
(343.514 0.000651227 0.00432537)
(344.759 0.00249786 -0.00796597)
(346.001 0.000567283 -0.00610744)
(347.245 -0.00154146 0.00805887)
(348.494 -0.000751703 0.0066769)
(349.748 0.000871281 -0.0101389)
(351.01 -0.0010509 -0.010507)
(352.279 -0.00335631 0.00884509)
(353.553 -0.00387055 0.0118013)
(354.828 -0.00290573 -0.0101194)
(356.101 -0.00368601 -0.0175719)
(357.369 -0.00531895 0.0047859)
(358.635 -0.00660096 0.0176069)
(359.895 -0.00597875 -0.00291409)
(361.154 -0.00439698 -0.0213599)
(362.411 -0.00373459 -0.00464087)
(363.673 -0.00484061 0.0206816)
(364.938 -0.00574861 0.0123446)
(366.208 -0.00401485 -0.0161024)
(367.482 -0.000135272 -0.0156901)
(368.755 0.00217899 0.0158698)
(370.031 0.0016743 0.0285988)
(371.302 0.000639212 0.00265596)
(372.571 0.00342437 -0.0183278)
(373.833 0.0104639 0.000822196)
(375.092 0.0127832 0.0317551)
(376.35 0.00500104 0.0286019)
(377.609 -0.00122232 -0.00377336)
(378.872 0.0053202 -0.0170377)
(380.133 0.0140907 0.010239)
(381.4 0.00858254 0.0386877)
(382.669 -0.00614845 0.0257013)
(383.94 -0.0107838 -0.00882221)
(385.211 0.00162312 -0.0136905)
(386.472 0.0121424 0.0156912)
(387.733 0.00225011 0.0347439)
(388.985 -0.0145167 0.0191813)
(390.231 -0.0109762 -0.00220126)
(391.463 0.0018858 -0.0015175)
(392.68 0.00307534 0.0113575)
(393.884 -0.00341425 0.0195547)
(395.094 -0.00684013 0.0159947)
(396.446 -0.00553195 0.00933297)
(398.985 -0.00613302 0.00657069)
(347.059 2.61297e-11 -2.26315e-11)
(347.059 2.21249e-11 -2.19129e-11)
(347.059 1.60634e-11 -2.16384e-11)
(347.059 9.19191e-12 -2.25253e-11)
(347.059 1.00631e-11 -2.25792e-11)
(347.059 6.58559e-12 -2.29688e-11)
(347.059 -2.29957e-12 -2.34137e-11)
(347.059 -4.37013e-12 -2.35185e-11)
(347.059 -5.93933e-12 -2.4745e-11)
(347.059 -5.80815e-12 -2.5178e-11)
(347.059 -6.55356e-12 -2.52297e-11)
(347.059 -5.04188e-12 -2.6452e-11)
(347.059 -5.24047e-12 -2.70242e-11)
(347.059 -4.21987e-12 -2.71862e-11)
(347.059 -7.35879e-12 -2.82934e-11)
(347.059 -7.50841e-12 -2.87656e-11)
(347.059 -6.38875e-12 -2.91023e-11)
(347.059 -3.59479e-12 -2.91202e-11)
(347.059 1.207e-12 -2.87213e-11)
(347.059 1.18787e-11 -2.8697e-11)
(347.059 1.0325e-11 -2.89374e-11)
(347.059 8.41039e-12 -2.85432e-11)
(347.059 3.15976e-12 -2.89566e-11)
(347.059 -2.63245e-12 -2.84123e-11)
(347.059 -5.97552e-12 -2.70619e-11)
(347.059 -4.85649e-12 -2.60753e-11)
(347.059 -3.36214e-12 -2.58512e-11)
(347.059 1.06014e-12 -2.61721e-11)
(347.059 6.04842e-13 -2.54603e-11)
(347.059 2.39147e-12 -2.65074e-11)
(347.059 6.22633e-13 -2.70085e-11)
(347.059 8.6776e-13 -2.8413e-11)
(347.059 7.52109e-13 -2.94675e-11)
(347.059 2.91651e-12 -3.10496e-11)
(347.059 8.78073e-12 -3.29035e-11)
(347.059 9.34353e-12 -3.40579e-11)
(347.059 7.20957e-12 -3.48221e-11)
(347.059 5.44799e-12 -3.49805e-11)
(347.059 7.67313e-12 -3.5155e-11)
(347.059 1.77386e-10 -4.27931e-11)
(347.058 -1.01817e-08 4.17604e-10)
(347.023 2.99816e-07 -1.34587e-08)
(346.101 -4.94432e-06 2.18004e-07)
(334.553 -1.03154e-05 5.0509e-07)
(319.387 0.000113064 -5.12638e-06)
(318.273 -2.09238e-05 8.78952e-07)
(318.276 -3.64922e-05 1.61096e-06)
(318.277 -3.01902e-05 1.34405e-06)
(318.278 -2.95538e-05 1.32489e-06)
(318.28 -2.21121e-05 1.00834e-06)
(318.28 2.25677e-06 -2.63369e-08)
(318.273 9.57496e-06 -3.71138e-07)
(318.273 1.79055e-05 -7.8681e-07)
(318.28 2.02466e-05 -9.17405e-07)
(318.291 1.61464e-05 -7.64421e-07)
(318.309 4.99281e-06 -2.69372e-07)
(318.326 -7.28214e-07 1.16822e-08)
(318.333 -5.39539e-06 2.51486e-07)
(318.334 -9.51953e-06 4.57219e-07)
(318.33 -1.05075e-05 5.00965e-07)
(318.329 -9.02617e-06 4.33776e-07)
(318.326 -2.51634e-06 1.39902e-07)
(318.322 2.83574e-06 -1.26143e-07)
(318.326 3.58332e-06 -1.62549e-07)
(318.328 2.41945e-06 -1.02898e-07)
(318.329 2.0338e-06 -8.77546e-08)
(318.33 -6.12295e-07 -9.35906e-09)
(318.331 -7.4747e-06 2.68188e-07)
(318.338 -8.69852e-06 3.33476e-07)
(318.341 -9.2992e-06 3.73712e-07)
(318.343 -7.24387e-06 2.97423e-07)
(318.344 -7.01077e-06 2.95906e-07)
(318.343 -4.10013e-06 1.69631e-07)
(318.338 2.10683e-06 -5.00072e-08)
(318.327 3.53089e-06 -1.1153e-07)
(318.319 5.94245e-06 -2.12835e-07)
(318.313 6.91307e-06 -2.54875e-07)
(318.309 5.96609e-06 -2.20356e-07)
(318.308 4.15549e-06 -1.54033e-07)
(318.31 -1.73422e-06 4.79888e-08)
(318.317 -4.56883e-06 1.51946e-07)
(318.319 -6.69997e-06 2.3199e-07)
(318.318 -7.84154e-06 2.7451e-07)
(318.315 -7.36288e-06 2.55563e-07)
(318.31 -3.12244e-06 8.05634e-08)
(318.305 5.21648e-06 -2.78524e-07)
(318.299 1.04775e-05 -5.18277e-07)
(318.298 9.11905e-06 -4.6437e-07)
(318.3 8.74577e-06 -4.45896e-07)
(318.304 8.25619e-06 -4.2487e-07)
(318.309 6.84644e-06 -3.54105e-07)
(318.313 -5.52085e-06 1.95301e-07)
(318.321 -1.45107e-05 5.84397e-07)
(318.326 -1.47653e-05 5.92311e-07)
(318.329 -1.24091e-05 4.85161e-07)
(318.331 -1.2949e-05 5.12311e-07)
(318.333 -1.05353e-05 4.1015e-07)
(318.335 -9.29717e-07 -6.08769e-10)
(318.333 5.58952e-06 -2.75594e-07)
(318.33 6.71667e-06 -3.19734e-07)
(318.328 7.8967e-06 -3.65869e-07)
(318.325 8.08144e-06 -3.73917e-07)
(318.323 6.9188e-06 -3.21571e-07)
(318.321 4.34766e-06 -2.01538e-07)
(318.322 1.05956e-06 -6.20903e-08)
(318.326 5.76668e-07 -4.31124e-08)
(318.327 1.96737e-08 -2.68168e-08)
(318.328 -2.80939e-07 -1.99257e-08)
(318.328 3.29368e-07 -3.3762e-08)
(318.328 1.0558e-06 -6.46259e-08)
(318.326 7.25546e-07 -7.49883e-08)
(318.321 -8.63679e-07 -1.37172e-09)
(318.318 -2.1675e-06 5.97508e-08)
(318.316 -3.1316e-06 1.01302e-07)
(318.315 -3.77e-06 1.29929e-07)
(318.315 -3.83441e-06 1.29207e-07)
(318.317 -3.36814e-06 1.00887e-07)
(318.322 -3.0111e-06 8.30494e-08)
(318.325 -1.64134e-06 1.72928e-08)
(318.328 -2.3327e-07 -2.10033e-08)
(318.33 1.64583e-07 -2.43307e-08)
(318.331 2.84125e-07 -3.19877e-08)
(318.329 3.5298e-07 -4.34695e-08)
(318.324 3.90674e-07 -4.37235e-08)
(318.321 5.59368e-07 -6.02682e-08)
(318.318 6.39924e-09 -7.41059e-08)
(318.316 -2.78351e-07 -4.23673e-08)
(318.314 6.96152e-07 -5.16444e-08)
(318.312 1.55182e-06 -9.0749e-08)
(318.315 1.90655e-06 -1.09689e-07)
(318.316 1.77515e-06 -1.11958e-07)
(318.317 1.70224e-06 -9.49751e-08)
(318.317 2.21254e-06 -1.42832e-07)
(318.318 1.72305e-06 -1.50871e-07)
(318.319 5.21718e-07 -8.35393e-08)
(318.319 9.66056e-08 -5.04022e-08)
(318.319 -1.79835e-07 -2.07603e-08)
(318.32 -3.44192e-07 1.22641e-08)
(318.32 -4.91474e-07 3.34842e-08)
(318.32 -6.75627e-07 4.09412e-08)
(318.321 -7.05296e-07 3.71287e-08)
(318.322 -7.51915e-07 3.72691e-08)
(318.324 -9.04503e-07 4.48244e-08)
(318.327 -1.27002e-06 5.34978e-08)
(318.33 -1.94597e-06 7.22494e-08)
(318.334 -2.595e-06 1.05473e-07)
(318.336 -3.26441e-06 1.50198e-07)
(318.335 -3.62407e-06 1.69401e-07)
(318.333 -3.755e-06 1.82745e-07)
(318.331 -3.92008e-06 2.13583e-07)
(318.327 -3.67812e-06 1.90876e-07)
(318.323 -2.87045e-06 1.87156e-07)