/*--------------------------------*- C++ -*----------------------------------*\
| =========                 |                                                 |
| \\      /  F ield         | OpenFOAM: The Open Source CFD Toolbox           |
|  \\    /   O peration     | Version:  2406                                  |
|   \\  /    A nd           | Website:  www.openfoam.com                      |
|    \\/     M anipulation  |                                                 |
\*---------------------------------------------------------------------------*/
FoamFile
{
    version     2.0;
    format      ascii;
    arch        "LSB;label=32;scalar=64";
    class       volScalarField;
    location    "0.04";
    object      Ma;
}
// * * * * * * * * * * * * * * * * * * * * * * * * * * * * * * * * * * * * * //

dimensions      [0 0 0 0 0 0 0];

internalField   nonuniform List<scalar> 
13988
(
1.59861e-14
3.6645e-15
1.59502e-14
5.80147e-15
2.01658e-14
3.62833e-14
4.41496e-14
3.28625e-14
2.84339e-14
2.96758e-14
2.68939e-14
1.72994e-14
5.56068e-15
1.92354e-14
3.43626e-14
8.24413e-15
4.26196e-14
5.66719e-14
6.46537e-14
5.98145e-14
5.36355e-14
5.27067e-14
3.47204e-14
2.78908e-14
3.90898e-14
4.2501e-14
5.11563e-14
4.82905e-14
4.32298e-14
3.55241e-14
9.5399e-15
5.68696e-14
7.68207e-14
8.46335e-14
9.79327e-14
1.02896e-13
1.21742e-13
1.24481e-13
1.04487e-13
7.77696e-14
3.70731e-14
1.6612e-14
8.11308e-15
9.47082e-15
1.37307e-14
2.55906e-14
2.89031e-14
2.18857e-14
1.58797e-14
8.31188e-15
1.13678e-14
1.69756e-14
1.256e-14
6.13982e-15
1.37705e-15
1.66974e-14
3.88811e-14
5.88529e-14
7.10487e-14
5.27316e-14
2.60037e-14
1.78021e-14
1.26189e-14
2.75502e-14
4.21923e-14
5.53727e-14
5.2087e-14
5.06205e-14
4.6809e-14
3.65752e-14
4.10473e-14
5.35259e-14
4.87565e-14
4.11111e-14
3.62989e-14
3.62864e-14
3.2809e-14
2.61619e-14
2.28677e-14
3.49363e-14
3.12396e-14
4.90848e-14
5.06075e-14
4.47086e-14
5.99625e-14
4.10534e-14
1.74203e-14
3.95145e-14
6.35486e-14
6.00087e-14
5.33339e-14
5.0268e-14
5.07967e-14
3.74387e-14
1.68861e-14
9.8368e-15
1.00148e-14
2.24048e-14
2.43719e-14
1.09709e-14
1.30245e-14
9.46493e-15
6.25345e-15
1.33457e-14
1.03049e-14
2.50447e-14
4.30474e-14
3.60578e-14
2.96127e-14
2.664e-14
3.11925e-14
2.2573e-14
1.56961e-14
7.32152e-15
1.94216e-14
3.27748e-14
6.33677e-15
4.35151e-14
6.28419e-14
5.78021e-14
6.41314e-14
5.39471e-14
4.49947e-14
2.83469e-14
2.11215e-14
2.72505e-14
3.02561e-14
3.63915e-14
4.84427e-14
4.75253e-14
3.92011e-14
7.17471e-15
4.55502e-14
7.18724e-14
9.417e-14
1.17811e-13
1.22923e-13
1.27635e-13
1.16769e-13
9.02551e-14
6.23066e-14
3.42176e-14
2.28237e-14
1.39462e-14
1.05357e-14
1.62887e-14
2.22784e-14
2.30521e-14
1.54738e-14
1.22425e-14
5.88651e-15
8.44702e-15
1.24091e-14
1.04426e-14
3.75716e-15
3.26698e-15
1.6767e-14
3.95286e-14
5.96268e-14
6.86726e-14
5.0027e-14
2.49092e-14
1.93482e-14
1.27564e-14
3.13037e-14
3.98584e-14
6.08534e-14
6.25478e-14
6.11859e-14
5.51381e-14
5.08627e-14
6.13283e-14
6.44075e-14
5.04073e-14
3.99266e-14
3.2775e-14
3.24237e-14
3.94598e-14
2.81514e-14
3.07667e-14
3.71287e-14
4.44375e-14
5.13983e-14
5.75531e-14
5.20627e-14
4.90509e-14
2.82163e-14
1.9306e-14
3.51072e-14
6.59015e-14
6.73077e-14
5.75253e-14
5.47032e-14
5.66142e-14
4.11625e-14
3.16084e-14
1.53611e-14
1.82747e-14
2.88508e-14
3.40774e-14
1.94813e-14
1.14589e-14
9.93205e-15
1.55836e-14
1.26654e-14
2.14834e-14
3.24156e-14
2.91349e-14
2.39988e-14
2.04373e-14
2.15676e-14
1.70159e-14
9.94752e-15
1.36167e-14
2.11881e-14
1.74205e-14
9.85517e-15
4.20855e-14
4.97999e-14
4.73872e-14
5.57409e-14
5.22541e-14
4.0141e-14
2.32627e-14
1.1344e-14
1.72714e-14
1.9052e-14
2.39126e-14
3.52096e-14
3.03459e-14
2.10569e-14
8.38062e-15
3.21602e-14
6.30065e-14
9.40739e-14
1.20162e-13
1.19887e-13
1.23356e-13
1.01414e-13
7.49733e-14
4.95898e-14
3.77451e-14
3.59255e-14
2.26394e-14
1.24603e-14
1.50526e-14
2.30723e-14
1.87388e-14
7.21143e-15
1.34805e-14
3.67326e-15
1.47001e-14
1.30717e-14
7.30052e-15
6.29801e-15
3.6533e-15
1.86108e-14
3.71554e-14
4.79232e-14
4.84393e-14
4.24592e-14
2.7872e-14
2.1336e-14
2.11496e-14
3.02479e-14
4.31476e-14
5.87919e-14
6.27083e-14
6.19451e-14
6.33093e-14
5.62829e-14
5.97348e-14
6.12839e-14
5.21782e-14
3.84005e-14
2.93394e-14
2.83587e-14
2.99923e-14
3.44153e-14
3.92306e-14
4.3809e-14
5.35396e-14
5.35963e-14
5.62414e-14
4.98116e-14
2.48587e-14
1.37616e-14
1.09225e-14
2.86618e-14
5.03807e-14
5.35025e-14
5.07974e-14
5.19565e-14
5.53503e-14
4.77151e-14
3.86522e-14
2.50119e-14
2.39796e-14
2.27318e-14
2.53797e-14
1.90515e-14
6.37236e-15
7.2827e-15
5.14971e-15
9.12598e-15
1.40856e-14
1.37175e-14
1.59396e-14
1.58091e-14
1.73558e-14
9.74739e-15
6.58736e-15
2.48847e-15
3.58286e-15
5.1274e-15
1.5046e-14
2.98279e-14
3.38051e-14
3.84284e-14
4.00305e-14
3.80409e-14
3.02371e-14
2.40651e-14
2.08278e-14
2.04611e-14
2.03261e-14
1.28661e-14
2.01446e-14
1.3839e-14
8.10188e-15
7.0292e-15
3.01365e-14
6.40509e-14
9.52493e-14
1.10411e-13
1.14163e-13
1.04768e-13
8.0734e-14
5.53351e-14
4.20029e-14
4.0651e-14
4.26532e-14
2.96456e-14
2.81932e-14
2.28939e-14
2.46064e-14
1.81042e-14
1.54909e-14
1.16474e-14
1.1679e-14
9.76962e-15
1.47955e-14
1.34701e-14
1.5872e-14
7.1744e-15
2.18839e-14
3.34629e-14
3.85244e-14
3.6388e-14
4.30626e-14
3.5482e-14
3.03585e-14
3.04454e-14
3.08792e-14
3.96338e-14
5.60787e-14
5.63707e-14
5.86283e-14
5.73238e-14
5.48896e-14
5.92505e-14
5.53215e-14
4.79096e-14
3.09396e-14
1.74548e-14
2.11124e-14
2.43833e-14
3.08371e-14
4.05308e-14
3.99909e-14
4.17184e-14
3.90856e-14
3.61102e-14
2.05839e-14
1.04183e-14
1.75265e-14
1.08719e-14
1.39905e-14
3.52687e-14
4.18398e-14
4.34858e-14
4.63617e-14
4.5744e-14
4.39778e-14
4.52002e-14
2.98328e-14
2.72655e-14
1.76048e-14
1.36222e-14
2.66985e-14
2.59316e-14
2.35976e-14
2.14893e-14
2.45217e-14
2.21531e-14
2.53346e-14
2.3764e-14
2.8998e-14
2.29275e-14
2.44038e-14
2.2741e-14
2.04384e-14
2.09066e-14
2.64589e-14
2.91726e-14
2.94598e-14
3.16918e-14
3.13082e-14
2.97573e-14
2.96241e-14
3.22985e-14
3.48492e-14
3.49064e-14
3.10307e-14
2.31351e-14
2.69947e-14
2.39987e-14
1.7337e-14
2.12444e-14
4.01967e-14
7.13695e-14
8.9257e-14
9.90521e-14
9.53778e-14
8.18823e-14
5.45273e-14
4.69424e-14
4.10101e-14
3.85616e-14
3.84615e-14
3.49305e-14
3.86975e-14
3.60601e-14
3.41023e-14
2.6837e-14
2.51442e-14
2.61306e-14
2.05927e-14
2.09927e-14
2.16499e-14
2.81207e-14
2.35725e-14
2.10128e-14
2.56358e-14
3.75795e-14
4.55438e-14
4.66923e-14
5.19207e-14
4.74737e-14
4.26657e-14
4.00298e-14
4.13991e-14
4.22394e-14
4.92008e-14
4.63642e-14
4.77116e-14
4.41374e-14
4.14421e-14
4.67869e-14
4.2664e-14
3.58111e-14
2.543e-14
1.76285e-14
2.26727e-14
2.72373e-14
2.70955e-14
3.61852e-14
3.32612e-14
3.33871e-14
2.54408e-14
1.18111e-14
1.61723e-14
3.17387e-14
3.96398e-14
2.92176e-14
1.88587e-14
3.63523e-14
4.62642e-14
4.76901e-14
4.74057e-14
4.52062e-14
3.86978e-14
3.95264e-14
3.01009e-14
2.45797e-14
1.99875e-14
2.46299e-14
3.62192e-14
3.44792e-14
3.52199e-14
2.89524e-14
3.91216e-14
3.10549e-14
3.883e-14
3.3794e-14
3.67587e-14
3.54172e-14
3.56047e-14
3.51711e-14
2.96482e-14
3.16689e-14
3.21304e-14
3.02657e-14
3.92117e-14
4.13144e-14
4.37767e-14
4.10291e-14
4.32506e-14
4.41884e-14
4.62263e-14
4.53189e-14
4.45946e-14
3.74568e-14
4.23863e-14
3.97325e-14
3.34496e-14
2.67945e-14
4.46133e-14
6.87501e-14
8.24066e-14
9.03513e-14
8.96063e-14
7.78494e-14
5.74476e-14
5.39263e-14
4.74112e-14
4.51206e-14
4.37494e-14
4.00254e-14
4.79562e-14
4.63616e-14
4.60675e-14
4.20874e-14
4.12762e-14
3.82773e-14
3.23416e-14
2.90691e-14
3.61189e-14
4.23428e-14
3.97088e-14
3.91757e-14
3.83704e-14
4.34552e-14
5.69377e-14
6.19066e-14
5.82607e-14
5.42335e-14
4.94751e-14
4.39441e-14
4.95047e-14
4.64857e-14
5.13521e-14
4.74784e-14
4.91709e-14
4.37147e-14
4.17431e-14
4.33607e-14
4.01287e-14
3.98073e-14
3.21307e-14
3.05894e-14
3.12061e-14
3.34022e-14
3.21718e-14
3.6669e-14
3.44762e-14
3.50229e-14
2.57513e-14
2.21115e-14
2.70112e-14
4.28849e-14
4.27914e-14
4.45477e-14
3.71452e-14
4.58726e-14
5.72196e-14
5.8049e-14
5.50544e-14
5.32232e-14
4.54709e-14
3.83872e-14
3.18737e-14
3.17992e-14
2.45298e-14
3.31609e-14
2.79854e-14
3.60583e-14
3.54055e-14
3.43139e-14
3.38266e-14
3.0564e-14
3.09119e-14
3.20635e-14
2.97031e-14
3.3895e-14
3.79292e-14
4.61125e-14
3.78789e-14
3.53306e-14
3.27473e-14
3.45777e-14
3.83432e-14
4.13137e-14
3.98306e-14
3.68612e-14
3.74879e-14
3.5004e-14
3.71968e-14
3.28936e-14
3.54821e-14
3.84698e-14
3.81005e-14
3.61298e-14
3.91582e-14
3.59556e-14
4.55245e-14
7.15772e-14
8.537e-14
9.17295e-14
8.30045e-14
6.69136e-14
4.88131e-14
4.26452e-14
3.62948e-14
3.66499e-14
3.63649e-14
4.05938e-14
3.82448e-14
3.48002e-14
3.54768e-14
3.84181e-14
3.59444e-14
3.53454e-14
3.56981e-14
3.19888e-14
3.64986e-14
4.00908e-14
4.08265e-14
4.39047e-14
5.00033e-14
4.91066e-14
6.06515e-14
7.47397e-14
5.91454e-14
4.7104e-14
4.26035e-14
3.97508e-14
4.13315e-14
4.09484e-14
4.32431e-14
4.67989e-14
4.1805e-14
3.47745e-14
2.6804e-14
2.80614e-14
2.73433e-14
2.77957e-14
2.61939e-14
2.57022e-14
2.39835e-14
2.39021e-14
2.39964e-14
2.81322e-14
3.32936e-14
3.70368e-14
2.33766e-14
2.14099e-14
2.53014e-14
3.93652e-14
4.49751e-14
4.07156e-14
3.54764e-14
4.31245e-14
6.08619e-14
5.66368e-14
5.51022e-14
4.49825e-14
3.90493e-14
3.57893e-14
3.13666e-14
3.05064e-14
2.73844e-14
3.02811e-14
5.58849e-15
1.13814e-14
9.41044e-15
1.28569e-14
6.49739e-15
1.26576e-14
9.32071e-15
1.34815e-14
1.55193e-14
2.0778e-14
2.40593e-14
2.7083e-14
2.5753e-14
2.24907e-14
1.90522e-14
2.29114e-14
1.69057e-14
1.60798e-14
1.13197e-14
9.9673e-15
9.33394e-15
6.65547e-15
5.8601e-15
6.87164e-15
5.91784e-15
1.30631e-14
1.15426e-14
9.69763e-15
1.07597e-14
2.21987e-14
2.84925e-14
4.61947e-14
5.59969e-14
5.668e-14
5.03258e-14
3.93627e-14
2.41328e-14
1.19793e-14
3.66847e-15
5.57578e-15
6.7809e-15
1.34031e-14
9.86579e-15
1.37553e-14
1.57243e-14
1.71634e-14
1.40912e-14
1.2465e-14
1.31768e-14
1.55503e-14
1.30466e-14
1.41192e-14
1.20392e-14
1.73789e-14
2.81035e-14
3.719e-14
4.48924e-14
5.13715e-14
4.32436e-14
3.32295e-14
2.83099e-14
2.55801e-14
2.57393e-14
2.58349e-14
2.72714e-14
2.69027e-14
2.62437e-14
2.38954e-14
2.58046e-14
2.91818e-14
3.16018e-14
3.35017e-14
3.10743e-14
2.90249e-14
2.52987e-14
2.48124e-14
2.58271e-14
2.95444e-14
2.81689e-14
2.61759e-14
1.8848e-14
5.72084e-15
1.38615e-14
2.22853e-14
2.44542e-14
1.72934e-14
6.67178e-15
2.8161e-14
4.01559e-14
4.06267e-14
3.92537e-14
3.62127e-14
2.88922e-14
2.34668e-14
1.81751e-14
1.26446e-14
1.21312e-14
4.31372e-15
1.83669e-14
1.74752e-14
1.99397e-14
2.13606e-14
2.37417e-14
2.63597e-14
2.76434e-14
3.27445e-14
3.14372e-14
3.38563e-14
3.48384e-14
3.33282e-14
3.03154e-14
2.72948e-14
2.24012e-14
2.12085e-14
2.50225e-14
2.13805e-14
2.75422e-14
2.6813e-14
2.73124e-14
3.17412e-14
2.87669e-14
2.95404e-14
2.70946e-14
2.16413e-14
2.4767e-14
3.08463e-14
2.66192e-14
1.42617e-14
1.65697e-14
2.27118e-14
2.37373e-14
2.54148e-14
2.75871e-14
2.50989e-14
2.39698e-14
2.84912e-14
2.7538e-14
2.58098e-14
2.46816e-14
2.43306e-14
2.72012e-14
3.34763e-14
3.35897e-14
3.9375e-14
2.9793e-14
2.38316e-14
2.43297e-14
2.76731e-14
3.17262e-14
3.20868e-14
2.76382e-14
2.67754e-14
1.78889e-14
2.91773e-14
3.55132e-14
4.05814e-14
4.40418e-14
4.74786e-14
4.1856e-14
4.06032e-14
4.18485e-14
4.44602e-14
4.28634e-14
4.15962e-14
4.13649e-14
3.93346e-14
4.22501e-14
4.56719e-14
5.00839e-14
4.8584e-14
4.76836e-14
3.99196e-14
3.65571e-14
3.73816e-14
3.94503e-14
3.91327e-14
4.38002e-14
3.82276e-14
3.95407e-14
3.55327e-14
3.10307e-14
2.60852e-14
2.28076e-14
2.96099e-14
3.39072e-14
3.70045e-14
4.32052e-14
4.3469e-14
4.53222e-14
4.2133e-14
4.06255e-14
3.44015e-14
2.99872e-14
2.94252e-14
2.85192e-14
3.04483e-14
3.52044e-14
3.53011e-14
4.20169e-14
4.15499e-14
4.42483e-14
4.65438e-14
4.64394e-14
4.53857e-14
4.36209e-14
4.11574e-14
3.90729e-14
3.57144e-14
3.65293e-14
3.36691e-14
3.23078e-14
3.14102e-14
3.73149e-14
3.69453e-14
4.21079e-14
4.43087e-14
4.49464e-14
4.43791e-14
4.39923e-14
4.38076e-14
4.59695e-14
4.36264e-14
4.59693e-14
4.44437e-14
4.43252e-14
3.79394e-14
3.33827e-14
3.33692e-14
3.13788e-14
2.95184e-14
3.34703e-14
3.99433e-14
4.14718e-14
4.57174e-14
4.59586e-14
4.65814e-14
4.41274e-14
4.26106e-14
4.17052e-14
4.11571e-14
4.06748e-14
4.29475e-14
4.02175e-14
3.6083e-14
4.1459e-14
4.52839e-14
4.91497e-14
5.21314e-14
4.79564e-14
4.45394e-14
3.64262e-14
4.48443e-14
4.72621e-14
5.32441e-14
5.70093e-14
5.84758e-14
5.63311e-14
5.6533e-14
5.82725e-14
6.00669e-14
5.94556e-14
5.87383e-14
5.64797e-14
5.2823e-14
5.34439e-14
5.40715e-14
5.23843e-14
5.49847e-14
5.41308e-14
5.25447e-14
4.87199e-14
5.35467e-14
5.19463e-14
5.39379e-14
5.3003e-14
5.17923e-14
4.8637e-14
5.11952e-14
4.70658e-14
4.45635e-14
4.39351e-14
4.89623e-14
5.10882e-14
5.38748e-14
5.6483e-14
5.69541e-14
5.5991e-14
5.2841e-14
5.34898e-14
4.89578e-14
4.86426e-14
4.86979e-14
5.23717e-14
5.3213e-14
2.8869e-14
3.51583e-14
3.53301e-14
3.17308e-14
3.76031e-14
3.49427e-14
3.82625e-14
3.27673e-14
3.62051e-14
2.9329e-14
2.55526e-14
2.1722e-14
1.87169e-14
2.01649e-14
2.21289e-14
2.40617e-14
3.00246e-14
3.65809e-14
3.16756e-14
3.34918e-14
3.6209e-14
3.30734e-14
3.57451e-14
3.5212e-14
3.51304e-14
3.6871e-14
3.76151e-14
3.17805e-14
3.10973e-14
3.05254e-14
2.59341e-14
2.65676e-14
3.30572e-14
3.02037e-14
2.19805e-14
2.71616e-14
3.13387e-14
3.42919e-14
3.67575e-14
3.6756e-14
3.95651e-14
3.94687e-14
3.44679e-14
2.68523e-14
2.9401e-14
2.64611e-14
3.0383e-14
2.86651e-14
3.27319e-14
3.22711e-14
3.57035e-14
4.20585e-14
4.11185e-14
3.51445e-14
3.32189e-14
3.37454e-14
4.05801e-14
4.61022e-14
4.88185e-14
4.77885e-14
5.20742e-14
5.1151e-14
5.06231e-14
5.16957e-14
4.87718e-14
4.23712e-14
4.73552e-14
4.61854e-14
3.91544e-14
4.03849e-14
3.81202e-14
4.10813e-14
3.80908e-14
4.38369e-14
4.20698e-14
4.23105e-14
4.24495e-14
4.22834e-14
3.61787e-14
4.11596e-14
3.74488e-14
3.79282e-14
3.80195e-14
4.29094e-14
4.55253e-14
4.5318e-14
4.38237e-14
4.68494e-14
4.64219e-14
4.85875e-14
4.35467e-14
4.41066e-14
4.31507e-14
4.65335e-14
4.15059e-14
3.94422e-14
4.05674e-14
4.18927e-14
4.95505e-15
8.93747e-15
8.71297e-15
4.34508e-15
1.01086e-14
1.76865e-14
2.3601e-14
2.71183e-14
2.82796e-14
2.52641e-14
2.21689e-14
1.62488e-14
1.53465e-14
1.19099e-14
9.08519e-15
9.7824e-15
4.82389e-15
5.91393e-15
3.19166e-15
3.51439e-15
6.37563e-15
6.97599e-15
6.7046e-15
5.77597e-15
8.26771e-15
3.12692e-15
3.52326e-15
5.84884e-15
1.04969e-14
1.32035e-14
8.9097e-15
4.09501e-15
1.08316e-14
1.61791e-14
1.43963e-14
1.12195e-14
3.44455e-15
7.61e-15
1.02517e-14
8.55695e-15
1.26943e-14
1.15269e-14
9.84162e-15
1.49969e-14
1.47469e-14
1.49714e-14
1.90003e-14
2.01122e-14
2.24918e-14
2.48089e-14
2.65371e-14
2.84795e-14
2.25269e-14
1.85075e-14
1.18025e-14
1.53782e-14
1.80825e-14
2.64321e-14
3.04046e-14
3.04979e-14
3.19612e-14
3.03523e-14
2.81787e-14
2.84444e-14
2.59954e-14
2.27715e-14
2.2296e-14
1.58939e-14
1.00199e-14
7.29569e-15
7.84535e-15
9.87809e-15
1.07347e-14
1.30896e-14
8.72978e-15
1.2435e-14
1.22724e-14
9.56759e-15
5.04187e-15
1.19589e-14
1.65219e-14
1.49379e-14
1.57874e-14
1.61971e-14
1.86848e-14
1.6497e-14
1.72908e-14
2.1048e-14
1.73248e-14
1.77614e-14
1.1564e-14
1.34387e-14
1.14966e-14
1.58139e-14
1.13811e-14
1.01525e-14
1.48595e-14
1.89486e-14
1.51761e-14
1.73326e-14
1.08306e-14
6.60139e-15
4.69316e-15
2.01991e-14
2.68381e-14
3.25478e-14
3.6935e-14
3.48754e-14
2.22594e-14
1.2383e-14
1.37233e-14
1.68008e-14
1.74117e-14
1.94761e-14
1.76451e-14
1.1068e-14
5.44421e-15
3.01055e-15
4.898e-15
5.39466e-15
9.4389e-15
6.13109e-15
9.99887e-15
5.57506e-15
6.47644e-15
1.31609e-14
2.09781e-14
2.48854e-14
7.83212e-15
1.21746e-14
1.25107e-14
2.2278e-14
2.07792e-14
1.88521e-14
1.62558e-14
1.8534e-14
1.87334e-14
1.38655e-14
8.0146e-15
1.54485e-14
2.51218e-14
1.59438e-14
1.1229e-14
1.16011e-14
1.78664e-14
1.64784e-14
2.06885e-14
2.21523e-14
2.35076e-14
2.76489e-14
2.37821e-14
2.25429e-14
1.69755e-14
2.20604e-14
1.4015e-14
2.13956e-14
3.45789e-14
3.48295e-14
3.52132e-14
2.60243e-14
2.42631e-14
2.04977e-14
2.1958e-14
2.02182e-14
2.64615e-14
2.30538e-14
1.48305e-14
8.67261e-15
6.14246e-15
9.88034e-15
7.03197e-15
1.48937e-14
9.34836e-15
1.20353e-14
5.46305e-15
1.09473e-14
8.3629e-15
4.90549e-15
1.29735e-14
2.04819e-14
2.16607e-14
2.04837e-14
2.22648e-14
2.00757e-14
1.70431e-14
1.6194e-14
7.77265e-15
3.97388e-15
2.3571e-15
9.73472e-15
9.02454e-15
6.36463e-15
7.28602e-15
7.42207e-15
1.44553e-14
1.67944e-14
1.59204e-14
2.3002e-14
1.72577e-14
1.05976e-14
1.08438e-14
1.81853e-14
2.31671e-14
2.93457e-14
3.41276e-14
2.73869e-14
1.65138e-14
9.71142e-15
1.33422e-14
1.29375e-14
1.53908e-14
6.55724e-15
1.28107e-14
1.63754e-14
1.02771e-14
4.58567e-15
5.41439e-15
4.64344e-15
1.11134e-14
8.84425e-15
5.00017e-15
8.90683e-15
7.25391e-15
1.39852e-14
1.84087e-14
1.23183e-14
8.19358e-15
8.02326e-15
1.7771e-14
2.91218e-14
2.25952e-14
1.73083e-14
2.10523e-14
1.58597e-14
1.38136e-14
2.59749e-15
1.29439e-14
1.03408e-14
1.35703e-14
1.1369e-14
1.12191e-14
1.13301e-14
2.21327e-14
1.97179e-14
1.89888e-14
2.062e-14
1.82715e-14
1.67243e-14
1.67826e-14
1.74116e-14
1.7734e-14
1.48131e-14
1.67291e-14
1.76092e-14
2.23322e-14
2.41662e-14
3.0863e-14
2.23821e-14
1.42518e-14
1.64177e-14
2.01076e-14
2.44369e-14
2.42583e-14
2.13792e-14
1.34748e-14
4.06701e-15
8.11646e-15
8.26749e-15
2.00263e-14
2.06768e-14
1.18493e-14
1.15857e-14
8.50452e-15
9.64216e-15
1.15596e-14
6.98289e-15
6.17571e-15
1.05275e-14
1.4135e-14
1.74476e-14
1.77877e-14
1.60395e-14
1.51413e-14
9.55078e-15
4.25827e-15
3.80634e-15
5.93466e-15
3.63036e-15
7.75947e-15
2.52473e-15
4.75219e-15
7.48027e-15
3.84115e-15
1.13083e-14
1.90847e-14
1.82791e-14
1.91133e-14
1.3643e-14
1.41638e-14
2.40241e-14
2.69632e-14
2.85551e-14
2.51823e-14
1.80974e-14
7.87446e-15
3.8125e-15
1.02437e-14
1.12367e-14
8.58679e-15
1.26195e-14
1.03256e-14
6.68358e-15
1.09255e-14
3.15909e-15
8.20592e-15
8.05245e-15
1.65533e-14
2.20624e-14
2.0059e-14
1.88564e-14
1.84151e-14
1.69658e-14
2.24413e-14
2.74839e-14
2.18786e-14
1.96587e-14
2.0482e-14
3.26642e-14
4.48444e-14
4.54887e-14
4.19194e-14
3.73031e-14
2.01048e-14
1.81572e-14
2.02712e-14
1.75391e-14
9.31411e-15
6.30011e-15
7.84908e-15
1.89859e-14
2.63088e-14
3.15087e-14
3.62664e-14
3.77783e-14
3.3906e-14
3.33305e-14
2.66541e-14
2.66314e-14
2.59445e-14
2.72353e-14
2.07669e-14
2.14555e-14
2.06846e-14
2.0804e-14
1.94833e-14
1.48218e-14
9.36502e-15
1.83999e-14
2.797e-14
3.18144e-14
3.62876e-14
2.96555e-14
1.8993e-14
1.97745e-14
2.35383e-14
2.49441e-14
2.30325e-14
2.41574e-14
2.73259e-14
1.92431e-14
1.72941e-14
1.94672e-14
2.19707e-14
2.17587e-14
1.8123e-14
1.47606e-14
2.22111e-14
2.32317e-14
2.12432e-14
2.01721e-14
2.04768e-14
1.54013e-14
1.21651e-14
1.21482e-14
1.44763e-14
1.54139e-14
2.20273e-14
1.81538e-14
2.35605e-14
2.02431e-14
1.84348e-14
1.35626e-14
2.18455e-14
1.61858e-14
1.45128e-14
1.08778e-14
1.26927e-14
1.37445e-14
2.23735e-14
1.97901e-14
2.2962e-14
2.22965e-14
2.20769e-14
2.34364e-14
2.39301e-14
2.68406e-14
2.78991e-14
2.27071e-14
1.54848e-14
1.30436e-14
1.35334e-14
1.08754e-14
2.22618e-14
2.63504e-14
2.85839e-14
2.74577e-14
2.75164e-14
3.26316e-14
3.51986e-14
3.73011e-14
3.61341e-14
4.29845e-14
3.91455e-14
3.8278e-14
3.58004e-14
4.91313e-14
6.21436e-14
5.8197e-14
4.72853e-14
4.31975e-14
2.97205e-14
3.49507e-14
3.93403e-14
3.54684e-14
3.19347e-14
1.98633e-14
2.8553e-14
3.8549e-14
3.94233e-14
4.92815e-14
5.04019e-14
4.57047e-14
4.76032e-14
4.395e-14
3.8147e-14
3.41322e-14
3.94282e-14
4.32828e-14
3.60504e-14
3.53912e-14
2.91677e-14
2.76794e-14
3.28675e-14
3.49927e-14
3.4459e-14
3.97784e-14
3.92249e-14
4.30089e-14
3.96914e-14
4.21355e-14
3.21811e-14
2.67499e-14
3.02958e-14
3.83927e-14
3.49204e-14
3.12348e-14
3.44776e-14
3.41018e-14
3.14071e-14
3.33386e-14
3.74391e-14
4.14275e-14
3.66464e-14
3.74329e-14
3.42663e-14
3.07822e-14
2.81069e-14
2.25267e-14
1.83486e-14
1.86999e-14
2.23922e-14
2.32057e-14
2.35341e-14
2.91153e-14
3.59231e-14
3.28828e-14
3.49789e-14
3.30569e-14
3.50719e-14
3.402e-14
2.21629e-14
1.0384e-14
1.00365e-14
1.15324e-14
7.10731e-15
7.71604e-15
1.47056e-14
9.94218e-15
7.97101e-15
1.41716e-14
8.29101e-15
6.33699e-15
3.66158e-15
5.89938e-15
9.34934e-15
9.24295e-15
9.66002e-15
8.3197e-15
1.59912e-14
1.80543e-14
2.30617e-14
2.50858e-14
1.75821e-14
1.95995e-14
1.77429e-14
1.65723e-14
2.65655e-14
2.70235e-14
2.26413e-14
3.02776e-14
3.12784e-14
3.4643e-14
4.01298e-14
4.79981e-14
5.22882e-14
4.79746e-14
3.27721e-14
2.79562e-14
2.43558e-14
2.85078e-14
3.03994e-14
3.51756e-14
4.25863e-14
2.88028e-14
2.97626e-14
2.63311e-14
2.65481e-14
2.99659e-14
3.01151e-14
2.77852e-14
3.07045e-14
3.20681e-14
2.94638e-14
2.82735e-14
3.76574e-14
2.94127e-14
1.94545e-14
1.94425e-14
1.35064e-14
1.95723e-14
3.12227e-14
2.12779e-14
2.1436e-14
2.63464e-14
3.0441e-14
4.00163e-14
3.61437e-14
3.80203e-14
3.3271e-14
1.88622e-14
2.65904e-14
3.46477e-14
3.21227e-14
2.39454e-14
2.25687e-14
2.46711e-14
2.47255e-14
1.94352e-14
2.48999e-14
3.33631e-14
3.02215e-14
3.33783e-14
2.80478e-14
1.88527e-14
1.60903e-14
1.08285e-14
7.18077e-15
9.3068e-15
1.14526e-14
1.25368e-14
1.36128e-14
1.7941e-14
1.97583e-14
1.69336e-14
1.73999e-14
1.15665e-14
1.7e-14
1.94733e-14
1.24605e-14
1.16229e-14
8.2488e-15
8.57665e-15
1.1918e-14
1.51885e-14
1.66839e-14
1.14312e-14
1.27473e-14
1.60738e-14
1.81922e-14
1.95109e-14
1.6682e-14
1.54321e-14
1.4291e-14
1.43128e-14
4.53514e-15
1.94731e-14
2.16946e-14
1.94857e-14
2.25086e-14
2.24303e-14
2.336e-14
1.51903e-14
1.34405e-14
3.96484e-15
1.46571e-14
1.9307e-14
2.20768e-14
2.68632e-14
2.3872e-14
2.47198e-14
3.58919e-14
4.71436e-14
4.24615e-14
3.49373e-14
2.05677e-14
9.97513e-15
1.23266e-14
1.5751e-14
1.84226e-14
2.31123e-14
3.1202e-14
3.23589e-14
2.22365e-14
1.84268e-14
1.68266e-14
1.3099e-14
7.24878e-15
4.63136e-15
1.06264e-14
1.47796e-14
1.51776e-14
1.80957e-14
1.49823e-14
8.41887e-15
1.37464e-14
1.48868e-14
1.38401e-14
8.68309e-15
2.34479e-14
2.12427e-14
2.22948e-14
2.13013e-14
2.49547e-14
3.32022e-14
3.24895e-14
2.77437e-14
3.02109e-14
2.16896e-14
2.21085e-14
2.09596e-14
1.80272e-14
1.78252e-14
1.12174e-14
1.39839e-14
1.27687e-14
8.74287e-15
1.01926e-14
1.08913e-14
1.43944e-14
1.77328e-14
2.21099e-14
1.90633e-14
1.45266e-14
3.23786e-15
6.79923e-15
9.09111e-15
1.25386e-14
1.6695e-14
2.10229e-14
2.20427e-14
2.17493e-14
2.54809e-14
2.83679e-14
2.84986e-14
2.17739e-14
1.65223e-14
2.46253e-14
2.46011e-14
2.73084e-14
1.89334e-14
2.51474e-14
3.14064e-14
2.75537e-14
2.5446e-14
2.95639e-14
2.42943e-14
3.02665e-14
3.51277e-14
3.64411e-14
3.27101e-14
3.05889e-14
3.05269e-14
2.50175e-14
2.64468e-14
2.61922e-14
2.67199e-14
2.85381e-14
3.29077e-14
3.88836e-14
3.04893e-14
2.27624e-14
2.4854e-14
2.72335e-14
2.70377e-14
2.37205e-14
2.38687e-14
2.44489e-14
2.88186e-14
4.29574e-14
5.62427e-14
4.91714e-14
3.12841e-14
1.82049e-14
1.57618e-14
2.07827e-14
1.76472e-14
2.08467e-14
2.44481e-14
3.11885e-14
3.48726e-14
3.09695e-14
2.96375e-14
2.28665e-14
1.91191e-14
2.47753e-14
2.4217e-14
2.33792e-14
1.74172e-14
1.80901e-14
2.05774e-14
2.3858e-14
2.40527e-14
2.43408e-14
2.42774e-14
2.29759e-14
2.20823e-14
2.8168e-14
3.04792e-14
2.56772e-14
1.98756e-14
2.35025e-14
2.21088e-14
2.15169e-14
1.79804e-14
1.40523e-14
8.93673e-15
5.12936e-15
1.20796e-14
8.53617e-15
1.14566e-14
1.19541e-14
1.82824e-14
1.77153e-14
1.959e-14
1.99705e-14
2.23447e-14
2.2469e-14
2.72121e-14
2.05986e-14
1.98625e-14
2.63681e-14
2.60533e-14
3.24525e-14
3.2185e-14
3.59632e-14
3.78369e-14
4.12714e-14
4.21044e-14
4.34712e-14
4.79256e-14
5.09498e-14
5.13899e-14
4.53226e-14
4.10056e-14
1.56546e-14
2.12106e-14
2.83656e-14
2.0444e-14
2.39281e-14
1.82344e-14
1.04728e-14
1.52698e-14
1.5615e-14
1.64881e-14
1.48042e-14
9.73298e-15
1.22987e-14
1.70566e-14
1.64391e-14
1.82334e-14
1.44844e-14
1.95323e-14
3.11553e-14
2.77606e-14
2.79422e-14
4.17579e-14
4.72038e-14
3.92302e-14
2.45155e-14
2.25838e-14
2.68057e-14
2.81192e-14
3.33614e-14
2.8814e-14
3.04637e-14
3.8172e-14
5.49547e-14
7.19091e-14
5.88658e-14
3.42722e-14
1.58467e-14
2.03187e-14
1.82583e-14
2.2635e-14
3.22198e-14
3.55381e-14
4.17472e-14
4.62699e-14
3.83614e-14
2.61418e-14
2.74524e-14
2.31324e-14
3.21218e-14
3.25946e-14
3.26896e-14
3.1032e-14
2.20718e-14
1.81219e-14
1.25123e-14
1.08517e-14
1.21879e-14
1.98817e-14
2.25092e-14
1.99006e-14
2.00568e-14
2.56742e-14
2.97705e-14
2.13019e-14
1.92312e-14
1.913e-14
2.72765e-14
1.6832e-14
1.68413e-14
1.69211e-14
1.11868e-14
1.00851e-14
1.62845e-14
2.01912e-14
1.63881e-14
2.1221e-14
1.99038e-14
2.09206e-14
2.31467e-14
2.15185e-14
2.41046e-14
2.10623e-14
2.57454e-14
3.73644e-14
3.52497e-14
2.83549e-14
2.38983e-14
2.2224e-14
2.15166e-14
3.22361e-14
4.09511e-14
4.28174e-14
4.34539e-14
4.07806e-14
3.80483e-14
4.53935e-14
4.75746e-14
4.73703e-14
2.4829e-14
1.08516e-14
2.10226e-14
1.80222e-14
1.14913e-14
1.96769e-14
2.19955e-14
1.90407e-14
1.71348e-14
8.97631e-15
1.78989e-14
2.12493e-14
2.50611e-14
2.07348e-14
1.42475e-14
2.20607e-14
2.38368e-14
2.11637e-14
2.42302e-14
1.74366e-14
2.0576e-14
2.10594e-14
2.36188e-14
2.3502e-14
1.96756e-14
1.21158e-14
1.7734e-14
2.258e-14
1.43015e-14
1.89068e-14
2.14839e-14
2.95097e-14
3.80111e-14
4.92759e-14
4.48365e-14
2.73603e-14
2.76375e-14
2.22565e-14
2.23513e-14
2.70595e-14
4.07337e-14
3.11953e-14
3.67918e-14
4.7295e-14
3.43051e-14
2.53e-14
2.19595e-14
1.81947e-14
2.37228e-14
2.16677e-14
1.37121e-14
2.07069e-14
3.3285e-14
3.09836e-14
2.91618e-14
2.62937e-14
2.40035e-14
2.6741e-14
4.21203e-14
3.32712e-14
3.19588e-14
2.92116e-14
3.22271e-14
2.17414e-14
2.15734e-14
1.27264e-14
2.02937e-14
1.01461e-14
1.09212e-14
6.90287e-15
1.08328e-14
1.43317e-14
2.09171e-14
1.73374e-14
1.5693e-14
1.90791e-14
1.54773e-14
1.53605e-14
1.31307e-14
1.59844e-14
7.13447e-15
1.07708e-14
1.37974e-14
8.19397e-15
1.35557e-14
1.26118e-14
1.37397e-14
1.67833e-14
1.77053e-14
2.94883e-14
3.02252e-14
2.25013e-14
1.58992e-14
2.56693e-14
2.60406e-14
2.71284e-14
2.9396e-14
2.62497e-14
2.3318e-14
2.86012e-14
2.66087e-14
1.31954e-14
1.28175e-14
1.58662e-14
1.42893e-14
1.53277e-14
1.81488e-14
2.17193e-14
1.78358e-14
2.04059e-14
2.02738e-14
1.96728e-14
1.61516e-14
2.05828e-14
2.07116e-14
3.1618e-14
3.09673e-14
2.56693e-14
3.63679e-14
3.5357e-14
3.1482e-14
3.04206e-14
3.07111e-14
3.27994e-14
2.82485e-14
2.53503e-14
1.97889e-14
2.52713e-14
2.73818e-14
1.9553e-14
2.67062e-14
2.62184e-14
1.45332e-14
1.52958e-14
3.22361e-14
3.50357e-14
3.65862e-14
2.90105e-14
3.53505e-14
3.38059e-14
2.63379e-14
3.30471e-14
3.18425e-14
2.30833e-14
1.97232e-14
1.58436e-14
1.9931e-14
2.00759e-14
2.57331e-14
3.36331e-14
4.46644e-14
4.0145e-14
4.18204e-14
3.76338e-14
2.87735e-14
3.01598e-14
2.60951e-14
2.57788e-14
2.99229e-14
2.59225e-14
2.78555e-14
1.88336e-14
2.03437e-14
1.9802e-14
2.24918e-14
2.219e-14
1.81433e-14
1.76056e-14
1.60826e-14
2.15348e-14
1.95984e-14
1.54744e-14
1.98179e-14
1.75919e-14
1.7477e-14
1.55527e-14
1.78301e-14
2.00073e-14
1.9628e-14
1.70811e-14
1.81067e-14
2.50357e-14
2.3483e-14
2.52531e-14
2.29037e-14
2.98745e-14
2.26779e-14
3.51315e-14
2.71154e-14
2.92456e-14
3.87313e-14
4.18293e-14
3.48109e-14
3.91656e-14
3.42376e-14
2.47955e-14
3.11707e-14
3.35415e-14
2.96541e-14
3.08106e-14
2.6939e-14
2.49869e-14
2.63486e-14
2.18542e-14
2.10708e-14
2.50474e-14
2.50148e-14
2.286e-14
1.7697e-14
2.20242e-14
2.93416e-14
3.32037e-14
3.55672e-14
4.36921e-14
3.26203e-14
2.63297e-14
2.35426e-14
3.71991e-14
3.67201e-14
3.4273e-14
3.02742e-14
3.01389e-14
2.81479e-14
3.27971e-14
2.74962e-14
2.52745e-14
2.11406e-14
2.34025e-14
2.42446e-14
2.57005e-14
1.94427e-14
2.1517e-14
2.45003e-14
3.23553e-14
3.47598e-14
3.48663e-14
3.21433e-14
3.91645e-14
3.17914e-14
3.21512e-14
3.02917e-14
3.24809e-14
3.70921e-14
3.36123e-14
2.90227e-14
3.11749e-14
3.50303e-14
4.89488e-14
5.53508e-14
4.94411e-14
5.52248e-14
5.0903e-14
4.17688e-14
4.28146e-14
3.1237e-14
3.84805e-14
2.88012e-14
2.63037e-14
1.64731e-14
1.09727e-14
1.17761e-14
1.01534e-14
1.41452e-14
2.06908e-14
2.51475e-14
2.39496e-14
2.20367e-14
1.86142e-14
2.90481e-14
1.96514e-14
2.08847e-14
2.15454e-14
2.50132e-14
2.46667e-14
2.17025e-14
1.97233e-14
1.81304e-14
1.40086e-14
1.47272e-14
1.64416e-14
2.88187e-14
2.76605e-14
3.45277e-14
2.78115e-14
3.09527e-14
3.77937e-14
4.25562e-14
3.99911e-14
3.96041e-14
3.20587e-14
3.47445e-14
3.07233e-14
2.79405e-14
2.43562e-14
3.08674e-14
2.90912e-14
2.4674e-14
3.51121e-14
4.1958e-14
4.1186e-14
3.60162e-14
3.16891e-14
3.08503e-14
3.21643e-14
3.47433e-14
3.05258e-14
2.61562e-14
3.84434e-14
4.63367e-14
4.66754e-14
4.90879e-14
4.75274e-14
3.52303e-14
3.27893e-14
3.31666e-14
3.88093e-14
4.7497e-14
4.35214e-14
3.94328e-14
4.14045e-14
4.07429e-14
3.68824e-14
3.61523e-14
3.72709e-14
2.76608e-14
1.98379e-14
1.81197e-14
2.59021e-14
2.64003e-14
2.70065e-14
2.62162e-14
3.09498e-14
2.98473e-14
3.7385e-14
4.11374e-14
4.34776e-14
4.75007e-14
4.46511e-14
4.62595e-14
4.5705e-14
5.08437e-14
5.15981e-14
4.36704e-14
4.47577e-14
4.58147e-14
5.33435e-14
4.73605e-14
4.8716e-14
4.774e-14
4.82727e-14
5.19732e-14
5.40996e-14
5.15003e-14
4.65464e-14
3.22694e-14
2.07333e-14
1.58443e-14
1.94022e-14
1.2376e-14
1.77698e-14
1.3114e-14
1.73424e-14
2.41695e-14
3.15942e-14
2.96157e-14
2.54993e-14
2.85493e-14
3.30137e-14
3.25318e-14
3.64497e-14
3.98714e-14
4.04054e-14
3.47325e-14
3.28723e-14
3.11096e-14
2.17692e-14
2.08288e-14
2.30247e-14
3.16269e-14
3.85197e-14
3.70092e-14
3.44924e-14
3.67769e-14
4.08608e-14
4.7856e-14
4.81305e-14
4.20162e-14
3.00985e-14
3.09426e-14
2.75641e-14
3.20143e-14
3.13556e-14
2.41643e-14
1.87238e-14
1.49061e-14
2.14865e-14
2.34145e-14
3.27794e-14
3.1545e-14
2.62326e-14
2.75605e-14
2.76683e-14
2.64147e-14
2.47855e-14
2.359e-14
3.15477e-14
2.72308e-14
2.01374e-14
2.30109e-14
2.35183e-14
2.5e-14
2.80119e-14
3.20245e-14
3.06303e-14
3.1025e-14
3.1501e-14
3.2159e-14
3.2061e-14
3.23357e-14
2.55309e-14
1.98403e-14
2.02908e-14
2.74111e-14
2.64087e-14
1.3024e-14
1.0633e-14
1.30476e-14
1.19177e-14
1.43801e-14
1.35111e-14
1.77092e-14
1.50646e-14
1.45301e-14
1.07928e-14
1.71666e-14
1.44586e-14
2.05632e-14
2.27936e-14
2.64256e-14
2.96831e-14
3.09744e-14
3.27364e-14
3.42967e-14
3.71371e-14
3.09183e-14
2.69833e-14
2.31979e-14
2.04989e-14
2.40257e-14
2.26489e-14
2.74321e-14
2.33817e-14
2.87305e-14
2.61899e-14
2.24455e-14
1.88521e-14
1.93652e-14
1.27512e-14
1.25369e-14
1.48163e-14
1.26524e-14
1.11649e-14
1.24613e-14
1.83411e-14
1.77654e-14
1.96942e-14
1.93771e-14
2.19234e-14
1.61896e-14
1.8346e-14
1.89374e-14
1.97065e-14
2.72842e-14
2.20763e-14
1.83627e-14
1.59366e-14
1.28489e-14
1.78867e-14
1.52373e-14
2.06879e-14