/*--------------------------------*- C++ -*----------------------------------*\
| =========                 |                                                 |
| \\      /  F ield         | OpenFOAM: The Open Source CFD Toolbox           |
|  \\    /   O peration     | Version:  2406                                  |
|   \\  /    A nd           | Website:  www.openfoam.com                      |
|    \\/     M anipulation  |                                                 |
\*---------------------------------------------------------------------------*/
FoamFile
{
    version     2.0;
    format      ascii;
    arch        "LSB;label=32;scalar=64";
    class       volScalarField;
    location    "0.085";
    object      Ma;
}
// * * * * * * * * * * * * * * * * * * * * * * * * * * * * * * * * * * * * * //

dimensions      [0 0 0 0 0 0 0];

internalField   nonuniform List<scalar> 
13818
(
1.39035e-13
1.14162e-13
9.72301e-14
8.06226e-14
7.35387e-14
6.4602e-14
5.69324e-14
5.9621e-14
5.92335e-14
5.63566e-14
5.88694e-14
6.25801e-14
6.794e-14
6.56461e-14
6.28821e-14
7.00731e-14
8.16038e-14
8.02068e-14
8.14574e-14
8.22014e-14
7.79738e-14
7.20557e-14
6.71438e-14
6.51939e-14
6.03566e-14
5.94287e-14
5.76349e-14
4.92348e-14
4.81392e-14
4.47703e-14
4.71297e-14
4.82661e-14
3.61592e-14
3.37762e-14
3.17386e-14
2.48814e-14
3.04802e-14
2.82616e-14
2.83101e-14
3.16665e-14
3.01403e-14
2.69883e-14
1.13507e-14
1.60619e-14
1.7997e-14
2.24058e-14
1.85171e-14
1.18059e-14
2.50098e-14
3.44316e-14
3.63629e-14
3.98156e-14
4.17107e-14
4.10278e-14
4.77513e-14
4.15984e-14
3.94846e-14
3.81721e-14
2.7584e-14
3.06267e-14
2.79804e-14
3.04793e-14
3.36348e-14
3.60969e-14
3.42598e-14
3.82698e-14
3.8929e-14
4.26355e-14
3.71992e-14
2.73292e-14
1.97873e-14
1.65536e-14
2.31407e-14
3.28334e-14
4.0255e-14
4.00207e-14
4.09239e-14
3.38811e-14
3.55646e-14
3.48555e-14
3.6183e-14
3.62684e-14
2.94086e-14
2.22568e-14
2.17746e-14
1.58695e-14
1.78946e-14
1.84084e-14
2.74656e-14
2.10178e-14
1.16607e-14
1.1428e-14
9.07837e-15
2.06715e-14
1.49711e-14
9.43811e-15
8.02718e-15
5.87835e-15
7.37288e-15
8.0433e-15
7.4678e-15
1.34821e-14
2.03318e-14
8.75851e-15
2.06338e-14
3.69994e-14
1.40485e-13
1.13797e-13
9.9967e-14
8.32011e-14
7.11869e-14
6.66132e-14
6.17503e-14
5.88689e-14
6.20414e-14
6.13917e-14
6.40549e-14
6.92762e-14
6.92577e-14
6.79828e-14
6.77533e-14
6.90465e-14
7.60428e-14
8.06125e-14
8.10968e-14
8.12085e-14
8.1993e-14
7.64703e-14
6.77021e-14
6.36866e-14
6.03376e-14
5.94086e-14
5.65072e-14
5.1873e-14
4.75662e-14
4.59339e-14
4.51712e-14
4.37298e-14
3.82104e-14
3.22484e-14
3.07145e-14
2.79056e-14
2.7383e-14
2.54162e-14
2.30798e-14
2.65354e-14
2.39411e-14
1.33782e-14
4.4097e-15
8.74501e-15
6.88824e-15
1.12203e-14
7.99948e-15
1.36075e-14
2.70477e-14
3.34211e-14
3.77429e-14
4.02367e-14
4.69363e-14
4.98554e-14
5.41398e-14
5.35776e-14
5.22284e-14
4.0902e-14
2.98447e-14
2.70435e-14
2.97526e-14
3.84936e-14
4.7622e-14
5.19095e-14
5.21609e-14
5.15124e-14
5.01366e-14
4.86348e-14
4.03914e-14
2.75286e-14
1.16075e-14
1.31597e-14
2.73807e-14
3.92892e-14
4.65289e-14
4.78088e-14
3.79191e-14
2.85282e-14
3.07058e-14
3.17952e-14
3.3968e-14
3.29909e-14
3.13308e-14
2.71651e-14
2.64119e-14
2.27475e-14
1.86249e-14
1.83194e-14
2.27967e-14
2.37501e-14
1.74568e-14
8.23442e-15
1.04123e-14
1.49914e-14
1.25552e-14
1.36485e-14
1.13851e-14
1.0549e-14
5.35448e-15
3.4361e-15
6.13299e-15
1.12565e-14
9.3135e-15
6.52137e-15
7.86638e-15
2.44755e-14
1.33838e-13
1.1336e-13
9.99347e-14
8.47613e-14
7.39054e-14
7.17222e-14
6.86035e-14
6.65961e-14
7.02069e-14
7.00156e-14
7.25054e-14
7.83111e-14
7.75788e-14
7.58686e-14
7.67491e-14
7.42911e-14
8.19206e-14
8.86029e-14
8.81952e-14
8.67471e-14
8.66085e-14
7.97757e-14
7.05526e-14
6.55859e-14
6.31545e-14
6.37544e-14
6.37903e-14
5.85921e-14
5.18959e-14
5.08622e-14
4.80684e-14
4.58101e-14
4.19434e-14
3.74408e-14
3.97708e-14
3.54036e-14
3.54242e-14
3.49106e-14
3.20679e-14
3.28355e-14
2.62222e-14
2.64543e-14
2.59131e-14
2.87162e-14
1.82217e-14
1.79877e-14
1.87474e-14
2.56042e-14
3.57103e-14
3.69774e-14
3.82547e-14
4.11784e-14
4.8154e-14
5.46311e-14
6.16369e-14
6.47419e-14
5.97644e-14
4.97743e-14
3.57814e-14
2.84655e-14
3.2223e-14
4.56934e-14
5.82416e-14
6.60321e-14
6.49764e-14
6.16444e-14
6.07084e-14
5.69666e-14
4.90214e-14
3.71118e-14
1.74671e-14
1.90793e-14
3.39749e-14
4.63168e-14
5.35265e-14
5.52654e-14
4.4614e-14
3.59834e-14
3.70822e-14
3.79987e-14
3.85084e-14
3.69634e-14
3.88459e-14
3.38312e-14
3.35868e-14
2.70959e-14
1.49193e-14
1.86152e-14
3.48802e-14
3.6139e-14
2.97177e-14
2.36236e-14
2.73973e-14
3.17885e-14
2.88436e-14
2.86908e-14
3.00535e-14
3.23263e-14
3.26283e-14
3.16191e-14
2.80341e-14
3.22867e-14
3.52141e-14
3.34672e-14
2.90853e-14
3.50246e-14
1.36501e-13
1.14143e-13
9.94016e-14
8.13244e-14
7.12537e-14
7.30034e-14
7.56252e-14
6.84634e-14
6.89784e-14
6.75838e-14
7.46714e-14
7.86958e-14
7.43876e-14
7.34469e-14
7.48715e-14
7.67248e-14
7.82681e-14
8.5676e-14
8.53208e-14
8.75176e-14
8.71427e-14
8.52698e-14
7.88024e-14
6.24121e-14
5.86117e-14
6.74471e-14
6.3569e-14
5.55379e-14
5.46195e-14
5.25146e-14
4.81859e-14
5.06104e-14
4.08194e-14
3.44837e-14
3.67797e-14
4.06189e-14
3.64231e-14
3.78229e-14
3.76975e-14
3.6649e-14
2.74918e-14
2.45683e-14
3.20396e-14
3.22907e-14
2.99939e-14
3.27004e-14
3.08651e-14
4.17417e-14
5.26155e-14
4.90513e-14
4.61315e-14
4.85321e-14
5.54429e-14
6.40468e-14
7.3079e-14
8.4514e-14
7.28852e-14
5.63787e-14
4.389e-14
4.28848e-14
4.11195e-14
6.01893e-14
7.80694e-14
8.70393e-14
8.52254e-14
8.19025e-14
8.06014e-14
7.5892e-14
6.41026e-14
4.69922e-14
2.78197e-14
2.71428e-14
4.31482e-14
6.03411e-14
6.7557e-14
6.50128e-14
5.26063e-14
3.87923e-14
3.57347e-14
3.96359e-14
4.90307e-14
4.2725e-14
4.04927e-14
3.53528e-14
3.49027e-14
3.68851e-14
2.84026e-14
2.98154e-14
4.91723e-14
5.41435e-14
4.59684e-14
3.72617e-14
3.62016e-14
3.32566e-14
2.98003e-14
2.97517e-14
3.15107e-14
2.91248e-14
3.57878e-14
3.72663e-14
3.4632e-14
3.16941e-14
3.59303e-14
4.5266e-14
4.25993e-14
1.28703e-13
1.07361e-13
9.64312e-14
7.40931e-14
6.35701e-14
6.63679e-14
6.84614e-14
6.76775e-14
6.62937e-14
6.39887e-14
6.51587e-14
7.17305e-14
6.51453e-14
6.37691e-14
6.5479e-14
6.70342e-14
7.54885e-14
8.46275e-14
8.22948e-14
8.28885e-14
8.35499e-14
7.93539e-14
7.41626e-14
5.93874e-14
5.60409e-14
6.45533e-14
6.28801e-14
5.16506e-14
5.0022e-14
5.41718e-14
5.12369e-14
4.73149e-14
4.02061e-14
3.08618e-14
2.95367e-14
2.74605e-14
3.24693e-14
2.47761e-14
2.24472e-14
1.9645e-14
1.87288e-14
1.22711e-14
2.199e-14
2.39276e-14
2.32428e-14
1.9192e-14
1.21189e-14
2.4945e-14
3.25871e-14
3.72907e-14
3.71705e-14
3.95544e-14
4.83218e-14
6.12732e-14
7.49666e-14
7.97245e-14
7.50791e-14
6.70717e-14
5.95528e-14
6.7298e-14
6.69325e-14
7.85214e-14
9.02466e-14
9.64943e-14
9.40567e-14
9.52322e-14
9.32823e-14
8.66343e-14
7.29901e-14
4.69616e-14
2.95691e-14
2.20487e-14
3.60005e-14
5.02442e-14
5.51065e-14
5.84299e-14
4.81241e-14
3.69156e-14
3.1934e-14
3.27197e-14
3.88532e-14
3.42261e-14
3.64905e-14
3.21584e-14
2.53201e-14
2.62148e-14
2.08289e-14
2.39947e-14
4.74525e-14
6.00255e-14
4.89534e-14
2.76299e-14
2.2046e-14
1.5405e-14
1.19007e-14
1.54664e-14
1.39473e-14
1.67152e-14
1.98793e-14
2.21529e-14
2.80319e-14
2.33116e-14
2.24926e-14
2.86641e-14
3.07795e-14
1.33178e-13
1.03175e-13
8.65804e-14
7.53768e-14
6.11529e-14
5.99112e-14
6.16336e-14
6.39663e-14
6.56554e-14
6.64515e-14
6.72731e-14
6.68949e-14
6.14239e-14
6.134e-14
6.53817e-14
6.93062e-14
7.70538e-14
8.11164e-14
8.53602e-14
8.04752e-14
7.95914e-14
8.00354e-14
6.99534e-14
6.3233e-14
6.01731e-14
6.40819e-14
6.84266e-14
6.531e-14
6.39404e-14
6.55125e-14
5.83847e-14
5.52394e-14
4.0727e-14
3.23813e-14
2.87918e-14
2.60568e-14
1.91191e-14
1.71104e-14
1.7579e-14
1.60203e-14
5.78076e-15
2.03774e-14
3.98134e-14
4.36164e-14
3.66414e-14
2.94231e-14
1.91375e-14
8.88921e-15
1.39706e-14
1.47527e-14
1.90446e-14
2.58754e-14
4.12035e-14
5.45701e-14
7.13546e-14
8.18182e-14
8.73404e-14
8.93425e-14
9.51692e-14
9.95615e-14
1.01496e-13
1.14944e-13
1.24376e-13
1.272e-13
1.24763e-13
1.29567e-13
1.24402e-13
1.10907e-13
8.37321e-14
4.87301e-14
2.64376e-14
1.25779e-14
2.67586e-14
3.67254e-14
4.29741e-14
5.09437e-14
4.39505e-14
3.5386e-14
3.79669e-14
4.25852e-14
3.66788e-14
2.59098e-14
2.81099e-14
2.44787e-14
2.32626e-14
2.1986e-14
1.36075e-14
3.4943e-14
5.79235e-14
6.85658e-14
4.34812e-14
1.82954e-14
8.00219e-15
1.65323e-14
3.09593e-14
4.02185e-14
4.26547e-14
4.56243e-14
4.03939e-14
3.21853e-14
3.32562e-14
3.30976e-14
3.14096e-14
3.06853e-14
2.78335e-14
1.39158e-13
9.63193e-14
7.83621e-14
6.86231e-14
5.93224e-14
6.03257e-14
5.76909e-14
6.07429e-14
6.45991e-14
6.89101e-14
6.9527e-14
6.40102e-14
6.32026e-14
6.13236e-14
6.54449e-14
7.14051e-14
7.94794e-14
8.49003e-14
8.54551e-14
8.0374e-14
8.38447e-14
8.3137e-14
7.09788e-14
6.57749e-14
6.75889e-14
6.68671e-14
7.65473e-14
7.84248e-14
7.36724e-14
7.7608e-14
6.56729e-14
5.77499e-14
4.26069e-14
3.38124e-14
3.29956e-14
2.67809e-14
1.65783e-14
2.02789e-14
2.37989e-14
1.90996e-14
1.46331e-14
2.27641e-14
5.10019e-14
5.80365e-14
4.621e-14
4.47528e-14
3.54716e-14
2.04739e-14
1.52322e-14
1.21327e-14
4.71061e-15
1.6409e-14
3.67667e-14
5.07738e-14
7.30045e-14
7.80553e-14
9.51879e-14
9.93324e-14
1.17258e-13
1.21758e-13
1.19904e-13
1.34287e-13
1.45899e-13
1.4706e-13
1.40277e-13
1.49528e-13
1.46247e-13
1.30004e-13
8.8381e-14
4.36989e-14
1.61875e-14
9.17944e-15
2.50732e-14
3.51401e-14
4.01531e-14
5.65111e-14
4.45667e-14
3.36655e-14
3.80415e-14
4.3626e-14
3.64422e-14
2.53907e-14
2.54497e-14
2.27474e-14
1.72205e-14
1.93137e-14
1.42407e-14
4.68613e-14
6.66942e-14
7.86832e-14
5.2568e-14
1.60671e-14
9.19951e-15
2.06669e-14
3.50168e-14
5.2655e-14
5.42223e-14
6.31483e-14
5.11027e-14
3.27871e-14
3.31391e-14
3.94e-14
3.30725e-14
3.16749e-14
3.2143e-14
1.23488e-13
9.38124e-14
8.1582e-14
7.04224e-14
6.5189e-14
6.53084e-14
6.34485e-14
7.08142e-14
7.43653e-14
6.7623e-14
6.86933e-14
7.02007e-14
6.90107e-14
6.88355e-14
6.97362e-14
7.38553e-14
7.62926e-14
7.90104e-14
8.24209e-14
8.15666e-14
8.09245e-14
7.75297e-14
7.00513e-14
6.90657e-14
7.1202e-14
6.61291e-14
6.80239e-14
6.4437e-14
6.4594e-14
6.46135e-14
5.87003e-14
4.79873e-14
4.06159e-14
3.76442e-14
3.03362e-14
2.28886e-14
2.12851e-14
1.78782e-14
1.36279e-14
1.11253e-14
4.41294e-15
1.95322e-14
3.43001e-14
4.09623e-14
3.99094e-14
3.76767e-14
3.55124e-14
2.88603e-14
2.35181e-14
2.19148e-14
1.5885e-14
4.4464e-15
1.84916e-14
3.6931e-14
5.32876e-14
5.41289e-14
7.0488e-14
8.43635e-14
9.25963e-14
9.85474e-14
1.00655e-13
1.10586e-13
1.19523e-13
1.16589e-13
1.1497e-13
1.20563e-13
1.21574e-13
1.05163e-13
7.09835e-14
2.9402e-14
8.50116e-15
2.33953e-14
2.95181e-14
3.66423e-14
4.07126e-14
4.51304e-14
4.21433e-14
3.60035e-14
3.21306e-14
3.07317e-14
2.7698e-14
2.12063e-14
1.76168e-14
1.39857e-14
1.46045e-14
1.31437e-14
1.16291e-14
3.32033e-14
4.69971e-14
5.38646e-14
3.77369e-14
1.62633e-14
1.01555e-14
1.58001e-14
2.53545e-14
3.78272e-14
4.51326e-14
4.63703e-14
3.80012e-14
3.01255e-14
2.52473e-14
2.81981e-14
2.79181e-14
2.41548e-14
2.13606e-14
1.09651e-13
8.73775e-14
7.97036e-14
7.59507e-14
7.0209e-14
6.81176e-14
7.61894e-14
8.34989e-14
7.89163e-14
7.34071e-14
7.8936e-14
7.18587e-14
7.04248e-14
6.99905e-14
7.08636e-14
7.56188e-14
7.61595e-14
8.13443e-14
8.39129e-14
8.09151e-14
7.57485e-14
7.11762e-14
6.49003e-14
6.49151e-14
6.1839e-14
5.74292e-14
6.03436e-14
6.13466e-14
5.77007e-14
5.42478e-14
5.51848e-14
4.76035e-14
4.01437e-14
4.04977e-14
3.1525e-14
2.26284e-14
1.69573e-14
1.79404e-14
1.47633e-14
1.07962e-14
1.45978e-14
1.81518e-14
2.81037e-14
3.85295e-14
4.2692e-14
4.71758e-14
5.01363e-14
4.76301e-14
5.17374e-14
4.65472e-14
3.85425e-14
3.02858e-14
2.62111e-14
2.95179e-14
2.36438e-14
3.16774e-14
4.45167e-14
5.64459e-14
5.66439e-14
6.15042e-14
6.62794e-14
6.42042e-14
6.73961e-14
6.60631e-14
6.38247e-14
6.5308e-14
7.16876e-14
6.34753e-14
3.55854e-14
2.68449e-14
3.18417e-14
4.34542e-14
4.53365e-14
5.03062e-14
5.15637e-14
5.05477e-14
4.32737e-14
3.73514e-14
3.66291e-14
3.54761e-14
3.28492e-14
2.28238e-14
2.44704e-14
2.65017e-14
2.08129e-14
2.53394e-14
2.56671e-14
3.01005e-14
2.87275e-14
3.1481e-14
2.21915e-14
2.28756e-14
1.9024e-14
2.46594e-14
2.74867e-14
4.21109e-14
4.93062e-14
5.39883e-14
4.21131e-14
3.75048e-14
3.32237e-14
3.25329e-14
2.91913e-14
3.42606e-14
1.17922e-13
9.29903e-14
8.46324e-14
7.41552e-14
7.72618e-14
7.66219e-14
8.41091e-14
9.19186e-14
7.95597e-14
7.30379e-14
7.83002e-14
7.81966e-14
7.83479e-14
7.5561e-14
6.95581e-14
6.80015e-14
7.60452e-14
8.90325e-14
8.65564e-14
8.3004e-14
8.66295e-14
8.09254e-14
6.93967e-14
6.81671e-14
6.34942e-14
6.06348e-14
5.77564e-14
5.34008e-14
5.84063e-14
5.7825e-14
5.31889e-14
5.56252e-14
4.82804e-14
5.46752e-14
4.47077e-14
3.80866e-14
3.44786e-14
3.20874e-14
2.93851e-14
2.72555e-14
3.32254e-14
3.74383e-14
4.20401e-14
5.17106e-14
5.82159e-14
5.90082e-14
6.95809e-14
6.9347e-14
7.43671e-14
7.18999e-14
6.5961e-14
6.09152e-14
5.88636e-14
5.36961e-14
4.7214e-14
4.77332e-14
5.08966e-14
5.15252e-14
5.20952e-14
5.27773e-14
5.78071e-14
5.62842e-14
5.44405e-14
5.27529e-14
5.43996e-14
5.31877e-14
5.14227e-14
4.78313e-14
4.89082e-14
4.69063e-14
5.11901e-14
5.78255e-14
5.98031e-14
6.04747e-14
6.16628e-14
6.10012e-14
5.50365e-14
4.43763e-14
3.56736e-14
3.3499e-14
3.67217e-14
3.14657e-14
2.69359e-14
3.12338e-14
3.55248e-14
3.40147e-14
3.52954e-14
3.48223e-14
3.68284e-14
3.76248e-14
3.35589e-14
3.43283e-14
3.8089e-14
3.56964e-14
4.11376e-14
4.46356e-14
4.95329e-14
4.41289e-14
3.67789e-14
3.7527e-14
3.74395e-14
3.60385e-14
4.23942e-14
4.19826e-14
1.03399e-13
9.49087e-14
9.54817e-14
8.73951e-14
8.30872e-14
8.33828e-14
8.6598e-14
8.35897e-14
7.44676e-14
6.99242e-14
7.31452e-14
6.90886e-14
7.27212e-14
7.23468e-14
6.96965e-14
7.20979e-14
7.5644e-14
8.12839e-14
8.35597e-14
7.99389e-14
7.68022e-14
7.53544e-14
6.62018e-14
6.50587e-14
5.87506e-14
5.69273e-14
5.67184e-14
5.39972e-14
5.11972e-14
4.99634e-14
4.18508e-14
4.44612e-14
4.19851e-14
3.99691e-14
3.6079e-14
3.25734e-14
2.67203e-14
2.1461e-14
2.52456e-14
2.91302e-14
2.75745e-14
3.23743e-14
3.47626e-14
5.11688e-14
6.75121e-14
7.57031e-14
8.80343e-14
9.22256e-14
9.05325e-14
8.59948e-14
8.21996e-14
8.40815e-14
7.64791e-14
6.56972e-14
6.24009e-14
5.17945e-14
4.24012e-14
3.21642e-14
2.76033e-14
2.86258e-14
3.04849e-14
3.02364e-14
2.17524e-14
2.60114e-14
3.65483e-14
4.31357e-14
3.98762e-14
4.877e-14
5.50651e-14
5.64932e-14
5.51311e-14
5.62779e-14
5.92643e-14
5.62787e-14
5.13334e-14
4.77086e-14
4.74569e-14
3.91508e-14
2.06105e-14
1.10489e-14
1.90191e-14
2.32573e-14
2.06272e-14
1.87867e-14
2.42194e-14
2.67531e-14
2.57729e-14
2.52915e-14
2.47454e-14
2.26274e-14
2.84085e-14
2.5298e-14
2.684e-14
2.5283e-14
3.06078e-14
3.1572e-14
3.14898e-14
2.42727e-14
2.01133e-14
1.88843e-14
1.24011e-13
1.19009e-13
1.18297e-13
1.12893e-13
1.03434e-13
9.71395e-14
9.45736e-14
9.18525e-14
8.31943e-14
7.98369e-14
8.01411e-14
6.77999e-14
7.46594e-14
7.23598e-14
7.61907e-14
8.03124e-14
8.21964e-14
8.74116e-14
8.91554e-14
8.27764e-14
7.628e-14
7.83129e-14
7.0851e-14
6.8654e-14
6.04021e-14
5.63384e-14
5.41675e-14
5.31606e-14
5.06693e-14
4.50105e-14
3.83405e-14
3.4141e-14
2.91813e-14
2.37213e-14
2.06451e-14
1.35159e-14
1.10277e-14
1.05676e-14
7.38618e-15
1.24521e-14
6.82371e-15
1.62041e-14
2.74167e-14
4.68252e-14
7.26163e-14
1.01069e-13
1.24186e-13
1.3194e-13
1.30591e-13
1.28203e-13
1.24879e-13
1.24224e-13
1.15801e-13
1.05013e-13
8.61841e-14
6.67018e-14
5.19344e-14
4.65262e-14
4.00732e-14
3.68903e-14
3.71938e-14
3.49553e-14
3.45519e-14
3.98813e-14
4.40375e-14
5.65484e-14
6.95867e-14
7.86185e-14
8.13922e-14
8.09056e-14
7.54979e-14
7.00957e-14
6.63294e-14
6.59029e-14
6.10659e-14
5.61315e-14
4.13578e-14
2.16134e-14
1.32489e-14
1.99116e-14
3.01496e-14
3.32346e-14
3.3182e-14
2.84529e-14
2.23215e-14
2.23066e-14
2.23716e-14
1.55882e-14
8.30064e-15
2.05542e-14
2.37743e-14
2.43253e-14
2.19527e-14
1.683e-14
1.42016e-14
1.06222e-14
1.11448e-14
4.04177e-15
1.33658e-14
3.08903e-14
1.24587e-13
1.33695e-13
1.36302e-13
1.24189e-13
1.13448e-13
1.03648e-13
9.82333e-14
9.27358e-14
9.08624e-14
9.08278e-14
8.43977e-14
7.77466e-14
8.2029e-14
7.80477e-14
8.64143e-14
8.94589e-14
9.24875e-14
9.37061e-14
9.89835e-14
9.24945e-14
8.98908e-14
9.13764e-14
8.31788e-14
7.45354e-14
6.26352e-14
6.80173e-14
6.30372e-14
5.78483e-14
5.78115e-14
5.22966e-14
4.42701e-14
3.99896e-14
3.93467e-14
4.18993e-14
3.49518e-14
2.75693e-14
3.04657e-14
2.58847e-14
2.76342e-14
2.34281e-14
2.01315e-14
2.47145e-14
3.70393e-14
5.4569e-14
7.97494e-14
1.14488e-13
1.48724e-13
1.56607e-13
1.57802e-13
1.60871e-13
1.59755e-13
1.57196e-13
1.48825e-13
1.26522e-13
9.85385e-14
7.5329e-14
6.14772e-14
5.65531e-14
5.09046e-14
4.68709e-14
4.57852e-14
4.69567e-14
4.97856e-14
5.73633e-14
5.78653e-14
6.47999e-14
7.63689e-14
8.4183e-14
8.77667e-14
8.80807e-14
8.23965e-14
7.69901e-14
7.25078e-14
7.1902e-14
6.6196e-14
5.88215e-14
5.03914e-14
4.29855e-14
3.59438e-14
3.837e-14
4.63632e-14
5.22414e-14
5.29807e-14
4.59648e-14
3.84531e-14
4.10449e-14
3.73166e-14
3.29049e-14
3.13371e-14
3.56069e-14
3.6336e-14
3.78454e-14
3.29175e-14
3.20411e-14
3.04324e-14
3.02683e-14
3.47556e-14
3.21956e-14
3.85227e-14
4.6843e-14
1.48558e-13
1.33042e-13
1.33754e-13
1.30528e-13
1.18356e-13
1.07795e-13
9.85494e-14
9.48482e-14
9.64571e-14
9.35931e-14
8.52704e-14
7.91458e-14
7.54568e-14
7.74237e-14
8.80275e-14
9.00927e-14
8.70466e-14
8.60732e-14
8.89684e-14
8.39302e-14
8.37844e-14
7.87193e-14
7.28005e-14
6.92832e-14
6.38145e-14
6.17504e-14
5.5952e-14
5.56527e-14
5.35925e-14
4.63876e-14
4.53162e-14
4.29756e-14
4.39378e-14
3.99509e-14
2.94549e-14
2.83487e-14
2.28197e-14
2.07509e-14
2.7654e-14
2.88748e-14
2.57859e-14
2.63099e-14
2.41252e-14
5.24686e-14
8.51662e-14
1.22862e-13
1.60026e-13
1.82114e-13
1.91617e-13
1.95046e-13
1.95559e-13
1.90013e-13
1.75327e-13
1.44606e-13
1.14044e-13
8.8165e-14
7.25974e-14
6.51131e-14
5.98881e-14
5.67392e-14
5.58019e-14
5.5027e-14
5.79166e-14
6.03937e-14
5.8762e-14
6.84592e-14
7.95478e-14
8.71761e-14
9.02505e-14
8.74503e-14
7.799e-14
6.93376e-14
6.18118e-14
6.25553e-14
5.54609e-14
5.30287e-14
4.70165e-14
4.05223e-14
3.50518e-14
4.32421e-14
5.09339e-14
5.82508e-14
5.91016e-14
5.88904e-14
5.22727e-14
4.92742e-14
4.53046e-14
3.58312e-14
2.91244e-14
2.69249e-14
3.32668e-14
3.75672e-14
4.42759e-14
1.38339e-13
1.24343e-13
1.24094e-13
1.14323e-13
1.02134e-13
9.55646e-14
9.32697e-14
8.74474e-14
9.119e-14
9.27368e-14
8.53414e-14
7.34589e-14
6.17584e-14
7.13718e-14
7.25173e-14
7.5789e-14
7.85822e-14
8.06139e-14
8.0525e-14
7.50894e-14
7.55114e-14
6.77728e-14
6.51312e-14
6.64321e-14
5.95527e-14
5.74886e-14
5.04943e-14
4.51519e-14
4.39947e-14
4.01712e-14
3.62085e-14
3.49615e-14
3.74489e-14
3.64224e-14
3.03941e-14
1.87014e-14
1.89118e-14
2.56404e-14
2.80988e-14
2.89013e-14
2.3995e-14
1.74616e-14
2.92649e-14
4.59772e-14
8.30506e-14
1.27892e-13
1.67984e-13
1.96593e-13
2.09617e-13
2.09923e-13
2.08191e-13
1.99899e-13
1.82889e-13
1.52739e-13
1.16282e-13
8.68897e-14
6.9206e-14
6.37575e-14
5.54477e-14
5.63786e-14
5.52001e-14
5.48751e-14
5.74944e-14
5.9507e-14
5.99075e-14
6.84705e-14
7.67141e-14
7.9271e-14
8.0476e-14
7.68871e-14
6.80812e-14
5.655e-14
4.51526e-14
3.7983e-14
2.80551e-14
2.4001e-14
1.67987e-14
1.06811e-14
1.45381e-14
2.52951e-14
3.72631e-14
5.18963e-14
5.39772e-14
5.87142e-14
5.42879e-14
4.6011e-14
3.61047e-14
3.16266e-14
2.03051e-14
1.55642e-14
1.48314e-14
2.60097e-14
3.01273e-14
1.2953e-13
1.12487e-13
1.04838e-13
9.95117e-14
9.39502e-14
9.83127e-14
1.00243e-13
9.22472e-14
9.06333e-14
9.53271e-14
9.44017e-14
9.07239e-14
8.10029e-14
9.4121e-14
9.16853e-14
8.76976e-14
9.24757e-14
9.23469e-14
8.55497e-14
7.67415e-14
8.03505e-14
8.24104e-14
7.53221e-14
7.11604e-14
7.24667e-14
7.23384e-14
6.0985e-14
5.44774e-14
5.11002e-14
5.35148e-14
5.13821e-14
4.93041e-14
5.20518e-14
5.15428e-14
4.89927e-14
4.28736e-14
4.58846e-14
5.23447e-14
5.9973e-14
5.98432e-14
5.35117e-14
5.22536e-14
4.7537e-14
6.03186e-14
9.10528e-14
1.36332e-13
1.77647e-13
2.12908e-13
2.35002e-13
2.36826e-13
2.29944e-13
2.1851e-13
1.95065e-13
1.62669e-13
1.24569e-13
9.45259e-14
7.69719e-14
7.00275e-14
7.43132e-14
7.72178e-14
7.35645e-14
6.70089e-14
6.91243e-14
6.95348e-14
7.3885e-14
8.13675e-14
8.11748e-14
7.95667e-14
8.24238e-14
7.49276e-14
5.819e-14
4.72571e-14
4.02072e-14
3.91634e-14
3.32351e-14
3.92298e-14
3.81419e-14
2.83556e-14
2.80324e-14
3.58397e-14
4.65335e-14
6.6122e-14
7.42967e-14
7.19837e-14
7.06103e-14
6.24494e-14
5.11281e-14
4.99641e-14
4.78886e-14
4.70256e-14
4.28221e-14
4.98699e-14
5.55724e-14
8.09727e-14
8.27008e-14
7.57705e-14
7.9732e-14
8.16345e-14
8.4002e-14
8.77228e-14
8.66574e-14
8.80538e-14
9.33248e-14
9.01723e-14
7.76028e-14
7.05881e-14
7.89319e-14
8.44706e-14
8.22898e-14
8.32089e-14
8.30418e-14
8.28447e-14
7.85611e-14
7.20453e-14
7.05162e-14
6.41401e-14
6.01969e-14
6.1575e-14
6.33756e-14
6.03184e-14
5.96217e-14
4.9146e-14
4.01553e-14
3.92154e-14
3.72115e-14
4.18182e-14
4.08628e-14
3.75323e-14
3.59604e-14
3.62119e-14
3.71331e-14
4.4554e-14
4.55163e-14
4.48663e-14
3.74084e-14
3.33886e-14
3.53835e-14
6.72923e-14
1.05557e-13
1.45879e-13
1.79395e-13
1.95875e-13
1.99048e-13
1.95651e-13
1.86228e-13
1.64873e-13
1.30178e-13
1.00372e-13
7.57615e-14
6.37473e-14
6.11133e-14
6.21862e-14
6.22476e-14
6.20792e-14
6.36833e-14
6.6999e-14
6.80185e-14
7.02703e-14
7.18087e-14
6.99044e-14
6.78031e-14
6.74083e-14
5.58526e-14
4.04007e-14
2.76163e-14
2.078e-14
1.65589e-14
1.5171e-14
1.79607e-14
2.20985e-14
1.86628e-14
1.91351e-14
2.7076e-14
3.8261e-14
5.05234e-14
5.87459e-14
6.1132e-14
6.12515e-14
5.6795e-14
4.89815e-14
4.0611e-14
3.52865e-14
3.3474e-14
3.23714e-14
3.43865e-14
9.44715e-14
8.42472e-14
7.62113e-14
7.30197e-14
6.63131e-14
6.46059e-14
7.47847e-14
8.28759e-14
8.6598e-14
8.6752e-14
7.94072e-14
8.25884e-14
8.01625e-14
9.02916e-14
9.27608e-14
8.95729e-14
9.27305e-14
9.11141e-14
8.5902e-14
7.98238e-14
7.58128e-14
7.51877e-14
6.65054e-14
5.75921e-14
5.3109e-14
5.3552e-14
5.29871e-14
5.31764e-14
4.2322e-14
3.46937e-14
3.34949e-14
2.8512e-14
2.26841e-14
1.99119e-14
1.67469e-14
1.4541e-14
1.60583e-14
2.04994e-14
2.4252e-14
2.54866e-14
2.24238e-14
1.75284e-14
1.0485e-14
1.51351e-14
3.21147e-14
6.04668e-14
8.4566e-14
1.06484e-13
1.17665e-13
1.20456e-13
1.16173e-13
1.04752e-13
8.93088e-14
7.37173e-14
5.92641e-14
4.73467e-14
4.12849e-14
3.99663e-14
4.23455e-14
4.46167e-14
4.90279e-14
5.58782e-14
6.37481e-14
6.82876e-14
6.84763e-14
6.03013e-14
4.58995e-14
3.75575e-14
3.35319e-14
2.42584e-14
2.46287e-14
2.5155e-14
2.60984e-14
2.92712e-14
2.97904e-14
3.07129e-14
2.77786e-14
2.74517e-14
2.46941e-14
2.28071e-14
2.48351e-14
3.69838e-14
5.00597e-14
6.01344e-14
6.38615e-14
5.74923e-14
4.739e-14
3.45061e-14
2.68699e-14
1.96697e-14
1.40282e-14
1.38648e-14
1.36525e-13
1.27206e-13
1.1701e-13
1.09956e-13
9.77537e-14
9.07681e-14
8.74943e-14
8.83127e-14
9.05298e-14
8.44951e-14
8.4822e-14
9.26037e-14
9.61157e-14
1.05708e-13
1.09336e-13
1.11332e-13
1.21449e-13
1.15614e-13
1.07653e-13
1.00739e-13
9.96774e-14
9.965e-14
9.21103e-14
8.79717e-14
7.9755e-14
7.17767e-14
7.18852e-14
7.61691e-14
7.22582e-14
6.48592e-14
6.98121e-14
6.58088e-14
6.00949e-14
6.14712e-14
5.62057e-14
4.22339e-14
4.50054e-14
4.35526e-14
4.60389e-14
5.30536e-14
5.18145e-14
4.79675e-14
5.07161e-14
4.7325e-14
5.36853e-14
5.68584e-14
5.88808e-14
6.05556e-14
6.95686e-14
7.14369e-14
7.20846e-14
6.35264e-14
5.36803e-14
4.11401e-14
3.69579e-14
4.08169e-14
3.741e-14
4.18223e-14
4.13629e-14
5.41414e-14
5.26728e-14
6.36121e-14
6.58569e-14
7.09481e-14
7.21511e-14
6.92072e-14
6.06802e-14
6.56712e-14
6.88199e-14
6.73868e-14
6.38548e-14
6.36287e-14
5.7906e-14
5.97331e-14
6.71698e-14
6.62046e-14
6.88457e-14
6.73975e-14
6.491e-14
6.41483e-14
5.59381e-14
6.40589e-14
7.73725e-14
8.44436e-14
8.4565e-14
7.70247e-14
7.00085e-14
5.50888e-14
5.82502e-14
5.63225e-14
5.26858e-14
1.71836e-13
1.53807e-13
1.47554e-13
1.30845e-13
1.08332e-13
9.36808e-14
9.23118e-14
1.01651e-13
1.00185e-13
9.50201e-14
1.01694e-13
1.11787e-13
1.18418e-13
1.30181e-13
1.31427e-13
1.41034e-13
1.46708e-13
1.27304e-13
1.12788e-13
1.10299e-13
1.1835e-13
1.16386e-13
1.06382e-13
9.39402e-14
8.81458e-14
8.86345e-14
9.76529e-14
9.37734e-14
7.71204e-14
7.82792e-14
8.00891e-14
7.33598e-14
7.41438e-14
7.27215e-14
7.33275e-14
6.97805e-14
6.85753e-14
7.08088e-14
7.43946e-14
8.06045e-14
7.51997e-14
7.30783e-14
7.51207e-14
7.66869e-14
7.93393e-14
7.58385e-14
7.84368e-14
7.46432e-14
7.53755e-14
7.52254e-14
7.35847e-14
7.70397e-14
8.18111e-14
7.74211e-14
6.9051e-14
7.28722e-14
7.07581e-14
6.56874e-14
6.59782e-14
6.68006e-14
6.93761e-14
7.31215e-14
7.6348e-14
8.25758e-14
8.65364e-14
7.99333e-14
7.81271e-14
8.95138e-14
1.00556e-13
1.01193e-13
9.65851e-14
9.42856e-14
8.59752e-14
8.97258e-14
9.51259e-14
9.1972e-14
9.1493e-14
8.34634e-14
7.56514e-14
7.65492e-14
7.52687e-14
8.20937e-14
9.74763e-14
1.05142e-13
1.05502e-13
9.39671e-14
8.8591e-14
7.35195e-14
7.21239e-14
7.40066e-14
7.20366e-14
1.71262e-13
1.49305e-13
1.31519e-13
1.16441e-13
1.06793e-13
1.00073e-13
9.47185e-14
9.79438e-14
9.96741e-14
1.03028e-13
1.04487e-13
1.0888e-13
1.07591e-13
1.08554e-13
1.07399e-13
1.1527e-13
1.11524e-13
1.0137e-13
9.29472e-14
9.1982e-14
8.99089e-14
8.38235e-14
7.72239e-14
7.03658e-14
7.2954e-14
7.44035e-14
6.85198e-14
5.8066e-14
5.00393e-14
5.52461e-14
4.84805e-14
4.09443e-14
4.35217e-14
4.06284e-14
4.24436e-14
5.19757e-14
5.06097e-14
5.46539e-14
5.60265e-14
5.08357e-14
4.57661e-14
4.8671e-14
4.93308e-14
5.2922e-14
4.90973e-14
4.67126e-14
4.95128e-14
5.37715e-14
5.0563e-14
4.88824e-14
4.45847e-14
4.72253e-14
5.01598e-14
5.49309e-14
5.29542e-14
5.05341e-14
5.11701e-14
4.34581e-14
4.62641e-14
3.9535e-14
4.85149e-14
4.79157e-14
5.16197e-14
5.28199e-14
5.62234e-14
4.83533e-14
4.92202e-14
6.08938e-14
6.3959e-14
6.81052e-14
6.81851e-14
7.12123e-14
7.79397e-14
7.39287e-14
6.85235e-14
6.79366e-14
5.95258e-14
5.18664e-14
4.67105e-14
4.35763e-14
4.58662e-14
4.56463e-14
5.39935e-14
5.73139e-14
5.68264e-14
5.90643e-14
5.29585e-14
4.99786e-14
4.37718e-14
4.24055e-14
4.25494e-14
1.61955e-13
1.33606e-13
1.22005e-13
1.07931e-13
9.50364e-14
8.66003e-14
7.67403e-14
7.77149e-14
8.22938e-14
8.26761e-14
8.05674e-14
8.50297e-14
8.5323e-14
8.93093e-14
9.39332e-14
9.37189e-14
8.93157e-14
8.38439e-14
7.99235e-14
7.50526e-14
6.98122e-14
6.37227e-14
5.19215e-14
4.9011e-14
4.96052e-14
4.14111e-14
3.7985e-14
3.57637e-14
3.19544e-14
3.39923e-14
2.96111e-14
2.88052e-14
3.04539e-14
3.09156e-14
2.33571e-14
1.6077e-14
1.45028e-14
1.07279e-14
9.79658e-15
1.17623e-14
1.16599e-14
1.45374e-14
1.71362e-14
1.47423e-14
1.76805e-14
2.41285e-14
2.95415e-14
3.31592e-14
3.352e-14
3.15656e-14
2.83392e-14
2.74156e-14
2.49934e-14
2.33414e-14
2.06441e-14
2.13319e-14
2.33429e-14
2.10575e-14
1.97547e-14
1.16775e-14
1.54011e-14
8.65522e-15
1.23148e-14
1.50278e-14
1.3275e-14
2.18607e-14
3.19533e-14
3.79812e-14
3.92243e-14
4.07744e-14
3.73628e-14
3.83876e-14
3.3514e-14
3.00366e-14
3.10081e-14
2.75533e-14
2.03028e-14
1.20843e-14
1.23696e-14
1.25617e-14
5.53095e-15
1.01299e-14
1.35314e-14
1.75274e-14
1.661e-14
1.77957e-14
1.70109e-14
1.57647e-14
1.59607e-14
1.94921e-14
2.17791e-14
1.46707e-13
1.19277e-13
1.15272e-13
1.07981e-13
9.21261e-14
7.94803e-14
7.60763e-14
8.67558e-14
1.02483e-13
9.50952e-14
8.54874e-14
1.00856e-13
1.02637e-13
9.74933e-14
1.07913e-13
1.02919e-13
8.5967e-14
8.2452e-14
9.06507e-14
8.7892e-14
8.6779e-14
8.21629e-14
6.7407e-14
6.37821e-14
6.65933e-14
5.92066e-14
5.45278e-14
5.80973e-14
5.34629e-14
5.36995e-14
5.52736e-14
4.95596e-14
4.84075e-14
4.78227e-14
4.42768e-14
4.19765e-14
3.73289e-14
3.53368e-14
3.36455e-14
3.53931e-14
3.3662e-14
3.15271e-14
3.92511e-14
4.24352e-14
4.10055e-14
4.22313e-14
4.49848e-14
4.88493e-14
4.85471e-14
4.87844e-14
4.45996e-14
4.21727e-14
3.89236e-14
4.01473e-14
3.47651e-14
3.68689e-14
3.36359e-14
2.8898e-14
3.02201e-14
2.55155e-14
2.71977e-14
3.05445e-14
2.84729e-14
3.89629e-14
4.03182e-14
4.50548e-14
4.70651e-14
5.20956e-14
5.01435e-14
5.25031e-14
4.94859e-14
5.13213e-14
4.43569e-14
3.63077e-14
4.05621e-14
3.97891e-14
3.82105e-14
3.62743e-14
3.4736e-14
3.24978e-14
3.11672e-14
3.18428e-14
3.13563e-14
3.06736e-14
3.19714e-14
3.30297e-14
3.59956e-14
3.72499e-14
4.10457e-14
4.08826e-14
3.93951e-14
9.70275e-14
9.14555e-14
9.41011e-14
1.03086e-13
9.23432e-14
7.77424e-14
7.73129e-14
8.17666e-14
8.50476e-14
8.99294e-14
8.54162e-14
8.67472e-14
8.58692e-14
9.04729e-14
9.42367e-14
9.08439e-14
8.19909e-14
7.78592e-14
8.26082e-14
8.7107e-14
7.94991e-14
6.47814e-14
5.32765e-14
5.07243e-14
4.58072e-14
3.87136e-14
3.65054e-14
3.98943e-14
3.62094e-14
3.18072e-14
3.34101e-14
2.91754e-14
2.59684e-14
2.36895e-14
1.88502e-14
1.35258e-14
1.03101e-14
1.04342e-14
5.98867e-15
6.69977e-15
8.5316e-15
7.65331e-15
8.44238e-15
7.66019e-15
8.24755e-15
1.47599e-14
2.14991e-14
2.68986e-14
2.86149e-14
2.94936e-14
3.02687e-14
2.97835e-14
3.01511e-14
3.11737e-14
3.38393e-14
3.55947e-14
3.57903e-14
3.6118e-14
3.47708e-14
3.14577e-14
3.10177e-14
3.1416e-14
3.44019e-14
3.5824e-14
4.32813e-14
4.8972e-14
5.14189e-14
5.257e-14
5.26028e-14
5.19608e-14
4.98696e-14
4.52172e-14
4.02873e-14
3.62555e-14
3.35594e-14
2.91353e-14
2.57761e-14
2.25062e-14
2.22232e-14
2.27537e-14
2.21937e-14
2.27747e-14
2.43653e-14
2.44622e-14
2.47451e-14
2.09681e-14
1.41503e-14
1.734e-14
2.24966e-14
2.7348e-14
2.99015e-14
1.01907e-13
9.22382e-14
9.31333e-14
9.61761e-14
9.42469e-14
9.51052e-14
9.47947e-14
9.6949e-14
1.00797e-13
1.0095e-13
1.01414e-13
1.05053e-13
1.05906e-13
1.03342e-13
9.9754e-14
9.56961e-14
9.68532e-14
1.00922e-13
9.81056e-14
1.08586e-13
1.03873e-13
9.81117e-14
9.49191e-14
9.15821e-14
7.64142e-14
6.80094e-14
7.06685e-14
7.20539e-14
7.48816e-14
7.47229e-14
7.24901e-14
6.72654e-14
6.21824e-14
6.14102e-14
5.90474e-14
6.08384e-14
6.33271e-14
6.32803e-14
6.22712e-14
6.70621e-14
6.61885e-14
6.45382e-14
6.29713e-14
6.02469e-14
5.85616e-14
5.88834e-14
6.09992e-14
6.67464e-14
6.53518e-14
7.04371e-14
7.34662e-14
7.58906e-14
7.76387e-14
8.16161e-14
8.17578e-14
7.92134e-14
7.89226e-14
7.9645e-14
8.31857e-14
8.32995e-14
8.25568e-14
8.33439e-14
8.42909e-14
8.77816e-14
8.76623e-14
9.00731e-14
9.24163e-14
9.16194e-14
9.19745e-14
9.17947e-14
8.8616e-14
8.67259e-14
8.12087e-14
7.88199e-14
7.80404e-14
7.43703e-14
7.20647e-14
7.39444e-14
7.68026e-14
7.93079e-14
8.00634e-14
8.50314e-14
8.63188e-14
8.57561e-14
8.52125e-14
8.23785e-14