/*--------------------------------*- C++ -*----------------------------------*\
| =========                 |                                                 |
| \\      /  F ield         | OpenFOAM: The Open Source CFD Toolbox           |
|  \\    /   O peration     | Version:  2406                                  |
|   \\  /    A nd           | Website:  www.openfoam.com                      |
|    \\/     M anipulation  |                                                 |
\*---------------------------------------------------------------------------*/
FoamFile
{
    version     2.0;
    format      ascii;
    arch        "LSB;label=32;scalar=64";
    class       volScalarField;
    location    "0.035";
    object      T;
}
// * * * * * * * * * * * * * * * * * * * * * * * * * * * * * * * * * * * * * //

dimensions      [0 0 0 1 0 0 0];

internalField   nonuniform List<scalar> 
13962
(
233.19
233.19
233.19
233.19
233.19
233.19
233.19
233.19
233.19
233.19
233.19
233.19
233.19
233.19
233.19
233.19
233.191
233.201
233.462
236.761
241.681
241.84
241.897
241.956
242.018
242.07
242.093
242.093
242.084
242.06
242.026
242.004
242.005
242.015
242.04
242.075
242.101
242.108
242.106
242.095
242.073
242.049
242.038
242.036
242.04
242.053
242.073
242.082
242.082
242.079
242.069
242.053
242.039
242.032
242.033
242.038
242.049
242.062
242.07
242.07
242.068
242.059
242.045
242.032
242.028
242.029
242.034
242.045
242.059
242.071
242.074
242.073
242.067
242.057
242.045
242.039
242.04
242.042
242.05
242.061
242.072
242.074
242.073
242.068
242.059
242.048
242.037
242.035
242.035
242.039
242.045
242.054
242.06
242.06
242.059
242.057
242.052
242.046
242.045
242.045
242.047
242.05
242.054
242.056
242.055
242.055
242.054
242.051
242.048
242.047
242.047
242.048
242.05
242.053
242.055
242.057
242.057
242.056
242.054
242.053
242.053
242.054
242.054
242.057
242.059
242.06
242.059
242.058
242.055
242.051
242.047
242.045
242.045
242.045
242.046
242.048
242.051
242.053
242.053
242.053
242.053
242.053
242.053
242.053
242.053
242.054
242.054
242.054
242.054
242.055
242.055
242.055
242.054
242.052
242.052
242.051
242.05
242.05
242.05
242.05
242.051
242.052
242.059
242.074
242.073
242.042
241.94
241.758
241.527
241.292
241.101
240.98
240.914
240.889
240.867
240.85
240.836
240.837
240.845
240.861
240.878
240.893
240.903
240.91
240.915
240.916
240.924
240.941
240.975
241.044
241.15
241.26
241.349
241.418
241.478
241.53
241.576
241.617
241.653
241.687
241.719
241.75
241.777
241.8
241.82
241.836
241.85
241.861
241.869
241.876
241.881
241.884
241.888
241.891
241.895
241.897
241.9
241.904
241.908
241.911
241.914
241.917
241.921
241.925
241.928
241.933
241.936
241.939
241.94
241.941
241.943
241.943
241.943
241.943
241.943
241.944
241.944
241.944
241.945
241.948
241.952
241.963
241.98
242.01
242.057
242.136
242.264
242.468
242.787
243.281
244.034
245.16
246.818
249.212
252.605
257.316
263.718
272.237
283.317
297.372
314.674
335.167
358.136
381.776
403.071
418.521
426.121
428.223
428.556
428.58
428.561
428.496
428.354
428.121
427.822
427.518
427.274
427.139
427.096
427.096
427.124
427.189
427.256
427.326
427.397
427.452
427.476
427.472
427.464
427.464
427.464
427.461
427.458
427.454
427.44
427.414
427.388
427.362
427.337
427.32
427.318
427.325
427.341
427.363
427.384
427.4
427.411
427.414
427.41
427.396
427.378
427.368
427.362
427.354
427.347
427.341
427.333
427.326
427.318
427.311
427.302
427.295
427.294
427.296
427.303
427.311
427.318
427.321
427.322
427.32
427.313
427.3
427.289
427.282
427.278
427.277
427.278
427.28
427.28
427.275
427.264
427.248
427.224
427.189
427.147
427.095
427.027
426.951
426.875
426.813
426.773
426.751
426.74
426.738
426.74
426.747
426.766
426.795
426.83
426.867
426.899
426.925
426.943
426.956
426.966
426.973
426.98
426.987
426.996
427.006
427.019
427.032
427.045
427.057
427.068
427.078
427.086
427.093
427.101
427.111
427.122
427.135
427.152
427.17
427.191
427.213
427.234
427.252
427.267
427.279
427.288
427.295
427.302
427.307
427.311
427.315
427.316
427.316
427.316
427.315
427.313
427.31
427.308
427.307
427.307
427.308
427.31
427.313
427.317
427.32
427.324
427.326
427.329
427.33
427.332
427.333
427.334
427.334
427.335
427.337
427.338
427.34
427.341
427.342
427.343
427.344
427.345
427.346
427.348
427.351
427.353
427.355
427.357
427.358
427.358
427.358
427.358
427.358
427.357
427.357
427.356
427.356
427.356
427.356
427.356
427.356
427.356
427.355
427.355
427.355
427.355
427.355
427.355
427.355
427.355
427.355
427.355
427.355
427.355
427.354
427.353
427.352
427.35
427.349
233.19
233.19
233.19
233.19
233.19
233.19
233.19
233.19
233.19
233.19
233.19
233.19
233.19
233.19
233.19
233.19
233.191
233.201
233.462
236.761
241.681
241.84
241.897
241.956
242.018
242.07
242.093
242.093
242.084
242.06
242.026
242.004
242.005
242.015
242.04
242.075
242.101
242.108
242.106
242.095
242.073
242.049
242.038
242.036
242.04
242.053
242.073
242.082
242.082
242.079
242.069
242.053
242.039
242.032
242.033
242.038
242.049
242.062
242.07
242.07
242.068
242.059
242.045
242.032
242.028
242.029
242.034
242.045
242.059
242.071
242.074
242.073
242.067
242.057
242.045
242.039
242.04
242.042
242.05
242.061
242.072
242.074
242.073
242.068
242.059
242.048
242.037
242.035
242.035
242.039
242.045
242.054
242.06
242.06
242.059
242.057
242.052
242.046
242.045
242.045
242.047
242.05
242.054
242.056
242.055
242.055
242.054
242.051
242.048
242.047
242.047
242.048
242.05
242.053
242.055
242.057
242.057
242.056
242.054
242.053
242.053
242.054
242.054
242.057
242.059
242.06
242.059
242.058
242.055
242.051
242.047
242.045
242.045
242.045
242.046
242.048
242.051
242.053
242.053
242.053
242.053
242.053
242.053
242.053
242.053
242.054
242.054
242.054
242.054
242.055
242.055
242.055
242.054
242.052
242.052
242.051
242.05
242.05
242.05
242.05
242.051
242.052
242.059
242.074
242.073
242.042
241.94
241.757
241.526
241.289
241.1
240.982
240.919
240.893
240.868
240.848
240.831
240.833
240.843
240.86
240.879
240.894
240.905
240.911
240.916
240.917
240.924
240.94
240.975
241.044
241.15
241.259
241.348
241.418
241.478
241.53
241.576
241.616
241.653
241.687
241.719
241.75
241.777
241.8
241.82
241.836
241.85
241.861
241.869
241.876
241.881
241.884
241.888
241.891
241.895
241.897
241.9
241.904
241.908
241.911
241.914
241.917
241.921
241.925
241.928
241.933
241.936
241.939
241.94
241.941
241.943
241.943
241.943
241.943
241.943
241.944
241.943
241.944
241.945
241.948
241.952
241.963
241.98
242.01
242.057
242.136
242.264
242.468
242.787
243.28
244.033
245.158
246.815
249.207
252.598
257.305
263.7
272.209
283.277
297.317
314.604
335.086
358.057
381.713
403.032
418.502
426.122
428.225
428.556
428.58
428.561
428.495
428.353
428.12
427.822
427.518
427.274
427.14
427.096
427.096
427.124
427.188
427.256
427.325
427.396
427.452
427.476
427.472
427.464
427.465
427.464
427.461
427.458
427.454
427.44
427.414
427.388
427.362
427.337
427.32
427.318
427.325
427.341
427.362
427.384
427.4
427.411
427.415
427.41
427.396
427.378
427.368
427.362
427.354
427.347
427.341
427.333
427.326
427.318
427.311
427.302
427.295
427.294
427.296
427.303
427.311
427.318
427.321
427.322
427.32
427.313
427.301
427.289
427.282
427.278
427.277
427.278
427.28
427.28
427.275
427.264
427.248
427.224
427.189
427.146
427.094
427.026
426.95
426.874
426.812
426.773
426.75
426.739
426.738
426.74
426.747
426.766
426.795
426.83
426.867
426.9
426.925
426.944
426.956
426.966
426.973
426.98
426.987
426.996
427.006
427.018
427.032
427.045
427.057
427.068
427.078
427.086
427.093
427.101
427.111
427.122
427.135
427.152
427.171
427.191
427.213
427.234
427.252
427.267
427.279
427.288
427.295
427.302
427.307
427.311
427.315
427.316
427.316
427.316
427.315
427.313
427.31
427.308
427.307
427.307
427.308
427.31
427.313
427.317
427.32
427.324
427.326
427.329
427.33
427.332
427.333
427.334
427.334
427.335
427.337
427.338
427.34
427.341
427.342
427.343
427.344
427.345
427.346
427.348
427.351
427.353
427.355
427.357
427.358
427.358
427.358
427.358
427.358
427.357
427.357
427.356
427.356
427.356
427.356
427.356
427.356
427.356
427.355
427.355
427.355
427.355
427.355
427.355
427.355
427.355
427.355
427.355
427.355
427.355
427.354
427.353
427.352
427.35
427.349
233.19
233.19
233.19
233.19
233.19
233.19
233.19
233.19
233.19
233.19
233.19
233.19
233.19
233.19
233.19
233.19
233.191
233.201
233.462
236.761
241.681
241.84
241.897
241.956
242.018
242.07
242.093
242.093
242.084
242.06
242.027
242.004
242.005
242.015
242.04
242.075
242.101
242.108
242.106
242.095
242.073
242.049
242.038
242.036
242.04
242.053
242.073
242.082
242.082
242.079
242.069
242.053
242.039
242.032
242.033
242.038
242.049
242.062
242.07
242.07
242.068
242.059
242.046
242.032
242.028
242.029
242.034
242.045
242.059
242.071
242.074
242.073
242.067
242.057
242.045
242.039
242.04
242.042
242.05
242.061
242.072
242.074
242.073
242.068
242.059
242.048
242.037
242.035
242.035
242.039
242.045
242.054
242.06
242.06
242.059
242.057
242.052
242.046
242.045
242.045
242.047
242.05
242.054
242.056
242.055
242.055
242.054
242.051
242.048
242.047
242.047
242.048
242.05
242.053
242.055
242.057
242.057
242.056
242.054
242.053
242.053
242.054
242.054
242.057
242.059
242.06
242.059
242.058
242.055
242.051
242.047
242.045
242.045
242.045
242.046
242.048
242.051
242.053
242.053
242.053
242.053
242.053
242.053
242.053
242.053
242.054
242.054
242.054
242.054
242.055
242.055
242.055
242.054
242.052
242.052
242.051
242.05
242.05
242.05
242.05
242.051
242.052
242.059
242.074
242.073
242.042
241.94
241.756
241.525
241.287
241.099
240.984
240.924
240.896
240.869
240.846
240.827
240.83
240.842
240.86
240.88
240.895
240.906
240.912
240.917
240.918
240.924
240.94
240.975
241.044
241.15
241.258
241.348
241.419
241.478
241.53
241.575
241.616
241.653
241.687
241.72
241.75
241.777
241.8
241.82
241.836
241.85
241.861
241.869
241.876
241.881
241.884
241.888
241.891
241.895
241.897
241.9
241.904
241.908
241.91
241.913
241.917
241.921
241.925
241.928
241.933
241.936
241.939
241.94
241.941
241.943
241.943
241.943
241.944
241.943
241.944
241.943
241.944
241.945
241.948
241.953
241.963
241.98
242.009
242.057
242.135
242.263
242.467
242.786
243.278
244.029
245.153
246.808
249.196
252.581
257.277
263.659
272.149
283.194
297.209
314.471
334.935
357.903
381.582
402.938
418.449
426.109
428.227
428.558
428.581
428.562
428.495
428.352
428.119
427.822
427.519
427.275
427.141
427.097
427.096
427.124
427.188
427.255
427.324
427.396
427.451
427.476
427.472
427.464
427.465
427.464
427.461
427.458
427.454
427.44
427.414
427.388
427.362
427.338
427.321
427.319
427.325
427.341
427.362
427.384
427.4
427.411
427.415
427.41
427.396
427.379
427.368
427.362
427.354
427.347
427.341
427.333
427.325
427.318
427.311
427.302
427.295
427.294
427.296
427.303
427.311
427.318
427.321
427.322
427.32
427.313
427.301
427.289
427.282
427.278
427.277
427.277
427.278
427.279
427.274
427.264
427.247
427.223
427.189
427.145
427.092
427.025
426.948
426.872
426.809
426.77
426.748
426.737
426.736
426.738
426.746
426.765
426.795
426.831
426.868
426.901
426.927
426.944
426.957
426.965
426.972
426.979
426.986
426.995
427.006
427.018
427.032
427.045
427.058
427.069
427.078
427.086
427.093
427.101
427.11
427.121
427.135
427.152
427.171
427.192
427.213
427.234
427.252
427.267
427.279
427.288
427.295
427.301
427.307
427.311
427.315
427.316
427.316
427.316
427.315
427.313
427.31
427.308
427.307
427.307
427.308
427.31
427.313
427.317
427.32
427.324
427.326
427.329
427.33
427.332
427.333
427.334
427.334
427.335
427.337
427.338
427.34
427.341
427.342
427.343
427.344
427.345
427.346
427.348
427.351
427.353
427.355
427.357
427.358
427.358
427.358
427.358
427.358
427.357
427.357
427.356
427.356
427.356
427.356
427.356
427.356
427.356
427.355
427.355
427.355
427.355
427.355
427.355
427.355
427.355
427.355
427.355
427.355
427.354
427.354
427.353
427.352
427.35
427.349
233.19
233.19
233.19
233.19
233.19
233.19
233.19
233.19
233.19
233.19
233.19
233.19
233.19
233.19
233.19
233.19
233.191
233.201
233.462
236.761
241.681
241.84
241.897
241.956
242.018
242.07
242.093
242.093
242.084
242.06
242.027
242.004
242.005
242.015
242.04
242.075
242.101
242.108
242.106
242.095
242.073
242.049
242.038
242.036
242.04
242.053
242.073
242.082
242.082
242.079
242.069
242.053
242.039
242.032
242.033
242.038
242.049
242.062
242.07
242.07
242.068
242.059
242.046
242.032
242.028
242.029
242.034
242.045
242.059
242.071
242.074
242.073
242.067
242.057
242.045
242.039
242.04
242.042
242.05
242.061
242.072
242.074
242.073
242.068
242.059
242.048
242.037
242.035
242.035
242.039
242.045
242.054
242.06
242.06
242.059
242.057
242.052
242.046
242.045
242.045
242.047
242.05
242.054
242.056
242.055
242.055
242.054
242.051
242.048
242.047
242.047
242.048
242.05
242.053
242.055
242.057
242.057
242.056
242.054
242.053
242.053
242.054
242.054
242.057
242.059
242.06
242.059
242.058
242.055
242.051
242.047
242.045
242.045
242.045
242.046
242.048
242.05
242.053
242.053
242.053
242.053
242.053
242.053
242.053
242.053
242.054
242.054
242.054
242.054
242.055
242.055
242.055
242.054
242.052
242.052
242.051
242.05
242.05
242.05
242.05
242.051
242.052
242.059
242.074
242.073
242.042
241.941
241.756
241.524
241.285
241.099
240.986
240.929
240.9
240.87
240.844
240.824
240.827
240.841
240.86
240.88
240.896
240.906
240.913
240.918
240.919
240.924
240.939
240.974
241.045
241.149
241.258
241.348
241.419
241.479
241.53
241.575
241.615
241.652
241.688
241.72
241.75
241.777
241.8
241.82
241.836
241.85
241.861
241.869
241.876
241.881
241.884
241.888
241.891
241.895
241.897
241.9
241.904
241.908
241.91
241.913
241.917
241.921
241.925
241.929
241.933
241.936
241.939
241.94
241.941
241.943
241.943
241.943
241.944
241.943
241.944
241.943
241.943
241.945
241.948
241.953
241.963
241.979
242.009
242.056
242.135
242.263
242.466
242.783
243.274
244.024
245.144
246.795
249.177
252.552
257.235
263.6
272.071
283.095
297.091
314.338
334.793
357.757
381.443
402.821
418.376
426.089
428.228
428.561
428.584
428.564
428.497
428.353
428.119
427.821
427.519
427.275
427.141
427.097
427.097
427.125
427.188
427.254
427.323
427.394
427.45
427.475
427.473
427.465
427.465
427.465
427.462
427.458
427.454
427.44
427.414
427.388
427.362
427.338
427.321
427.319
427.325
427.341
427.362
427.384
427.4
427.411
427.414
427.411
427.396
427.379
427.369
427.362
427.354
427.347
427.341
427.333
427.325
427.318
427.311
427.302
427.295
427.294
427.296
427.303
427.311
427.318
427.321
427.322
427.32
427.313
427.301
427.29
427.283
427.278
427.276
427.276
427.277
427.277
427.273
427.263
427.246
427.221
427.189
427.145
427.09
427.023
426.945
426.868
426.804
426.765
426.743
426.732
426.731
426.733
426.742
426.763
426.795
426.833
426.871
426.904
426.929
426.946
426.957
426.965
426.971
426.978
426.985
426.993
427.005
427.018
427.032
427.046
427.058
427.069
427.078
427.086
427.093
427.101
427.11
427.121
427.135
427.151
427.171
427.192
427.214
427.234
427.253
427.267
427.279
427.287
427.295
427.301
427.307
427.311
427.315
427.316
427.316
427.316
427.315
427.313
427.31
427.307
427.307
427.307
427.308
427.31
427.313
427.317
427.32
427.324
427.327
427.329
427.33
427.332
427.333
427.334
427.334
427.335
427.337
427.338
427.34
427.341
427.342
427.343
427.344
427.345
427.346
427.348
427.351
427.353
427.355
427.357
427.358
427.358
427.358
427.358
427.358
427.357
427.357
427.356
427.356
427.356
427.356
427.356
427.356
427.356
427.355
427.355
427.355
427.355
427.355
427.355
427.355
427.355
427.355
427.355
427.355
427.354
427.354
427.353
427.352
427.35
427.349
233.19
233.19
233.19
233.19
233.19
233.19
233.19
233.19
233.19
233.19
233.19
233.19
233.19
233.19
233.19
233.19
233.191
233.201
233.462
236.761
241.681
241.84
241.897
241.956
242.018
242.07
242.093
242.093
242.084
242.06
242.027
242.004
242.005
242.015
242.04
242.075
242.101
242.108
242.106
242.095
242.073
242.049
242.038
242.036
242.04
242.053
242.073
242.082
242.082
242.079
242.069
242.053
242.039
242.032
242.033
242.038
242.049
242.062
242.07
242.07
242.068
242.059
242.046
242.032
242.028
242.029
242.034
242.045
242.059
242.071
242.074
242.073
242.067
242.057
242.045
242.039
242.04
242.042
242.05
242.061
242.072
242.074
242.073
242.068
242.059
242.048
242.037
242.035
242.035
242.039
242.045
242.054
242.06
242.06
242.059
242.057
242.052
242.046
242.045
242.045
242.047
242.05
242.054
242.056
242.055
242.055
242.054
242.051
242.048
242.047
242.047
242.048
242.05
242.053
242.055
242.057
242.057
242.056
242.054
242.053
242.053
242.054
242.054
242.057
242.059
242.06
242.059
242.058
242.055
242.051
242.047
242.045
242.045
242.045
242.046
242.048
242.051
242.053
242.053
242.053
242.053
242.053
242.053
242.053
242.053
242.054
242.054
242.054
242.054
242.055
242.055
242.055
242.054
242.052
242.052
242.051
242.05
242.05
242.05
242.05
242.051
242.052
242.059
242.074
242.073
242.043
241.941
241.755
241.523
241.283
241.098
240.988
240.933
240.903
240.87
240.842
240.82
240.824
240.84
240.861
240.881
240.897
240.907
240.914
240.919
240.92
240.924
240.939
240.974
241.045
241.149
241.257
241.348
241.42
241.48
241.53
241.574
241.614
241.652
241.688
241.721
241.75
241.776
241.799
241.819
241.836
241.85
241.861
241.869
241.876
241.881
241.884
241.888
241.891
241.895
241.897
241.9
241.904
241.908
241.91
241.913
241.917
241.921
241.925
241.929
241.933
241.936
241.938
241.94
241.941
241.943
241.944
241.943
241.944
241.943
241.943
241.943
241.943
241.945
241.948
241.953
241.962
241.979
242.009
242.057
242.135
242.263
242.465
242.781
243.269
244.016
245.133
246.779
249.153
252.519
257.191
263.544
272.003
283.019
297.014
314.268
334.728
357.687
381.359
402.73
418.305
426.065
428.228
428.564
428.587
428.568
428.499
428.354
428.12
427.822
427.52
427.276
427.141
427.098
427.098
427.125
427.188
427.253
427.322
427.393
427.449
427.475
427.473
427.465
427.466
427.465
427.462
427.458
427.453
427.44
427.414
427.388
427.362
427.338
427.321
427.319
427.325
427.34
427.362
427.384
427.399
427.411
427.414
427.411
427.397
427.379
427.369
427.362
427.354
427.347
427.341
427.333
427.325
427.318
427.311
427.302
427.295
427.294
427.296
427.303
427.311
427.318
427.322
427.322
427.32
427.313
427.301
427.29
427.283
427.278
427.275
427.275
427.275
427.275
427.271
427.261
427.244
427.219
427.188
427.145
427.088
427.02
426.942
426.862
426.797
426.756
426.735
426.724
426.723
426.726
426.737
426.76
426.795
426.836
426.876
426.909
426.933
426.948
426.958
426.965
426.97
426.975
426.982
426.991
427.003
427.017
427.032
427.046
427.059
427.07
427.078
427.086
427.093
427.1
427.109
427.12
427.134
427.151
427.171
427.192
427.214
427.235
427.253
427.267
427.279
427.287
427.294
427.301
427.307
427.311
427.315
427.316
427.316
427.316
427.315
427.313
427.31
427.307
427.307
427.307
427.308
427.31
427.314
427.317
427.321
427.324
427.327
427.329
427.33
427.332
427.333
427.334
427.334
427.335
427.337
427.338
427.34
427.341
427.342
427.343
427.344
427.345
427.346
427.348
427.351
427.353
427.355
427.357
427.358
427.358
427.358
427.358
427.358
427.357
427.357
427.356
427.356
427.356
427.356
427.356
427.356
427.356
427.355
427.355
427.355
427.355
427.355
427.355
427.355
427.355
427.355
427.355
427.355
427.354
427.354
427.353
427.352
427.35
427.349
233.19
233.19
233.19
233.19
233.19
233.19
233.19
233.19
233.19
233.19
233.19
233.19
233.19
233.19
233.19
233.19
233.191
233.201
233.462
236.761
241.681
241.84
241.897
241.956
242.018
242.07
242.093
242.093
242.084
242.06
242.027
242.004
242.005
242.015
242.04
242.075
242.101
242.108
242.106
242.095
242.073
242.049
242.038
242.036
242.04
242.053
242.073
242.082
242.082
242.079
242.069
242.053
242.039
242.032
242.033
242.038
242.049
242.062
242.07
242.07
242.068
242.059
242.046
242.032
242.028
242.029
242.034
242.045
242.059
242.071
242.074
242.073
242.067
242.057
242.045
242.039
242.04
242.042
242.049
242.061
242.072
242.074
242.073
242.068
242.059
242.048
242.037
242.035
242.035
242.039
242.045
242.054
242.06
242.06
242.059
242.057
242.052
242.046
242.045
242.045
242.047
242.05
242.054
242.056
242.055
242.055
242.054
242.051
242.048
242.047
242.047
242.048
242.05
242.053
242.055
242.057
242.057
242.056
242.054
242.053
242.053
242.054
242.054
242.057
242.059
242.06
242.059
242.058
242.055
242.051
242.047
242.045
242.045
242.045
242.046
242.048
242.051
242.053
242.053
242.053
242.053
242.053
242.053
242.053
242.053
242.054
242.054
242.054
242.054
242.055
242.055
242.055
242.054
242.052
242.052
242.051
242.05
242.05
242.05
242.05
242.051
242.052
242.059
242.074
242.074
242.043
241.941
241.755
241.522
241.282
241.097
240.99
240.936
240.905
240.871
240.84
240.817
240.822
240.839
240.861
240.882
240.897
240.907
240.914
240.92
240.921
240.924
240.938
240.974
241.045
241.149
241.256
241.348
241.421
241.48
241.529
241.573
241.614
241.652
241.689
241.721
241.75
241.776
241.799
241.819
241.836
241.85
241.861
241.869
241.876
241.88
241.884
241.888
241.891
241.895
241.897
241.901
241.904
241.908
241.91
241.913
241.917
241.921
241.925
241.929
241.933
241.936
241.938
241.94
241.941
241.943
241.944
241.943
241.943
241.943
241.943
241.942
241.943
241.945
241.948
241.952
241.962
241.979
242.009
242.057
242.136
242.263
242.464
242.779
243.265
244.009
245.122
246.762
249.131
252.489
257.154
263.501
271.958
282.978
296.983
314.252
334.721
357.676
381.332
402.682
418.262
426.051
428.228
428.566
428.59
428.569
428.501
428.355
428.121
427.824
427.522
427.277
427.142
427.098
427.098
427.125
427.187
427.252
427.321
427.391
427.447
427.474
427.472
427.465
427.466
427.466
427.462
427.458
427.453
427.44
427.413
427.388
427.362
427.338
427.322
427.319
427.325
427.34
427.362
427.383
427.399
427.411
427.414
427.411
427.397
427.379
427.369
427.362
427.354
427.347
427.341
427.333
427.325
427.318
427.311
427.302
427.295
427.294
427.296
427.303
427.311
427.318
427.322
427.323
427.321
427.313
427.3
427.291
427.283
427.277
427.274
427.273
427.272
427.273
427.269
427.258
427.241
427.218
427.187
427.145
427.087
427.017
426.937
426.856
426.788
426.746
426.724
426.713
426.713
426.716
426.73
426.757
426.796
426.84
426.882
426.916
426.938
426.952
426.959
426.964
426.968
426.972
426.979
426.988
427.001
427.016
427.032
427.047
427.06
427.071
427.079
427.086
427.092
427.099
427.108
427.119
427.134
427.151
427.171
427.193
427.215
427.236
427.253
427.268
427.278
427.287
427.294
427.3
427.306
427.311
427.315
427.316
427.316
427.316
427.315
427.313
427.31
427.307
427.307
427.307
427.308
427.31
427.314
427.317
427.321
427.324
427.327
427.329
427.33
427.331
427.333
427.333
427.334
427.335
427.337
427.338
427.34
427.341
427.342
427.343
427.344
427.345
427.346
427.348
427.351
427.353
427.355
427.357
427.358
427.358
427.358
427.358
427.358
427.357
427.357
427.356
427.356
427.356
427.356
427.356
427.356
427.356
427.355
427.355
427.355
427.355
427.355
427.355
427.355
427.355
427.355
427.355
427.355
427.354
427.354
427.353
427.352
427.35
427.349
233.19
233.19
233.19
233.19
233.19
233.19
233.19
233.19
233.19
233.19
233.19
233.19
233.19
233.19
233.19
233.19
233.191
233.201
233.462
236.761
241.681
241.84
241.897
241.956
242.018
242.07
242.093
242.093
242.084
242.06
242.027
242.004
242.005
242.015
242.04
242.075
242.101
242.108
242.106
242.095
242.073
242.049
242.038
242.036
242.04
242.053
242.073
242.082
242.082
242.079
242.069
242.053
242.039
242.032
242.033
242.038
242.049
242.062
242.07
242.07
242.068
242.059
242.046
242.032
242.028
242.029
242.034
242.045
242.059
242.071
242.074
242.073
242.067
242.057
242.045
242.039
242.04
242.042
242.049
242.061
242.072
242.074
242.073
242.068
242.059
242.048
242.037
242.035
242.035
242.039
242.045
242.054
242.06
242.06
242.059
242.057
242.052
242.046
242.045
242.045
242.047
242.05
242.054
242.056
242.055
242.055
242.054
242.051
242.048
242.047
242.047
242.048
242.05
242.053
242.055
242.057
242.057
242.056
242.054
242.053
242.053
242.054
242.054
242.057
242.059
242.06
242.059
242.058
242.055
242.051
242.047
242.045
242.045
242.045
242.046
242.048
242.051
242.053
242.053
242.053
242.053
242.053
242.053
242.053
242.053
242.054
242.054
242.054
242.054
242.055
242.055
242.055
242.054
242.052
242.052
242.051
242.05
242.05
242.05
242.05
242.051
242.052
242.059
242.074
242.074
242.043
241.941
241.754
241.521
241.281
241.097
240.991
240.938
240.907
240.872
240.839
240.815
240.821
240.839
240.862
240.882
240.898
240.907
240.914
240.921
240.922
240.925
240.938
240.974
241.046
241.148
241.255
241.347
241.422
241.481
241.529
241.572
241.613
241.652
241.689
241.722
241.75
241.776
241.799
241.819
241.836
241.85
241.861
241.869
241.876
241.88
241.884
241.888
241.891
241.895
241.897
241.901
241.904
241.908
241.91
241.913
241.916
241.921
241.925
241.929
241.933
241.936
241.938
241.94
241.941
241.943
241.944
241.943
241.943
241.943
241.943
241.942
241.943
241.945
241.948
241.952
241.961
241.978
242.009
242.057
242.137
242.264
242.464
242.777
243.261
244.003
245.113
246.749
249.114
252.468
257.13
263.477
271.937
282.963
296.98
314.26
334.736
357.692
381.337
402.668
418.245
426.044
428.226
428.565
428.588
428.568
428.501
428.357
428.123
427.826
427.523
427.278
427.142
427.098
427.098
427.125
427.187
427.251
427.319
427.39
427.446
427.473
427.472
427.466
427.467
427.466
427.462
427.459
427.453
427.44
427.414
427.388
427.363
427.339
427.322
427.319
427.325
427.34
427.361
427.383
427.399
427.41
427.414
427.411
427.397
427.38
427.369
427.362
427.354
427.347
427.341
427.333
427.325
427.318
427.311
427.302
427.295
427.294
427.296
427.303
427.311
427.318
427.322
427.323
427.321
427.313
427.3
427.291
427.283
427.277
427.273
427.272
427.271
427.272
427.267
427.256
427.239
427.216
427.186
427.143
427.086
427.014
426.933
426.849
426.778
426.734
426.712
426.701
426.702
426.707
426.723
426.753
426.797
426.845
426.889
426.922
426.943
426.955
426.96
426.964
426.966
426.969
426.975
426.985
426.999
427.015
427.032
427.048
427.061
427.072
427.08
427.086
427.092
427.098
427.107
427.119
427.133
427.151
427.171
427.193
427.216
427.236
427.254
427.268
427.278
427.286
427.293
427.3
427.306
427.311
427.315
427.316
427.317
427.316
427.315
427.313
427.31
427.307
427.307
427.307
427.308
427.31
427.314
427.317
427.321
427.324
427.327
427.329
427.33
427.331
427.332
427.333
427.334
427.335
427.337
427.339
427.34
427.341
427.342
427.343
427.344
427.345
427.346
427.348
427.351
427.353
427.355
427.357
427.358
427.358
427.358
427.358
427.358
427.357
427.357
427.356
427.356
427.356
427.356
427.356
427.356
427.356
427.355
427.355
427.355
427.355
427.355
427.355
427.355
427.355
427.355
427.355
427.355
427.354
427.354
427.353
427.352
427.35
427.349
233.19
233.19
233.19
233.19
233.19
233.19
233.19
233.19
233.19
233.19
233.19
233.19
233.19
233.19
233.19
233.19
233.191
233.201
233.462
236.761
241.681
241.84
241.897
241.956
242.018
242.07
242.093
242.093
242.084
242.06
242.027
242.004
242.005
242.015
242.04
242.075
242.101
242.108
242.106
242.095
242.073
242.049
242.038
242.036
242.04
242.053
242.073
242.082
242.082
242.079
242.069
242.053
242.039
242.032
242.033
242.038
242.049
242.062
242.07
242.07
242.068
242.059
242.046
242.032
242.028
242.029
242.034
242.045
242.059
242.071
242.074
242.073
242.067
242.057
242.045
242.039
242.04
242.042
242.049
242.061
242.072
242.074
242.073
242.068
242.059
242.048
242.037
242.035
242.035
242.039
242.045
242.054
242.06
242.06
242.059
242.057
242.052
242.046
242.045
242.045
242.047
242.05
242.054
242.056
242.055
242.055
242.054
242.051
242.048
242.047
242.047
242.048
242.05
242.053
242.055
242.057
242.057
242.056
242.054
242.053
242.053
242.054
242.054
242.057
242.059
242.06
242.059
242.058
242.055
242.051
242.047
242.045
242.045
242.045
242.046
242.048
242.051
242.053
242.053
242.053
242.053
242.053
242.053
242.053
242.053
242.054
242.054
242.054
242.054
242.055
242.055
242.055
242.054
242.052
242.052
242.051
242.05
242.05
242.05
242.05
242.051
242.052
242.059
242.075
242.074
242.043
241.941
241.754
241.521
241.28
241.096
240.992
240.94
240.908
240.872
240.838
240.813
240.82
240.839
240.862
240.883
240.898
240.908
240.915
240.921
240.922
240.925
240.937
240.973
241.046
241.148
241.254
241.347
241.422
241.481
241.529
241.572
241.613
241.652
241.689
241.722
241.75
241.776
241.799
241.819
241.836
241.85
241.861
241.869
241.875
241.88
241.884
241.888
241.891
241.895
241.897
241.901
241.904
241.908
241.91
241.913
241.916
241.921
241.925
241.929
241.934
241.936
241.938
241.939
241.941
241.943
241.944
241.943
241.943
241.943
241.943
241.942
241.943
241.944
241.948
241.951
241.96
241.978
242.009
242.058
242.137
242.264
242.464
242.776
243.259
243.999
245.106
246.741
249.105
252.457
257.118
263.466
271.928
282.96
296.984
314.278
334.767
357.721
381.35
402.669
418.24
426.043
428.225
428.566
428.589
428.569
428.501
428.358
428.125
427.828
427.525
427.278
427.142
427.098
427.098
427.125
427.187
427.25
427.318
427.389
427.445
427.473
427.472
427.466
427.467
427.466
427.463
427.459
427.453
427.44
427.414
427.388
427.363
427.339
427.322
427.319
427.325
427.34
427.361
427.383
427.399
427.41
427.414
427.411
427.397
427.38
427.369
427.362
427.355
427.347
427.341
427.333
427.325
427.318
427.31
427.302
427.295
427.294
427.296
427.303
427.311
427.318
427.322
427.323
427.321
427.313
427.301
427.291
427.283
427.277
427.273
427.27
427.269
427.27
427.265
427.255
427.238
427.217
427.186
427.145
427.09
427.017
426.932
426.845
426.771
426.724
426.702
426.691
426.692
426.698
426.717
426.751
426.797
426.848
426.894
426.927
426.948
426.957
426.961
426.963
426.964
426.967
426.972
426.982
426.997
427.014
427.032
427.048
427.062
427.073
427.08
427.086
427.091
427.098
427.106
427.118
427.133
427.151
427.171
427.194
427.216
427.237
427.254
427.268
427.278
427.286
427.293
427.299
427.306
427.311
427.315
427.316
427.317
427.317
427.315
427.313
427.31
427.307
427.306
427.307
427.308
427.31
427.314
427.318
427.321
427.324
427.327
427.329
427.33
427.331
427.332
427.333
427.334
427.335
427.337
427.339
427.34
427.342
427.342
427.343
427.344
427.345
427.346
427.348
427.351
427.353
427.355
427.357
427.358
427.358
427.358
427.358
427.358
427.357
427.357
427.356
427.356
427.356
427.356
427.356
427.356
427.356
427.355
427.355
427.355
427.355
427.355
427.355
427.355