/*--------------------------------*- C++ -*----------------------------------*\
| =========                 |                                                 |
| \\      /  F ield         | OpenFOAM: The Open Source CFD Toolbox           |
|  \\    /   O peration     | Version:  2406                                  |
|   \\  /    A nd           | Website:  www.openfoam.com                      |
|    \\/     M anipulation  |                                                 |
\*---------------------------------------------------------------------------*/
FoamFile
{
    version     2.0;
    format      ascii;
    arch        "LSB;label=32;scalar=64";
    class       volScalarField;
    location    "0.004";
    object      Ma;
}
// * * * * * * * * * * * * * * * * * * * * * * * * * * * * * * * * * * * * * //

dimensions      [0 0 0 0 0 0 0];

internalField   nonuniform List<scalar> 
81000
(
0.000310861
0.000318594
0.000318723
0.000318723
0.000318727
0.000318735
0.000318748
0.000318771
0.000318808
0.000318864
0.000318944
0.000319051
0.000319186
0.000319348
0.000319532
0.000319733
0.000319942
0.00032015
0.000320349
0.000320533
0.000320695
0.000320832
0.000320943
0.000321026
0.000321083
0.000321116
0.000321132
0.000321136
0.000321136
0.00032113
0.000321119
0.000321104
0.000321085
0.000321065
0.000321044
0.000321024
0.000321006
0.00032099
0.000320977
0.000320967
0.000320961
0.000320956
0.000320954
0.000320953
0.000320953
0.000320954
0.000320954
0.000320954
0.000320953
0.000320951
0.000320947
0.000320941
0.000320934
0.000320924
0.000320912
0.000320899
0.000320884
0.000320868
0.000320852
0.000320837
0.000320822
0.000320807
0.000320795
0.000320783
0.000320773
0.000320765
0.000320756
0.000320749
0.000320742
0.000320731
0.000320714
0.000320692
0.000320662
0.000320621
0.000320566
0.000320492
0.000320395
0.000320273
0.000320123
0.000319943
0.000319736
0.000319503
0.000319251
0.000318985
0.000318713
0.000318446
0.000318193
0.000317961
0.000317758
0.000317587
0.000317449
0.000317344
0.000317265
0.00031721
0.000317171
0.000317141
0.000317119
0.000317106
0.000316797
0.000304987
0.00345705
0.00345668
0.00345595
0.00345488
0.00345361
0.00345233
0.00345115
0.00345019
0.00344947
0.003449
0.00344873
0.00344861
0.00344856
0.00344856
0.00344859
0.00344868
0.00344888
0.00344919
0.00344959
0.00345005
0.00345054
0.00345102
0.00345148
0.0034519
0.00345227
0.00345258
0.00345282
0.003453
0.00345313
0.0034532
0.00345325
0.00345326
0.00345327
0.00345326
0.00345326
0.00345326
0.00345325
0.00345324
0.00345322
0.00345321
0.0034532
0.00345318
0.00345317
0.00345317
0.00345316
0.00345316
0.00345315
0.00345315
0.00345315
0.00345315
0.00345314
0.00345314
0.00345313
0.00345312
0.00345311
0.0034531
0.00345308
0.00345307
0.00345304
0.00345302
0.003453
0.00345297
0.00345294
0.00345291
0.00345288
0.00345284
0.00345279
0.00345272
0.00345264
0.00345252
0.00345236
0.00345215
0.00345189
0.00345158
0.00345121
0.0034508
0.00345035
0.00344989
0.00344943
0.00344898
0.00344857
0.00344821
0.00344791
0.00344769
0.00344754
0.00344746
0.00344743
0.00344743
0.00344745
0.00344753
0.00344768
0.00344793
0.00344829
0.0034487
0.00344912
0.00344949
0.00344974
0.00344987
0.00344991
0.00345003
0.00929712
0.00930238
0.00930238
0.00930236
0.00930231
0.0093022
0.00930205
0.00930184
0.00930166
0.00930147
0.00930135
0.00930128
0.00930125
0.00930125
0.00930126
0.00930132
0.00930144
0.00930162
0.00930185
0.00930211
0.00930237
0.00930263
0.00930288
0.00930312
0.00930334
0.00930354
0.00930372
0.00930387
0.00930399
0.0093041
0.00930419
0.00930426
0.00930432
0.00930437
0.00930441
0.00930445
0.00930448
0.0093045
0.00930452
0.00930454
0.00930455
0.00930457
0.00930458
0.00930459
0.00930459
0.0093046
0.00930461
0.00930461
0.00930462
0.00930462
0.00930462
0.00930462
0.00930461
0.00930461
0.00930459
0.00930457
0.00930455
0.00930452
0.00930448
0.00930443
0.00930437
0.00930431
0.00930423
0.00930414
0.00930404
0.00930392
0.0093038
0.00930366
0.00930351
0.00930334
0.00930317
0.00930297
0.00930276
0.00930253
0.00930229
0.00930202
0.00930174
0.00930145
0.00930114
0.00930082
0.00930051
0.00930019
0.0092999
0.00929963
0.0092994
0.00929922
0.0092991
0.00929904
0.00929903
0.00929903
0.00929904
0.00929908
0.00929916
0.0092993
0.00929947
0.00929965
0.00929981
0.00929992
0.00929998
0.00930009
0.0142363
0.0142504
0.0142504
0.0142504
0.0142504
0.0142504
0.0142504
0.0142504
0.0142505
0.0142505
0.0142505
0.0142505
0.0142505
0.0142505
0.0142505
0.0142505
0.0142505
0.0142504
0.0142504
0.0142504
0.0142504
0.0142504
0.0142504
0.0142504
0.0142504
0.0142504
0.0142505
0.0142505
0.0142505
0.0142505
0.0142505
0.0142505
0.0142505
0.0142506
0.0142506
0.0142506
0.0142506
0.0142506
0.0142507
0.0142507
0.0142507
0.0142507
0.0142507
0.0142507
0.0142507
0.0142507
0.0142507
0.0142507
0.0142507
0.0142507
0.0142507
0.0142507
0.0142507
0.0142507
0.0142507
0.0142507
0.0142507
0.0142507
0.0142507
0.0142507
0.0142507
0.0142507
0.0142507
0.0142507
0.0142506
0.0142506
0.0142506
0.0142505
0.0142505
0.0142505
0.0142504
0.0142504
0.0142504
0.0142504
0.0142504
0.0142505
0.0142505
0.0142505
0.0142506
0.0142506
0.0142507
0.0142508
0.0142509
0.0142509
0.014251
0.0142511
0.0142511
0.0142512
0.0142512
0.0142512
0.0142512
0.0142512
0.0142512
0.0142511
0.0142511
0.014251
0.0142509
0.0142506
0.0142503
0.0142371
0.0028709
0.00287105
0.00287096
0.00287066
0.00287006
0.00286918
0.00286812
0.00286704
0.00286608
0.00286533
0.0028648
0.00286449
0.00286433
0.00286426
0.00286425
0.00286426
0.00286431
0.00286439
0.00286451
0.00286467
0.00286485
0.00286505
0.00286526
0.00286546
0.00286564
0.0028658
0.00286593
0.00286602
0.0028661
0.00286615
0.00286617
0.00286618
0.00286618
0.00286618
0.00286618
0.00286618
0.00286618
0.00286618
0.00286618
0.00286619
0.0028662
0.0028662
0.00286621
0.00286621
0.00286622
0.00286622
0.00286622
0.00286623
0.00286623
0.00286623
0.00286623
0.00286623
0.00286623
0.00286624
0.00286624
0.00286624
0.00286624
0.00286625
0.00286625
0.00286626
0.00286627
0.00286628
0.00286631
0.00286633
0.00286636
0.00286639
0.00286642
0.00286645
0.00286647
0.00286648
0.00286648
0.00286645
0.0028664
0.00286633
0.00286621
0.00286606
0.00286586
0.00286564
0.00286539
0.00286514
0.00286491
0.00286472
0.00286458
0.00286449
0.00286445
0.00286444
0.00286444
0.00286449
0.00286463
0.00286495
0.00286552
0.00286638
0.00286752
0.00286883
0.00287014
0.00287126
0.00287206
0.00287248
0.00287262
0.00287292
0.0382833
0.0382845
0.0382839
0.0382833
0.0382828
0.0382823
0.0382819
0.0382815
0.0382812
0.038281
0.0382808
0.0382807
0.0382807
0.0382807
0.0382807
0.0382807
0.0382808
0.0382808
0.0382809
0.038281
0.0382812
0.0382813
0.0382813
0.0382814
0.0382815
0.0382815
0.0382815
0.0382815
0.0382816
0.0382816
0.0382816
0.0382816
0.0382816
0.0382816
0.0382816
0.0382816
0.0382816
0.0382816
0.0382816
0.0382816
0.0382816
0.0382817
0.0382817
0.0382817
0.0382817
0.0382817
0.0382817
0.0382817
0.0382817
0.0382817
0.0382817
0.0382817
0.0382817
0.0382817
0.0382817
0.0382817
0.0382817
0.0382817
0.0382818
0.0382818
0.0382818
0.0382818
0.0382818
0.0382819
0.0382819
0.0382819
0.038282
0.038282
0.0382821
0.0382822
0.0382822
0.0382823
0.0382823
0.0382824
0.0382824
0.0382824
0.0382824
0.0382824
0.0382824
0.0382824
0.0382823
0.0382823
0.0382822
0.0382822
0.0382822
0.0382821
0.0382821
0.0382822
0.0382822
0.0382823
0.0382824
0.0382825
0.0382827
0.038283
0.0382834
0.0382838
0.0382843
0.0382849
0.0382856
0.0382871
0.0333825
0.0334227
0.0334227
0.0334227
0.0334227
0.0334227
0.0334227
0.0334227
0.0334227
0.0334227
0.0334227
0.0334227
0.0334227
0.0334227
0.0334228
0.0334228
0.0334228
0.0334228
0.0334228
0.0334228
0.0334228
0.0334228
0.0334228
0.0334227
0.0334227
0.0334226
0.0334226
0.0334225
0.0334225
0.0334224
0.0334224
0.0334223
0.0334223
0.0334222
0.0334222
0.0334221
0.0334221
0.0334221
0.033422
0.033422
0.033422
0.033422
0.0334219
0.0334219
0.0334219
0.0334219
0.0334219
0.0334219
0.0334219
0.0334219
0.0334219
0.0334219
0.0334219
0.0334219
0.0334219
0.0334219
0.0334219
0.0334219
0.0334219
0.033422
0.033422
0.033422
0.033422
0.0334221
0.0334221
0.0334221
0.0334222
0.0334222
0.0334223
0.0334223
0.0334224
0.0334225
0.0334225
0.0334226
0.0334226
0.0334227
0.0334227
0.0334228
0.0334228
0.0334228
0.0334228
0.0334228
0.0334228
0.0334228
0.0334228
0.0334228
0.0334228
0.0334228
0.0334228
0.0334228
0.0334228
0.0334228
0.0334228
0.0334228
0.0334228
0.0334228
0.0334229
0.0334229
0.0334228
0.0333643
0.0072705
0.00728396
0.00728402
0.00728404
0.00728405
0.00728406
0.00728406
0.00728406
0.00728406
0.00728406
0.00728406
0.00728405
0.00728405
0.00728403
0.00728402
0.007284
0.00728398
0.00728395
0.00728393
0.0072839
0.00728387
0.00728384
0.00728381
0.00728378
0.00728375
0.00728373
0.0072837
0.00728367
0.00728365
0.00728362
0.0072836
0.00728358
0.00728356
0.00728354
0.00728352
0.0072835
0.00728349
0.00728347
0.00728346
0.00728345
0.00728344
0.00728343
0.00728342
0.00728342
0.00728341
0.00728341
0.0072834
0.0072834
0.0072834
0.0072834
0.0072834
0.0072834
0.0072834
0.0072834
0.0072834
0.0072834
0.0072834
0.0072834
0.0072834
0.0072834
0.0072834
0.0072834
0.0072834
0.00728341
0.00728341
0.00728342
0.00728342
0.00728343
0.00728343
0.00728344
0.00728345
0.00728346
0.00728347
0.00728348
0.00728349
0.0072835
0.00728352
0.00728353
0.00728354
0.00728356
0.00728357
0.00728359
0.0072836
0.00728362
0.00728363
0.00728364
0.00728365
0.00728366
0.00728366
0.00728366
0.00728366
0.00728366
0.00728366
0.00728366
0.00728366
0.00728366
0.00728365
0.00728364
0.00728358
0.00726554
0.000280657
0.000281774
0.000281778
0.000281779
0.000281779
0.00028178
0.00028178
0.00028178
0.00028178
0.000281779
0.000281778
0.000281776
0.000281774
0.000281772
0.00028177
0.000281768
0.000281766
0.000281763
0.000281761
0.000281759
0.000281757
0.000281755
0.000281753
0.000281751
0.00028175
0.000281749
0.000281747
0.000281746
0.000281745
0.000281745
0.000281744
0.000281744
0.000281743
0.000281743
0.000281742
0.000281742
0.000281741
0.000281741
0.00028174
0.00028174
0.000281739
0.000281739
0.000281738
0.000281738
0.000281738
0.000281737
0.000281737
0.000281737
0.000281737
0.000281737
0.000281737
0.000281737
0.000281737
0.000281737
0.000281737
0.000281737
0.000281737
0.000281737
0.000281737
0.000281737
0.000281737
0.000281737
0.000281737
0.000281737
0.000281737
0.000281737
0.000281737
0.000281737
0.000281737
0.000281737
0.000281737
0.000281737
0.000281737
0.000281738
0.000281738
0.000281739
0.00028174
0.000281741
0.000281743
0.000281744
0.000281746
0.000281747
0.000281748
0.000281749
0.00028175
0.00028175
0.000281751
0.000281751
0.000281751
0.000281751
0.00028175
0.00028175
0.000281749
0.000281748
0.000281747
0.000281745
0.000281744
0.000281742
0.000281739
0.000280481
7.08677e-07
7.08366e-07
7.07625e-07
7.06517e-07
7.05203e-07
7.03873e-07
7.02679e-07
7.01722e-07
7.01031e-07
7.00591e-07
7.00349e-07
7.0024e-07
7.00203e-07
7.00215e-07
7.00283e-07
7.00428e-07
7.00641e-07
7.00888e-07
7.01119e-07
7.01292e-07
7.01384e-07
7.01389e-07
7.01301e-07
7.01138e-07
7.00907e-07
7.00616e-07
7.00282e-07
6.99932e-07
6.9959e-07
6.99279e-07
6.99015e-07
6.98802e-07
6.9864e-07
6.98524e-07
6.98445e-07
6.98395e-07
6.98368e-07
6.98358e-07
6.9836e-07
6.98368e-07
6.98379e-07
6.98391e-07
6.98403e-07
6.98414e-07
6.98424e-07
6.98432e-07
6.98438e-07
6.98444e-07
6.98448e-07
6.98451e-07
6.98453e-07
6.98455e-07
6.98457e-07
6.98459e-07
6.98461e-07
6.98464e-07
6.98467e-07
6.98472e-07
6.98479e-07
6.9849e-07
6.98506e-07
6.98531e-07
6.98567e-07
6.98621e-07
6.98697e-07
6.98803e-07
6.98946e-07
6.99134e-07
6.99371e-07
6.99662e-07
6.99998e-07
7.00376e-07
7.00769e-07
7.0116e-07
7.01514e-07
7.01814e-07
7.02039e-07
7.02192e-07
7.02267e-07
7.02249e-07
7.0214e-07
7.01923e-07
7.01637e-07
7.01296e-07
7.00998e-07
7.0076e-07
7.00633e-07
7.00582e-07
7.00588e-07
7.00631e-07
7.00775e-07
7.01081e-07
7.01633e-07
7.02438e-07
7.03507e-07
7.04716e-07
7.05946e-07
7.0698e-07
7.0768e-07
7.0797e-07
0.000298227
0.000304468
0.000304557
0.000304557
0.000304559
0.000304565
0.000304576
0.000304596
0.000304629
0.000304681
0.000304756
0.000304859
0.000304989
0.000305149
0.000305333
0.000305536
0.00030575
0.000305968
0.000306179
0.000306376
0.000306554
0.000306709
0.000306839
0.000306944
0.000307026
0.000307086
0.000307128
0.000307157
0.000307174
0.000307183
0.000307188
0.000307187
0.000307184
0.000307177
0.000307169
0.000307161
0.000307153
0.000307146
0.000307141
0.000307138
0.000307137
0.000307137
0.000307139
0.000307141
0.000307143
0.000307146
0.000307148
0.000307149
0.000307149
0.000307148
0.000307145
0.00030714
0.000307134
0.000307126
0.000307116
0.000307105
0.000307092
0.000307079
0.000307066
0.000307053
0.00030704
0.000307028
0.000307017
0.000307006
0.000306997
0.000306988
0.000306978
0.00030697
0.000306959
0.000306945
0.000306923
0.000306896
0.000306859
0.000306811
0.000306747
0.000306665
0.00030656
0.00030643
0.000306274
0.000306089
0.000305879
0.000305645
0.000305393
0.00030513
0.000304865
0.000304605
0.00030436
0.000304138
0.000303944
0.000303782
0.000303652
0.000303552
0.000303479
0.000303427
0.000303392
0.000303367
0.00030335
0.000303346
0.000303103
0.000292732
0.00343449
0.00343405
0.00343334
0.00343225
0.00343091
0.00342951
0.00342818
0.00342705
0.00342616
0.00342553
0.00342511
0.00342489
0.00342478
0.00342475
0.00342475
0.00342479
0.00342489
0.0034251
0.00342541
0.0034258
0.00342625
0.00342673
0.00342719
0.00342762
0.003428
0.00342832
0.00342857
0.00342875
0.00342889
0.00342897
0.00342901
0.00342903
0.00342904
0.00342904
0.00342904
0.00342903
0.00342902
0.00342901
0.00342899
0.00342897
0.00342895
0.00342894
0.00342892
0.00342891
0.0034289
0.0034289
0.00342889
0.00342889
0.00342888
0.00342888
0.00342888
0.00342887
0.00342887
0.00342886
0.00342885
0.00342884
0.00342882
0.00342881
0.00342879
0.00342877
0.00342875
0.00342872
0.0034287
0.00342868
0.00342865
0.00342861
0.00342856
0.0034285
0.00342841
0.00342828
0.00342811
0.0034279
0.00342762
0.00342729
0.00342691
0.00342647
0.003426
0.00342552
0.00342504
0.0034246
0.00342422
0.00342391
0.00342368
0.00342355
0.00342348
0.00342347
0.00342348
0.00342352
0.00342364
0.00342384
0.00342416
0.00342458
0.00342511
0.00342572
0.00342638
0.00342705
0.00342767
0.00342821
0.00342859
0.00342893
0.0092384
0.00923993
0.00923991
0.00923984
0.00923967
0.00923944
0.00923906
0.00923869
0.00923824
0.0092379
0.00923759
0.0092374
0.00923727
0.00923722
0.0092372
0.0092372
0.00923722
0.00923728
0.0092374
0.00923756
0.00923774
0.00923793
0.00923812
0.00923831
0.00923847
0.00923862
0.00923875
0.00923885
0.00923895
0.00923902
0.00923908
0.00923913
0.00923916
0.0092392
0.00923922
0.00923924
0.00923926
0.00923927
0.00923928
0.00923929
0.0092393
0.00923932
0.00923933
0.00923934
0.00923935
0.00923936
0.00923937
0.00923938
0.00923939
0.0092394
0.0092394
0.00923941
0.00923942
0.00923942
0.00923943
0.00923943
0.00923943
0.00923944
0.00923944
0.00923944
0.00923944
0.00923943
0.00923943
0.00923943
0.00923943
0.00923943
0.00923942
0.00923942
0.00923941
0.00923939
0.00923937
0.00923934
0.00923929
0.00923923
0.00923916
0.00923906
0.00923895
0.00923881
0.00923866
0.00923849
0.00923832
0.00923815
0.00923802
0.00923792
0.00923787
0.00923785
0.00923786
0.00923787
0.00923793
0.00923802
0.0092382
0.00923842
0.00923873
0.00923904
0.00923939
0.00923969
0.00923998
0.0092402
0.0092404
0.00924085
0.0142203
0.0142316
0.0142316
0.0142316
0.0142316
0.0142317
0.0142317
0.0142317
0.0142317
0.0142317
0.0142317
0.0142317
0.0142317
0.0142317
0.0142316
0.0142316
0.0142316
0.0142316
0.0142316
0.0142316
0.0142316
0.0142315
0.0142315
0.0142315
0.0142315
0.0142315
0.0142315
0.0142315
0.0142315
0.0142315
0.0142315
0.0142315
0.0142315
0.0142315
0.0142315
0.0142316
0.0142316
0.0142316
0.0142316
0.0142316
0.0142316
0.0142316
0.0142316
0.0142316
0.0142316
0.0142316
0.0142317
0.0142317
0.0142317
0.0142317
0.0142317
0.0142317
0.0142317
0.0142317
0.0142317
0.0142317
0.0142317
0.0142317
0.0142317
0.0142317
0.0142317
0.0142317
0.0142317
0.0142317
0.0142317
0.0142317
0.0142317
0.0142317
0.0142317
0.0142317
0.0142317
0.0142317
0.0142318
0.0142318
0.0142319
0.0142319
0.014232
0.0142321
0.0142322
0.0142323
0.0142324
0.0142325
0.0142326
0.0142327
0.0142328
0.0142329
0.014233
0.014233
0.014233
0.0142331
0.0142331
0.0142331
0.0142331
0.0142331
0.014233
0.0142329
0.0142328
0.0142326
0.0142323
0.0142189
0.00291024
0.00290941
0.00290866
0.00290762
0.00290645
0.00290526
0.00290415
0.00290318
0.00290238
0.00290176
0.00290132
0.00290102
0.00290086
0.00290078
0.00290075
0.00290076
0.00290078
0.00290084
0.00290095
0.0029011
0.00290128
0.00290149
0.0029017
0.0029019
0.00290209
0.00290225
0.00290237
0.00290247
0.00290255
0.00290259
0.00290262
0.00290263
0.00290263
0.00290263
0.00290263
0.00290263
0.00290263
0.00290264
0.00290264
0.00290265
0.00290266
0.00290266
0.00290267
0.00290268
0.00290268
0.00290269
0.00290269
0.00290269
0.00290269
0.0029027
0.0029027
0.0029027
0.0029027
0.0029027
0.00290271
0.00290271
0.00290271
0.00290272
0.00290273
0.00290274
0.00290275
0.00290277
0.0029028
0.00290283
0.00290286
0.0029029
0.00290293
0.00290296
0.00290299
0.00290301
0.00290301
0.002903
0.00290296
0.00290289
0.00290278
0.00290263
0.00290245
0.00290222
0.00290197
0.00290173
0.0029015
0.00290133
0.00290121
0.00290114
0.00290112
0.00290112
0.00290113
0.00290119
0.00290133
0.00290162
0.0029021
0.0029028
0.00290374
0.00290492
0.00290629
0.00290779
0.00290928
0.0029106
0.00291155
0.00291251
0.0383004
0.0382995
0.0382989
0.0382983
0.0382977
0.0382972
0.0382967
0.0382963
0.038296
0.0382958
0.0382957
0.0382956
0.0382956
0.0382956
0.0382957
0.0382957
0.0382958
0.0382958
0.0382959
0.038296
0.0382961
0.0382962
0.0382963
0.0382963
0.0382964
0.0382964
0.0382965
0.0382965
0.0382965
0.0382965
0.0382965
0.0382965
0.0382965
0.0382965
0.0382966
0.0382966
0.0382966
0.0382966
0.0382966
0.0382966
0.0382966
0.0382966
0.0382966
0.0382966
0.0382966
0.0382966
0.0382966
0.0382967
0.0382967
0.0382967
0.0382967
0.0382967
0.0382967
0.0382967
0.0382967
0.0382967
0.0382967
0.0382967
0.0382967
0.0382968
0.0382968
0.0382968
0.0382968
0.0382969
0.0382969
0.038297
0.038297
0.0382971
0.0382971
0.0382972
0.0382973
0.0382973
0.0382974
0.0382974
0.0382975
0.0382975
0.0382975
0.0382975
0.0382975
0.0382975
0.0382974
0.0382974
0.0382974
0.0382973
0.0382973
0.0382973
0.0382973
0.0382973
0.0382973
0.0382973
0.0382974
0.0382976
0.0382978
0.038298
0.0382984
0.0382988
0.0382993
0.0383
0.038301
0.0383038
0.033311
0.0333511
0.0333511
0.0333511
0.0333511
0.0333511
0.0333511
0.0333511
0.0333511
0.0333511
0.0333511
0.0333511
0.0333511
0.0333511
0.0333512
0.0333512
0.0333512
0.0333512
0.0333512
0.0333512
0.0333512
0.0333512
0.0333512
0.0333511
0.0333511
0.033351
0.033351
0.0333509
0.0333509
0.0333508
0.0333508
0.0333507
0.0333506
0.0333506
0.0333506
0.0333505
0.0333505
0.0333504
0.0333504
0.0333504
0.0333504
0.0333504
0.0333503
0.0333503
0.0333503
0.0333503
0.0333503
0.0333503
0.0333503
0.0333503
0.0333503
0.0333503
0.0333503
0.0333503
0.0333503
0.0333503
0.0333503
0.0333503
0.0333503
0.0333504
0.0333504
0.0333504
0.0333504
0.0333505
0.0333505
0.0333505
0.0333506
0.0333506
0.0333507
0.0333507
0.0333508
0.0333509
0.0333509
0.033351
0.033351
0.0333511
0.0333511
0.0333512
0.0333512
0.0333512
0.0333512
0.0333512
0.0333512
0.0333512
0.0333512
0.0333512
0.0333512
0.0333512
0.0333512
0.0333512
0.0333512
0.0333512
0.0333512
0.0333512
0.0333512
0.0333512
0.0333512
0.0333512
0.0333512
0.0332929
0.00724271
0.00725629
0.00725636
0.00725638
0.00725639
0.00725639
0.00725639
0.00725639
0.00725639
0.00725639
0.00725639
0.00725639
0.00725638
0.00725637
0.00725636
0.00725634
0.00725632
0.00725629
0.00725626
0.00725624
0.00725621
0.00725618
0.00725615
0.00725612
0.00725609
0.00725606
0.00725603
0.00725601
0.00725598
0.00725596
0.00725593
0.00725591
0.00725589
0.00725587
0.00725585
0.00725583
0.00725582
0.0072558
0.00725579
0.00725578
0.00725577
0.00725576
0.00725576
0.00725575
0.00725575
0.00725574
0.00725574
0.00725574
0.00725573
0.00725573
0.00725573
0.00725573
0.00725573
0.00725573
0.00725573
0.00725573
0.00725573
0.00725573
0.00725573
0.00725573
0.00725573
0.00725573
0.00725574
0.00725574
0.00725574
0.00725575
0.00725575
0.00725576
0.00725577
0.00725578
0.00725579
0.0072558
0.00725581
0.00725582
0.00725583
0.00725584
0.00725585
0.00725587
0.00725588
0.0072559
0.00725591
0.00725593
0.00725594
0.00725596
0.00725597
0.00725598
0.00725599
0.007256
0.007256
0.007256
0.00725601
0.00725601
0.00725601
0.007256
0.007256
0.007256
0.00725599
0.00725598
0.00725592
0.00723769
0.000278709
0.000280006
0.000280009
0.000280009
0.000280009
0.000280007
0.000280005
0.000280003
0.000280001
0.00028
0.000279998
0.000279996
0.000279994
0.000279992
0.00027999
0.000279988
0.000279986
0.000279984
0.000279982
0.00027998
0.000279978
0.000279976
0.000279974
0.000279972
0.00027997
0.000279969
0.000279968
0.000279966
0.000279966
0.000279965
0.000279964
0.000279964
0.000279963
0.000279963
0.000279962
0.000279962
0.000279961
0.000279961
0.00027996
0.00027996
0.000279959
0.000279959
0.000279958
0.000279958
0.000279958
0.000279957
0.000279957
0.000279957
0.000279957
0.000279957
0.000279957
0.000279957
0.000279957
0.000279957
0.000279957
0.000279957
0.000279957
0.000279957
0.000279957
0.000279957
0.000279957
0.000279957
0.000279957
0.000279957
0.000279957
0.000279957
0.000279957
0.000279957
0.000279957
0.000279957
0.000279957
0.000279957
0.000279958
0.000279958
0.000279959
0.00027996
0.000279961
0.000279962
0.000279964
0.000279966
0.000279967
0.000279968
0.00027997
0.000279971
0.000279971
0.000279972
0.000279972
0.000279972
0.000279972
0.000279972
0.000279972
0.000279973
0.000279973
0.000279974
0.000279976
0.000279976
0.000279977
0.000279977
0.000279973
0.000278521
7.35963e-07
7.35679e-07
7.34997e-07
7.33966e-07
7.32734e-07
7.31476e-07
7.30343e-07
7.29432e-07
7.2878e-07
7.28371e-07
7.28152e-07
7.28057e-07
7.28025e-07
7.28056e-07
7.28155e-07
7.28332e-07
7.28569e-07
7.28828e-07
7.2906e-07
7.29228e-07
7.29311e-07
7.29302e-07
7.29197e-07
7.29018e-07
7.28775e-07
7.28478e-07
7.28146e-07
7.27803e-07
7.27471e-07
7.27169e-07
7.26911e-07
7.26701e-07
7.2654e-07
7.26422e-07
7.26341e-07
7.26288e-07
7.26258e-07
7.26244e-07
7.26242e-07
7.26246e-07
7.26253e-07
7.26262e-07
7.26271e-07
7.2628e-07
7.26287e-07
7.26294e-07
7.263e-07
7.26305e-07
7.26309e-07
7.26312e-07
7.26314e-07
7.26316e-07
7.26318e-07
7.26321e-07
7.26323e-07
7.26327e-07
7.26332e-07
7.26338e-07
7.26347e-07
7.26361e-07
7.2638e-07
7.26408e-07
7.26448e-07
7.26504e-07
7.26583e-07
7.26692e-07
7.26836e-07
7.27024e-07
7.2726e-07
7.27546e-07
7.27877e-07
7.28245e-07
7.28632e-07
7.29016e-07
7.29372e-07
7.29678e-07
7.29919e-07
7.30088e-07
7.30181e-07
7.30178e-07
7.30075e-07
7.2987e-07
7.29576e-07
7.29235e-07
7.28905e-07
7.28644e-07
7.28484e-07
7.28418e-07
7.28414e-07
7.28455e-07
7.28587e-07
7.28881e-07
7.29403e-07
7.30184e-07
7.31201e-07
7.32368e-07
7.33537e-07
7.34531e-07
7.35197e-07
7.35477e-07
0.000288942
0.000295363
0.00029544
0.00029544
0.000295441
0.000295444
0.00029545
0.000295464
0.00029549
0.000295534
0.000295601
0.000295694
0.000295818
0.000295971
0.000296152
0.000296355
0.000296573
0.000296798
0.000297021
0.000297234
0.000297432
0.00029761
0.000297765
0.000297896
0.000298006
0.000298095
0.000298165
0.00029822
0.000298263
0.000298296
0.000298321
0.000298341
0.000298356
0.000298367
0.000298376
0.000298382
0.000298388
0.000298394
0.0002984
0.000298406
0.000298412
0.000298418
0.000298424
0.000298429
0.000298434
0.000298438
0.000298442
0.000298444
0.000298446
0.000298446
0.000298444
0.000298441
0.000298436
0.00029843
0.000298422
0.000298413
0.000298404
0.000298393
0.000298382
0.000298371
0.000298359
0.000298348
0.000298336
0.000298324
0.000298312
0.000298299
0.000298283
0.000298268
0.000298247
0.000298224
0.00029819
0.000298151
0.000298099
0.000298034
0.000297953
0.000297853
0.000297731
0.000297585
0.000297414
0.000297218
0.000296998
0.000296758
0.000296503
0.000296241
0.000295978
0.000295724
0.000295486
0.000295272
0.000295086
0.00029493
0.000294805
0.00029471
0.000294642
0.000294597
0.00029457
0.000294557
0.000294552
0.000294544
0.000294367
0.000284677
0.00341247
0.003412
0.00341138
0.00341036
0.00340906
0.00340765
0.00340631
0.00340515
0.00340425
0.00340361
0.00340321
0.003403
0.00340292
0.00340291
0.00340292
0.00340299
0.00340313
0.00340336
0.00340368
0.00340409
0.00340457
0.00340508
0.0034056
0.0034061
0.00340655
0.00340692
0.00340723
0.00340747
0.00340764
0.00340776
0.00340784
0.00340789
0.00340792
0.00340794
0.00340794
0.00340795
0.00340795
0.00340794
0.00340794
0.00340792
0.00340791
0.00340789
0.00340787
0.00340786
0.00340785
0.00340785
0.00340784
0.00340784
0.00340783
0.00340783
0.00340783
0.00340782
0.00340781
0.0034078
0.0034078
0.00340778
0.00340777
0.00340776
0.00340774
0.00340772
0.0034077
0.00340768
0.00340765
0.00340762
0.00340759
0.00340754
0.00340748
0.00340739
0.00340728
0.00340713
0.00340693
0.00340668
0.00340636
0.00340599
0.00340555
0.00340507
0.00340455
0.00340402
0.00340352
0.00340306
0.00340268
0.00340239
0.00340219
0.00340208
0.00340202
0.00340201
0.00340204
0.00340212
0.00340229
0.00340256
0.00340294
0.00340345
0.00340409
0.00340484
0.00340567
0.00340648
0.00340714
0.00340753
0.00340766
0.00340787
0.00915925
0.00916294
0.00916275
0.00916251
0.0091623
0.0091619
0.00916151
0.00916091
0.00916047
0.00915993
0.00915961
0.00915927
0.0091591
0.00915896
0.00915891
0.00915888
0.00915888
0.00915891
0.00915896
0.00915903
0.00915912
0.00915922
0.00915932
0.00915942
0.00915951
0.00915959
0.00915965
0.00915971
0.00915975
0.00915977
0.00915979
0.0091598
0.0091598
0.00915979
0.00915978
0.00915978
0.00915977
0.00915976
0.00915976
0.00915975
0.00915975
0.00915976
0.00915976
0.00915976
0.00915977
0.00915977
0.00915978
0.00915979
0.0091598
0.0091598
0.00915981
0.00915982
0.00915983
0.00915984
0.00915985
0.00915986
0.00915988
0.00915989
0.00915991
0.00915994
0.00915997
0.00916001
0.00916005
0.0091601
0.00916016
0.00916023
0.0091603
0.00916038
0.00916046
0.00916055
0.00916063
0.0091607
0.00916076
0.00916081
0.00916085
0.00916087
0.00916086
0.00916084
0.00916081
0.00916076
0.00916071
0.00916066
0.00916063
0.0091606
0.00916061
0.00916064
0.00916069
0.00916079
0.00916094
0.00916116
0.00916144
0.00916182
0.00916223
0.00916269
0.0091631
0.00916347
0.00916375
0.00916402
0.00916426
0.00916388
0.0141995
0.0142084
0.0142085
0.0142085
0.0142085
0.0142085
0.0142085
0.0142085
0.0142085
0.0142085
0.0142085
0.0142085
0.0142085
0.0142085
0.0142085
0.0142084
0.0142084
0.0142084
0.0142084
0.0142083
0.0142083
0.0142083
0.0142082
0.0142082
0.0142082
0.0142081
0.0142081
0.0142081
0.0142081
0.0142081
0.0142081
0.014208
0.014208
0.014208
0.014208
0.014208
0.014208
0.014208
0.0142081
0.0142081
0.0142081
0.0142081
0.0142081
0.0142081
0.0142081
0.0142081
0.0142081
0.0142081
0.0142081
0.0142081
0.0142081
0.0142081
0.0142081
0.0142081
0.0142081
0.0142081
0.0142081
0.0142081
0.0142081
0.0142081
0.0142081
0.0142081
0.0142082
0.0142082
0.0142082
0.0142082
0.0142082
0.0142082
0.0142082
0.0142082
0.0142083
0.0142083
0.0142084
0.0142084
0.0142085
0.0142086
0.0142087
0.0142088
0.0142089
0.014209
0.0142091
0.0142092
0.0142094
0.0142095
0.0142096
0.0142097
0.0142098
0.0142098
0.0142099
0.0142099
0.0142099
0.0142099
0.0142099
0.0142099
0.0142099
0.0142098
0.0142097
0.0142094
0.0142091
0.0141977
0.00292868
0.00292809
0.0029277
0.00292703
0.00292613
0.00292508
0.00292397
0.00292291
0.00292199
0.00292127
0.00292075
0.00292042
0.00292025
0.00292018
0.00292015
0.00292016
0.00292018
0.00292023
0.00292032
0.00292046
0.00292063
0.00292083
0.00292104
0.00292123
0.00292141
0.00292156
0.00292169
0.00292178
0.00292186
0.0029219
0.00292193
0.00292194
0.00292195
0.00292195
0.00292195
0.00292195
0.00292195
0.00292196
0.00292196
0.00292197
0.00292198
0.00292198
0.00292199
0.002922
0.002922
0.00292201
0.00292201
0.00292201
0.00292202
0.00292202
0.00292202
0.00292202
0.00292202
0.00292203
0.00292203
0.00292203
0.00292204
0.00292204
0.00292205
0.00292206
0.00292207
0.00292209
0.00292212
0.00292215
0.00292218
0.00292222
0.00292225
0.00292229
0.00292232
0.00292234
0.00292234
0.00292233
0.00292229
0.00292223
0.00292213
0.00292199
0.00292181
0.0029216
0.00292136
0.00292113
0.00292091
0.00292074
0.00292062
0.00292056
0.00292053
0.00292053
0.00292054
0.0029206
0.00292076
0.00292109
0.00292164
0.00292246
0.00292354
0.00292481
0.00292619
0.00292754
0.00292872
0.00292961
0.00293015
0.00293081
0.0383872
0.0383831
0.0383825
0.038382
0.0383815
0.0383811
0.0383806
0.0383803
0.03838
0.0383798
0.0383798
0.0383797
0.0383798
0.0383798
0.0383799
0.03838
0.03838
0.0383801
0.0383802
0.0383803
0.0383803
0.0383804
0.0383805
0.0383806
0.0383806
0.0383807
0.0383807
0.0383807
0.0383807
0.0383808
0.0383808
0.0383808
0.0383808
0.0383808
0.0383808
0.0383808
0.0383808
0.0383808
0.0383808
0.0383808
0.0383809
0.0383809
0.0383809
0.0383809
0.0383809
0.0383809
0.0383809
0.0383809
0.0383809
0.0383809
0.0383809
0.0383809
0.0383809
0.0383809
0.0383809
0.0383809
0.0383809
0.038381
0.038381
0.038381
0.038381
0.038381
0.038381
0.0383811
0.0383811
0.0383812
0.0383812
0.0383812
0.0383813
0.0383814
0.0383814
0.0383815
0.0383815
0.0383816
0.0383816
0.0383816
0.0383816
0.0383816
0.0383816
0.0383816
0.0383815
0.0383815
0.0383815
0.0383814
0.0383814
0.0383813
0.0383813
0.0383813
0.0383813
0.0383813
0.0383814
0.0383815
0.0383816
0.0383819
0.0383822
0.0383827
0.0383832
0.038384
0.0383852
0.0383882
0.0334154
0.0334512
0.0334512
0.0334512
0.0334512
0.0334512
0.0334512
0.0334512
0.0334512
0.0334512
0.0334512
0.0334512
0.0334513
0.0334513
0.0334513
0.0334513
0.0334513
0.0334513
0.0334514
0.0334514
0.0334514
0.0334513
0.0334513
0.0334513
0.0334512
0.0334512
0.0334512
0.0334511
0.033451
0.033451
0.0334509
0.0334509
0.0334508
0.0334508
0.0334507
0.0334507
0.0334507
0.0334506
0.0334506
0.0334506
0.0334506
0.0334505
0.0334505
0.0334505
0.0334505
0.0334505
0.0334505
0.0334505
0.0334505
0.0334505
0.0334505
0.0334505
0.0334505
0.0334505
0.0334505
0.0334505
0.0334505
0.0334505
0.0334505
0.0334505
0.0334506
0.0334506
0.0334506
0.0334506
0.0334507
0.0334507
0.0334508
0.0334508
0.0334509
0.0334509
0.033451
0.033451
0.0334511
0.0334511
0.0334512
0.0334512
0.0334513
0.0334513
0.0334514
0.0334514
0.0334514
0.0334514
0.0334514
0.0334514
0.0334514
0.0334514