/*--------------------------------*- C++ -*----------------------------------*\
| =========                 |                                                 |
| \\      /  F ield         | OpenFOAM: The Open Source CFD Toolbox           |
|  \\    /   O peration     | Version:  2406                                  |
|   \\  /    A nd           | Website:  www.openfoam.com                      |
|    \\/     M anipulation  |                                                 |
\*---------------------------------------------------------------------------*/
FoamFile
{
    version     2.0;
    format      ascii;
    arch        "LSB;label=32;scalar=64";
    class       volVectorField;
    location    "0.004";
    object      U;
}
// * * * * * * * * * * * * * * * * * * * * * * * * * * * * * * * * * * * * * //

dimensions      [0 1 -1 0 0 0 0];

internalField   nonuniform List<vector> 
81000
(
(-0.0469251 0.0959766 0)
(-0.0472494 0.0987708 0)
(-0.0472743 0.0988079 0)
(-0.0472783 0.0988062 0)
(-0.0472807 0.0988065 0)
(-0.047282 0.0988087 0)
(-0.0472832 0.0988133 0)
(-0.0472846 0.0988213 0)
(-0.0472861 0.0988347 0)
(-0.0472879 0.0988553 0)
(-0.0472898 0.0988848 0)
(-0.0472918 0.0989246 0)
(-0.0472939 0.0989751 0)
(-0.0472959 0.0990357 0)
(-0.0472981 0.0991049 0)
(-0.0473002 0.0991802 0)
(-0.0473024 0.0992587 0)
(-0.0473045 0.0993369 0)
(-0.0473066 0.0994119 0)
(-0.0473086 0.0994807 0)
(-0.0473106 0.0995414 0)
(-0.0473126 0.0995927 0)
(-0.0473146 0.0996338 0)
(-0.0473164 0.0996646 0)
(-0.0473183 0.0996854 0)
(-0.04732 0.0996973 0)
(-0.0473215 0.0997025 0)
(-0.0473229 0.0997036 0)
(-0.0473242 0.0997027 0)
(-0.0473258 0.0996998 0)
(-0.0473277 0.0996948 0)
(-0.0473299 0.0996879 0)
(-0.0473323 0.0996797 0)
(-0.047335 0.0996707 0)
(-0.0473378 0.0996615 0)
(-0.0473405 0.0996525 0)
(-0.0473431 0.0996444 0)
(-0.0473454 0.0996373 0)
(-0.0473473 0.0996315 0)
(-0.0473489 0.099627 0)
(-0.0473502 0.0996238 0)
(-0.0473512 0.0996216 0)
(-0.0473522 0.0996202 0)
(-0.047353 0.0996194 0)
(-0.0473539 0.0996191 0)
(-0.0473547 0.099619 0)
(-0.0473556 0.0996188 0)
(-0.0473565 0.0996184 0)
(-0.0473575 0.0996175 0)
(-0.0473587 0.0996161 0)
(-0.0473599 0.099614 0)
(-0.0473614 0.0996112 0)
(-0.047363 0.0996074 0)
(-0.047365 0.0996028 0)
(-0.0473672 0.0995973 0)
(-0.0473697 0.0995909 0)
(-0.0473726 0.099584 0)
(-0.0473757 0.0995765 0)
(-0.0473792 0.0995688 0)
(-0.0473828 0.0995611 0)
(-0.0473865 0.0995536 0)
(-0.0473904 0.0995464 0)
(-0.0473943 0.0995396 0)
(-0.0473981 0.0995335 0)
(-0.0474017 0.0995279 0)
(-0.0474054 0.099523 0)
(-0.0474084 0.0995182 0)
(-0.0474117 0.099514 0)
(-0.0474147 0.0995097 0)
(-0.0474166 0.0995048 0)
(-0.0474162 0.0994984 0)
(-0.0474166 0.09949 0)
(-0.047417 0.0994784 0)
(-0.0474172 0.0994627 0)
(-0.0474173 0.0994415 0)
(-0.0474172 0.0994134 0)
(-0.0474169 0.0993768 0)
(-0.0474162 0.0993306 0)
(-0.047415 0.0992739 0)
(-0.0474132 0.0992065 0)
(-0.0474107 0.0991286 0)
(-0.0474074 0.0990416 0)
(-0.0474033 0.0989473 0)
(-0.0473983 0.0988483 0)
(-0.0473925 0.0987477 0)
(-0.0473861 0.098649 0)
(-0.0473793 0.0985555 0)
(-0.0473726 0.0984704 0)
(-0.0473662 0.0983959 0)
(-0.0473605 0.0983334 0)
(-0.0473557 0.0982833 0)
(-0.0473518 0.0982448 0)
(-0.0473489 0.0982164 0)
(-0.0473468 0.0981961 0)
(-0.0473452 0.098182 0)
(-0.047341 0.0981727 0)
(-0.0473432 0.0981632 0)
(-0.047353 0.0981535 0)
(-0.0472956 0.0980634 0)
(-0.0468405 0.0937667 0)
(-0.0408256 1.18739 0)
(-0.0408248 1.18725 0)
(-0.0408241 1.187 0)
(-0.040821 1.18663 0)
(-0.0408145 1.18619 0)
(-0.0408047 1.18575 0)
(-0.0407927 1.18535 0)
(-0.0407803 1.18501 0)
(-0.040769 1.18477 0)
(-0.0407595 1.18461 0)
(-0.0407523 1.18452 0)
(-0.0407473 1.18447 0)
(-0.040744 1.18446 0)
(-0.0407403 1.18446 0)
(-0.0407365 1.18447 0)
(-0.0407296 1.1845 0)
(-0.0407198 1.18457 0)
(-0.0407082 1.18467 0)
(-0.0406958 1.18481 0)
(-0.040683 1.18497 0)
(-0.0406705 1.18514 0)
(-0.0406586 1.18531 0)
(-0.040648 1.18547 0)
(-0.0406388 1.18561 0)
(-0.0406312 1.18574 0)
(-0.0406252 1.18584 0)
(-0.0406207 1.18593 0)
(-0.0406176 1.18599 0)
(-0.0406156 1.18603 0)
(-0.0406145 1.18606 0)
(-0.040614 1.18607 0)
(-0.0406138 1.18608 0)
(-0.0406138 1.18608 0)
(-0.0406137 1.18608 0)
(-0.0406137 1.18608 0)
(-0.0406136 1.18608 0)
(-0.0406136 1.18607 0)
(-0.0406135 1.18607 0)
(-0.0406134 1.18606 0)
(-0.0406133 1.18606 0)
(-0.0406132 1.18606 0)
(-0.0406132 1.18605 0)
(-0.0406131 1.18605 0)
(-0.040613 1.18605 0)
(-0.0406129 1.18604 0)
(-0.0406127 1.18604 0)
(-0.0406125 1.18604 0)
(-0.0406123 1.18604 0)
(-0.0406121 1.18604 0)
(-0.0406124 1.18604 0)
(-0.0406127 1.18604 0)
(-0.0406132 1.18604 0)
(-0.0406138 1.18603 0)
(-0.0406146 1.18603 0)
(-0.0406154 1.18603 0)
(-0.0406164 1.18602 0)
(-0.0406174 1.18602 0)
(-0.0406186 1.18601 0)
(-0.0406199 1.186 0)
(-0.0406213 1.186 0)
(-0.0406229 1.18599 0)
(-0.0406242 1.18598 0)
(-0.0406268 1.18597 0)
(-0.0406307 1.18596 0)
(-0.0406327 1.18595 0)
(-0.0406364 1.18593 0)
(-0.0406351 1.18592 0)
(-0.0406377 1.18589 0)
(-0.0406399 1.18586 0)
(-0.0406426 1.18582 0)
(-0.0406458 1.18577 0)
(-0.0406499 1.1857 0)
(-0.0406549 1.18561 0)
(-0.0406611 1.1855 0)
(-0.0406687 1.18537 0)
(-0.0406776 1.18523 0)
(-0.0406877 1.18508 0)
(-0.0406988 1.18492 0)
(-0.0407103 1.18476 0)
(-0.0407221 1.1846 0)
(-0.0407336 1.18446 0)
(-0.0407448 1.18434 0)
(-0.0407553 1.18423 0)
(-0.0407651 1.18416 0)
(-0.0407739 1.1841 0)
(-0.0407809 1.18408 0)
(-0.0407857 1.18407 0)
(-0.0407905 1.18407 0)
(-0.0407942 1.18407 0)
(-0.0407999 1.1841 0)
(-0.0408076 1.18415 0)
(-0.0408169 1.18424 0)
(-0.0408272 1.18436 0)
(-0.0408376 1.1845 0)
(-0.0408471 1.18465 0)
(-0.0408544 1.18477 0)
(-0.040859 1.18486 0)
(-0.0408611 1.1849 0)
(-0.0408617 1.18492 0)
(-0.0408911 1.18497 0)
(-0.0853021 3.19402 0)
(-0.0853517 3.19578 0)
(-0.0853515 3.19578 0)
(-0.0853512 3.19578 0)
(-0.0853505 3.19576 0)
(-0.0853492 3.19572 0)
(-0.0853476 3.19567 0)
(-0.0853451 3.1956 0)
(-0.0853426 3.19554 0)
(-0.0853396 3.19547 0)
(-0.0853373 3.19543 0)
(-0.0853352 3.19541 0)
(-0.0853338 3.1954 0)
(-0.0853324 3.1954 0)
(-0.0853309 3.1954 0)
(-0.0853283 3.19542 0)
(-0.0853249 3.19546 0)
(-0.0853215 3.19553 0)
(-0.0853185 3.19561 0)
(-0.085316 3.19569 0)
(-0.0853138 3.19578 0)
(-0.0853117 3.19587 0)
(-0.0853098 3.19596 0)
(-0.0853078 3.19604 0)
(-0.0853058 3.19612 0)
(-0.0853037 3.19619 0)
(-0.0853017 3.19625 0)
(-0.0852996 3.1963 0)
(-0.0852976 3.19634 0)
(-0.0852956 3.19638 0)
(-0.0852935 3.19641 0)
(-0.0852912 3.19643 0)
(-0.0852888 3.19646 0)
(-0.0852861 3.19647 0)
(-0.0852833 3.19649 0)
(-0.0852801 3.1965 0)
(-0.0852765 3.19651 0)
(-0.0852726 3.19652 0)
(-0.0852685 3.19652 0)
(-0.0852644 3.19653 0)
(-0.0852602 3.19654 0)
(-0.0852562 3.19654 0)
(-0.0852522 3.19654 0)
(-0.0852486 3.19655 0)
(-0.0852452 3.19655 0)
(-0.0852422 3.19655 0)
(-0.0852398 3.19655 0)
(-0.0852378 3.19656 0)
(-0.0852364 3.19656 0)
(-0.0852352 3.19656 0)
(-0.0852342 3.19656 0)
(-0.0852335 3.19656 0)
(-0.0852331 3.19656 0)
(-0.085233 3.19655 0)
(-0.0852332 3.19655 0)
(-0.0852338 3.19654 0)
(-0.0852346 3.19653 0)
(-0.0852357 3.19652 0)
(-0.0852371 3.19651 0)
(-0.0852389 3.19649 0)
(-0.085241 3.19647 0)
(-0.0852436 3.19645 0)
(-0.0852465 3.19642 0)
(-0.0852498 3.19639 0)
(-0.0852535 3.19636 0)
(-0.0852576 3.19632 0)
(-0.0852619 3.19627 0)
(-0.0852665 3.19623 0)
(-0.0852707 3.19618 0)
(-0.0852743 3.19612 0)
(-0.0852775 3.19606 0)
(-0.0852805 3.19599 0)
(-0.0852834 3.19592 0)
(-0.0852859 3.19584 0)
(-0.0852882 3.19575 0)
(-0.0852902 3.19566 0)
(-0.0852921 3.19557 0)
(-0.0852937 3.19547 0)
(-0.0852953 3.19536 0)
(-0.0852968 3.19525 0)
(-0.0852985 3.19514 0)
(-0.0853004 3.19503 0)
(-0.0853027 3.19493 0)
(-0.0853055 3.19484 0)
(-0.0853087 3.19476 0)
(-0.0853117 3.1947 0)
(-0.0853139 3.19466 0)
(-0.0853151 3.19464 0)
(-0.0853157 3.19463 0)
(-0.0853162 3.19463 0)
(-0.0853164 3.19463 0)
(-0.0853163 3.19465 0)
(-0.0853153 3.19468 0)
(-0.0853129 3.19473 0)
(-0.0853093 3.19478 0)
(-0.085304 3.19485 0)
(-0.0852973 3.1949 0)
(-0.0852898 3.19494 0)
(-0.0852867 3.19496 0)
(-0.085289 3.19504 0)
(-0.24506 4.8868 0)
(-0.243697 4.89152 0)
(-0.243689 4.89152 0)
(-0.243689 4.89152 0)
(-0.243689 4.89152 0)
(-0.24369 4.89153 0)
(-0.24369 4.89153 0)
(-0.243691 4.89154 0)
(-0.243692 4.89155 0)
(-0.243694 4.89155 0)
(-0.243696 4.89156 0)
(-0.243698 4.89156 0)
(-0.243701 4.89156 0)
(-0.243703 4.89156 0)
(-0.243707 4.89155 0)
(-0.24371 4.89155 0)
(-0.243714 4.89155 0)
(-0.243718 4.89154 0)
(-0.243721 4.89154 0)
(-0.243724 4.89154 0)
(-0.243725 4.89154 0)
(-0.243726 4.89154 0)
(-0.243726 4.89154 0)
(-0.243725 4.89154 0)
(-0.243723 4.89154 0)
(-0.24372 4.89154 0)
(-0.243715 4.89155 0)
(-0.243709 4.89155 0)
(-0.243703 4.89156 0)
(-0.243696 4.89156 0)
(-0.24369 4.89157 0)
(-0.243683 4.89157 0)
(-0.243676 4.89158 0)
(-0.24367 4.89159 0)
(-0.243663 4.8916 0)
(-0.243657 4.8916 0)
(-0.243652 4.89161 0)
(-0.243647 4.89162 0)
(-0.243642 4.89162 0)
(-0.243638 4.89163 0)
(-0.243634 4.89163 0)
(-0.243631 4.89163 0)
(-0.243628 4.89163 0)
(-0.243626 4.89164 0)
(-0.243624 4.89164 0)
(-0.243623 4.89164 0)
(-0.243622 4.89164 0)
(-0.243621 4.89164 0)
(-0.243621 4.89165 0)
(-0.243621 4.89165 0)
(-0.243621 4.89165 0)
(-0.243621 4.89165 0)
(-0.243622 4.89165 0)
(-0.243623 4.89165 0)
(-0.243624 4.89165 0)
(-0.243626 4.89165 0)
(-0.243629 4.89165 0)
(-0.243632 4.89165 0)
(-0.243635 4.89165 0)
(-0.24364 4.89164 0)
(-0.243645 4.89164 0)
(-0.243651 4.89163 0)
(-0.243657 4.89163 0)
(-0.243664 4.89162 0)
(-0.243672 4.89161 0)
(-0.24368 4.8916 0)
(-0.243688 4.89159 0)
(-0.243696 4.89157 0)
(-0.243704 4.89156 0)
(-0.243711 4.89155 0)
(-0.243716 4.89154 0)
(-0.243719 4.89154 0)
(-0.243721 4.89154 0)
(-0.243721 4.89154 0)
(-0.243721 4.89154 0)
(-0.24372 4.89154 0)
(-0.243717 4.89155 0)
(-0.243713 4.89157 0)
(-0.243706 4.89158 0)
(-0.243697 4.89161 0)
(-0.243687 4.89163 0)
(-0.243676 4.89166 0)
(-0.243664 4.89168 0)
(-0.243651 4.89171 0)
(-0.24364 4.89174 0)
(-0.243629 4.89176 0)
(-0.24362 4.89178 0)
(-0.243613 4.89179 0)
(-0.243606 4.8918 0)
(-0.243601 4.89181 0)
(-0.243597 4.89181 0)
(-0.243593 4.8918 0)
(-0.243589 4.8918 0)
(-0.243586 4.89179 0)
(-0.243583 4.89177 0)
(-0.243579 4.89174 0)
(-0.243573 4.89169 0)
(-0.243535 4.89162 0)
(-0.243429 4.89151 0)
(-0.248066 4.88692 0)
(-0.0470444 -0.986059 0)
(-0.0474623 -0.985914 0)
(-0.047467 -0.985883 0)
(-0.0474804 -0.985779 0)
(-0.0475026 -0.985571 0)
(-0.0475298 -0.985266 0)
(-0.0475572 -0.984901 0)
(-0.0475819 -0.984529 0)
(-0.0476031 -0.984197 0)
(-0.0476216 -0.983937 0)
(-0.0476381 -0.983756 0)
(-0.0476526 -0.983646 0)
(-0.0476648 -0.98359 0)
(-0.0476745 -0.983568 0)
(-0.047683 -0.983562 0)
(-0.0476906 -0.983568 0)
(-0.0476994 -0.983583 0)
(-0.04771 -0.983611 0)
(-0.047722 -0.983651 0)
(-0.0477341 -0.983705 0)
(-0.0477454 -0.983769 0)
(-0.0477548 -0.983838 0)
(-0.0477619 -0.983909 0)
(-0.0477663 -0.983978 0)
(-0.0477681 -0.98404 0)
(-0.0477671 -0.984094 0)
(-0.0477633 -0.984138 0)
(-0.0477568 -0.984173 0)
(-0.0477471 -0.984198 0)
(-0.0477341 -0.984216 0)
(-0.0477184 -0.984226 0)
(-0.0477015 -0.98423 0)
(-0.0476845 -0.984232 0)
(-0.0476679 -0.984231 0)
(-0.0476522 -0.984231 0)
(-0.0476376 -0.984231 0)
(-0.0476245 -0.984232 0)
(-0.0476131 -0.984233 0)
(-0.0476033 -0.984236 0)
(-0.0475952 -0.984238 0)
(-0.0475887 -0.984241 0)
(-0.0475836 -0.984243 0)
(-0.0475797 -0.984245 0)
(-0.0475769 -0.984247 0)
(-0.0475749 -0.984249 0)
(-0.0475736 -0.98425 0)
(-0.0475729 -0.984251 0)
(-0.0475726 -0.984252 0)
(-0.0475727 -0.984253 0)
(-0.0475734 -0.984253 0)
(-0.0475744 -0.984254 0)
(-0.0475761 -0.984254 0)
(-0.0475785 -0.984254 0)
(-0.0475819 -0.984255 0)
(-0.0475864 -0.984255 0)
(-0.0475922 -0.984255 0)
(-0.0475995 -0.984256 0)
(-0.0476084 -0.984257 0)
(-0.047619 -0.984258 0)
(-0.0476311 -0.98426 0)
(-0.0476447 -0.984263 0)
(-0.0476593 -0.984268 0)
(-0.0476746 -0.984274 0)
(-0.0476901 -0.984282 0)
(-0.0477054 -0.984291 0)
(-0.0477199 -0.984301 0)
(-0.0477334 -0.98431 0)
(-0.0477457 -0.984319 0)
(-0.0477568 -0.984326 0)
(-0.0477669 -0.984329 0)
(-0.0477764 -0.984327 0)
(-0.0477841 -0.984319 0)
(-0.0477899 -0.984302 0)
(-0.0477942 -0.984275 0)
(-0.0477968 -0.984235 0)
(-0.0477976 -0.984182 0)
(-0.0477961 -0.984115 0)
(-0.0477923 -0.984036 0)
(-0.0477861 -0.983951 0)
(-0.047778 -0.983866 0)
(-0.0477685 -0.983787 0)
(-0.0477587 -0.983722 0)
(-0.0477497 -0.983674 0)
(-0.0477425 -0.983644 0)
(-0.0477375 -0.98363 0)
(-0.0477347 -0.983625 0)
(-0.0477311 -0.983627 0)
(-0.047726 -0.983643 0)
(-0.0477184 -0.983692 0)
(-0.0477081 -0.983802 0)
(-0.0476953 -0.983998 0)
(-0.0476799 -0.984296 0)
(-0.0476608 -0.984688 0)
(-0.0476369 -0.98514 0)
(-0.0476085 -0.985593 0)
(-0.047579 -0.985981 0)
(-0.0475539 -0.986255 0)
(-0.0475382 -0.986401 0)
(-0.0475324 -0.986449 0)
(-0.0471569 -0.986762 0)
(0.755768 -13.1464 0)
(0.763283 -13.1436 0)
(0.763363 -13.1434 0)
(0.763394 -13.1432 0)
(0.763411 -13.143 0)
(0.763423 -13.1428 0)
(0.763431 -13.1427 0)
(0.763436 -13.1425 0)
(0.763441 -13.1424 0)
(0.763445 -13.1424 0)
(0.763448 -13.1423 0)
(0.763451 -13.1423 0)
(0.763453 -13.1423 0)
(0.763454 -13.1423 0)
(0.763456 -13.1423 0)
(0.763458 -13.1423 0)
(0.763461 -13.1423 0)
(0.763465 -13.1423 0)
(0.763471 -13.1424 0)
(0.763477 -13.1424 0)
(0.763485 -13.1424 0)
(0.763494 -13.1425 0)
(0.763504 -13.1425 0)
(0.763515 -13.1425 0)
(0.763528 -13.1426 0)
(0.763542 -13.1426 0)
(0.763556 -13.1426 0)
(0.76357 -13.1426 0)
(0.763583 -13.1426 0)
(0.763596 -13.1426 0)
(0.763607 -13.1426 0)
(0.763617 -13.1426 0)
(0.763627 -13.1426 0)
(0.763635 -13.1426 0)
(0.763642 -13.1426 0)
(0.763649 -13.1426 0)
(0.763655 -13.1426 0)
(0.763659 -13.1426 0)
(0.763663 -13.1426 0)
(0.763667 -13.1426 0)
(0.763669 -13.1426 0)
(0.763672 -13.1426 0)
(0.763674 -13.1426 0)
(0.763675 -13.1426 0)
(0.763676 -13.1426 0)
(0.763678 -13.1426 0)
(0.763679 -13.1426 0)
(0.763679 -13.1426 0)
(0.76368 -13.1426 0)
(0.76368 -13.1426 0)
(0.76368 -13.1426 0)
(0.763679 -13.1426 0)
(0.763678 -13.1426 0)
(0.763677 -13.1427 0)
(0.763675 -13.1427 0)
(0.763673 -13.1427 0)
(0.76367 -13.1427 0)
(0.763667 -13.1427 0)
(0.763663 -13.1427 0)
(0.763659 -13.1427 0)
(0.763654 -13.1427 0)
(0.763649 -13.1427 0)
(0.763643 -13.1427 0)
(0.763637 -13.1427 0)
(0.763631 -13.1427 0)
(0.763624 -13.1427 0)
(0.763618 -13.1427 0)
(0.763611 -13.1428 0)
(0.763604 -13.1428 0)
(0.763598 -13.1428 0)
(0.763591 -13.1428 0)
(0.763585 -13.1428 0)
(0.763578 -13.1429 0)
(0.763572 -13.1429 0)
(0.763566 -13.1429 0)
(0.76356 -13.1429 0)
(0.763555 -13.1429 0)
(0.763549 -13.1429 0)
(0.763543 -13.1429 0)
(0.763537 -13.1429 0)
(0.763532 -13.1428 0)
(0.763527 -13.1428 0)
(0.763522 -13.1428 0)
(0.763519 -13.1428 0)
(0.763516 -13.1428 0)
(0.763515 -13.1428 0)
(0.763514 -13.1428 0)
(0.763513 -13.1428 0)
(0.763511 -13.1428 0)
(0.76351 -13.1428 0)
(0.763508 -13.1428 0)
(0.763508 -13.1429 0)
(0.763508 -13.143 0)
(0.763509 -13.1431 0)
(0.763513 -13.1432 0)
(0.763521 -13.1433 0)
(0.763518 -13.1435 0)
(0.763544 -13.1437 0)
(0.763473 -13.144 0)
(0.75477 -13.1479 0)
(0.706306 -11.4562 0)
(0.700888 -11.4693 0)
(0.700869 -11.4693 0)
(0.700869 -11.4693 0)
(0.700869 -11.4693 0)
(0.700869 -11.4693 0)
(0.700869 -11.4693 0)
(0.70087 -11.4693 0)
(0.700871 -11.4693 0)
(0.700872 -11.4693 0)
(0.700874 -11.4693 0)
(0.700877 -11.4693 0)
(0.70088 -11.4693 0)
(0.700885 -11.4693 0)
(0.700891 -11.4693 0)
(0.700898 -11.4693 0)
(0.700906 -11.4693 0)
(0.700915 -11.4693 0)
(0.700925 -11.4693 0)
(0.700936 -11.4693 0)
(0.700946 -11.4693 0)
(0.700956 -11.4693 0)
(0.700966 -11.4693 0)
(0.700975 -11.4693 0)
(0.700984 -11.4693 0)
(0.700992 -11.4693 0)
(0.701 -11.4693 0)
(0.701007 -11.4693 0)
(0.701014 -11.4692 0)
(0.70102 -11.4692 0)
(0.701026 -11.4692 0)
(0.701031 -11.4692 0)
(0.701036 -11.4692 0)
(0.70104 -11.4691 0)
(0.701044 -11.4691 0)
(0.701048 -11.4691 0)
(0.701051 -11.4691 0)
(0.701053 -11.4691 0)
(0.701055 -11.4691 0)
(0.701057 -11.4691 0)
(0.701059 -11.4691 0)
(0.70106 -11.4691 0)
(0.701061 -11.4691 0)
(0.701061 -11.469 0)
(0.701062 -11.469 0)
(0.701062 -11.469 0)
(0.701062 -11.469 0)
(0.701062 -11.469 0)
(0.701062 -11.469 0)
(0.701062 -11.469 0)
(0.701062 -11.469 0)
(0.701062 -11.469 0)
(0.701061 -11.469 0)
(0.701061 -11.469 0)
(0.70106 -11.469 0)
(0.70106 -11.469 0)
(0.701059 -11.469 0)
(0.701057 -11.469 0)
(0.701056 -11.4691 0)
(0.701054 -11.4691 0)
(0.701052 -11.4691 0)
(0.70105 -11.4691 0)
(0.701047 -11.4691 0)
(0.701044 -11.4691 0)
(0.701041 -11.4691 0)
(0.701038 -11.4691 0)
(0.701034 -11.4691 0)
(0.70103 -11.4692 0)
(0.701025 -11.4692 0)
(0.70102 -11.4692 0)
(0.701015 -11.4692 0)
(0.701009 -11.4692 0)
(0.701002 -11.4693 0)
(0.700996 -11.4693 0)
(0.700988 -11.4693 0)
(0.70098 -11.4693 0)
(0.700972 -11.4693 0)
(0.700963 -11.4693 0)
(0.700954 -11.4693 0)
(0.700944 -11.4694 0)
(0.700934 -11.4694 0)
(0.700923 -11.4694 0)
(0.700913 -11.4694 0)
(0.700904 -11.4694 0)
(0.700896 -11.4694 0)
(0.700888 -11.4694 0)
(0.700882 -11.4694 0)
(0.700876 -11.4694 0)
(0.700872 -11.4693 0)
(0.700869 -11.4694 0)
(0.700866 -11.4694 0)
(0.700865 -11.4694 0)
(0.700864 -11.4694 0)
(0.700863 -11.4694 0)
(0.700863 -11.4694 0)
(0.700863 -11.4694 0)
(0.700863 -11.4694 0)
(0.700863 -11.4694 0)
(0.700884 -11.4693 0)
(0.706643 -11.4499 0)
(0.234963 -2.48775 0)
(0.237161 -2.49217 0)
(0.237122 -2.49219 0)
(0.237122 -2.4922 0)
(0.237122 -2.49221 0)
(0.237122 -2.49221 0)
(0.237122 -2.49221 0)
(0.237122 -2.49221 0)
(0.237122 -2.49221 0)
(0.237122 -2.49221 0)
(0.237122 -2.49221 0)
(0.237122 -2.49221 0)
(0.237122 -2.4922 0)
(0.237122 -2.4922 0)
(0.237121 -2.49219 0)
(0.237121 -2.49219 0)
(0.237121 -2.49218 0)
(0.23712 -2.49217 0)
(0.23712 -2.49216 0)
(0.23712 -2.49215 0)
(0.237119 -2.49214 0)
(0.237119 -2.49213 0)
(0.237119 -2.49212 0)
(0.237119 -2.49211 0)
(0.237119 -2.4921 0)
(0.237118 -2.49209 0)
(0.237118 -2.49208 0)
(0.237118 -2.49207 0)
(0.237117 -2.49207 0)
(0.237117 -2.49206 0)
(0.237116 -2.49205 0)
(0.237116 -2.49204 0)
(0.237116 -2.49203 0)
(0.237115 -2.49203 0)
(0.237115 -2.49202 0)
(0.237114 -2.49202 0)
(0.237114 -2.49201 0)
(0.237114 -2.49201 0)
(0.237114 -2.492 0)
(0.237113 -2.492 0)
(0.237113 -2.49199 0)
(0.237113 -2.49199 0)
(0.237113 -2.49199 0)
(0.237113 -2.49199 0)
(0.237112 -2.49199 0)
(0.237112 -2.49198 0)
(0.237112 -2.49198 0)
(0.237112 -2.49198 0)
(0.237112 -2.49198 0)
(0.237112 -2.49198 0)
(0.237112 -2.49198 0)
(0.237112 -2.49198 0)
(0.237112 -2.49198 0)
(0.237112 -2.49198 0)
(0.237112 -2.49198 0)
(0.237111 -2.49198 0)
(0.237111 -2.49198 0)
(0.237111 -2.49198 0)
(0.237111 -2.49198 0)
(0.237111 -2.49198 0)
(0.237111 -2.49198 0)
(0.237111 -2.49198 0)
(0.237111 -2.49198 0)
(0.237111 -2.49198 0)
(0.237111 -2.49198 0)
(0.237111 -2.49199 0)
(0.237111 -2.49199 0)
(0.237111 -2.49199 0)
(0.237112 -2.49199 0)
(0.237112 -2.492 0)
(0.237112 -2.492 0)
(0.237112 -2.492 0)
(0.237113 -2.49201 0)
(0.237113 -2.49201 0)
(0.237113 -2.49201 0)
(0.237114 -2.49202 0)
(0.237114 -2.49202 0)
(0.237115 -2.49203 0)
(0.237115 -2.49203 0)
(0.237116 -2.49204 0)
(0.237116 -2.49204 0)
(0.237117 -2.49205 0)
(0.237117 -2.49205 0)
(0.237118 -2.49206 0)
(0.237118 -2.49206 0)
(0.237119 -2.49206 0)
(0.237119 -2.49207 0)
(0.237119 -2.49207 0)
(0.23712 -2.49207 0)
(0.23712 -2.49207 0)
(0.23712 -2.49207 0)
(0.23712 -2.49207 0)
(0.23712 -2.49207 0)
(0.23712 -2.49207 0)
(0.23712 -2.49207 0)
(0.23712 -2.49207 0)
(0.23712 -2.49207 0)
(0.237118 -2.49206 0)
(0.237152 -2.49204 0)
(0.234488 -2.48608 0)
(0.00594656 -0.0962687 0)
(0.0060252 -0.0966484 0)
(0.00602311 -0.0966497 0)
(0.00602324 -0.09665 0)
(0.00602331 -0.0966503 0)
(0.00602334 -0.0966504 0)
(0.00602337 -0.0966505 0)
(0.0060234 -0.0966505 0)
(0.00602344 -0.0966504 0)
(0.0060235 -0.0966502 0)
(0.0060236 -0.0966498 0)
(0.00602372 -0.0966492 0)
(0.00602385 -0.0966486 0)
(0.00602398 -0.0966478 0)
(0.0060241 -0.0966471 0)
(0.00602421 -0.0966463 0)
(0.0060243 -0.0966455 0)
(0.00602435 -0.0966447 0)
(0.00602438 -0.096644 0)
(0.00602433 -0.0966433 0)
(0.00602428 -0.0966425 0)
(0.00602423 -0.0966419 0)
(0.00602419 -0.0966412 0)
(0.00602415 -0.0966406 0)
(0.00602412 -0.0966401 0)
(0.00602409 -0.0966396 0)
(0.00602407 -0.0966392 0)
(0.00602406 -0.0966389 0)
(0.00602404 -0.0966386 0)
(0.00602403 -0.0966383 0)
(0.00602401 -0.0966381 0)
(0.00602393 -0.096638 0)
(0.00602388 -0.0966378 0)
(0.00602382 -0.0966377 0)
(0.00602378 -0.0966375 0)
(0.00602376 -0.0966373 0)
(0.00602375 -0.0966372 0)
(0.00602373 -0.096637 0)
(0.00602371 -0.0966368 0)
(0.0060237 -0.0966366 0)
(0.00602368 -0.0966365 0)
(0.00602367 -0.0966363 0)
(0.00602366 -0.0966362 0)
(0.00602364 -0.096636 0)
(0.00602363 -0.0966359 0)
(0.00602361 -0.0966358 0)
(0.0060236 -0.0966358 0)
(0.00602359 -0.0966357 0)
(0.00602357 -0.0966357 0)
(0.00602356 -0.0966356 0)
(0.00602355 -0.0966356 0)
(0.00602353 -0.0966356 0)
(0.00602352 -0.0966356 0)
(0.0060235 -0.0966356 0)
(0.00602348 -0.0966356 0)
(0.00602346 -0.0966356 0)
(0.00602344 -0.0966357 0)
(0.00602342 -0.0966357 0)
(0.0060234 -0.0966357 0)
(0.00602337 -0.0966357 0)
(0.00602334 -0.0966358 0)
(0.0060233 -0.0966358 0)
(0.00602327 -0.0966358 0)
(0.00602323 -0.0966358 0)
(0.00602319 -0.0966358 0)
(0.00602315 -0.0966358 0)
(0.00602312 -0.0966357 0)
(0.00602308 -0.0966357 0)
(0.00602304 -0.0966357 0)
(0.006023 -0.0966357 0)
(0.00602296 -0.0966357 0)
(0.00602292 -0.0966357 0)
(0.00602288 -0.0966358 0)
(0.00602283 -0.0966359 0)
(0.00602279 -0.0966361 0)
(0.00602274 -0.0966364 0)
(0.00602269 -0.0966368 0)
(0.00602264 -0.0966372 0)
(0.00602258 -0.0966377 0)
(0.00602253 -0.0966382 0)
(0.00602247 -0.0966387 0)
(0.00602241 -0.0966392 0)
(0.00602233 -0.0966396 0)
(0.00602224 -0.0966399 0)
(0.00602214 -0.0966402 0)
(0.00602203 -0.0966404 0)
(0.0060219 -0.0966405 0)
(0.00602177 -0.0966405 0)
(0.00602164 -0.0966405 0)
(0.00602151 -0.0966405 0)
(0.00602138 -0.0966404 0)
(0.0060213 -0.0966403 0)
(0.00602124 -0.0966401 0)
(0.0060212 -0.0966397 0)
(0.00602115 -0.0966393 0)
(0.00602109 -0.0966387 0)
(0.00602101 -0.0966382 0)
(0.00602085 -0.0966378 0)
(0.00602344 -0.0966364 0)
(0.00596822 -0.0962066 0)
(-0.00012749 0.000207513 0)
(-0.000127486 0.000207389 0)
(-0.000127476 0.000207097 0)
(-0.000127457 0.000206661 0)
(-0.000127428 0.000206148 0)
(-0.000127391 0.000205633 0)
(-0.000127352 0.000205175 0)
(-0.000127315 0.000204811 0)
(-0.000127284 0.000204551 0)
(-0.000127259 0.000204388 0)
(-0.000127241 0.000204301 0)
(-0.000127226 0.000204266 0)
(-0.000127213 0.000204259 0)
(-0.000127202 0.000204271 0)
(-0.000127184 0.00020431 0)
(-0.000127159 0.000204384 0)
(-0.000127127 0.00020449 0)
(-0.000127088 0.000204615 0)
(-0.000127045 0.000204734 0)
(-0.000127001 0.000204832 0)
(-0.000126957 0.000204896 0)
(-0.000126911 0.000204926 0)
(-0.000126865 0.00020492 0)
(-0.000126822 0.000204881 0)
(-0.000126779 0.000204814 0)
(-0.000126735 0.000204723 0)
(-0.000126691 0.000204616 0)
(-0.000126646 0.000204502 0)
(-0.000126602 0.000204391 0)
(-0.000126561 0.000204291 0)
(-0.000126524 0.000204207 0)
(-0.000126492 0.000204141 0)
(-0.000126465 0.000204092 0)
(-0.000126443 0.000204058 0)
(-0.000126425 0.000204038 0)
(-0.00012641 0.000204027 0)
(-0.000126398 0.000204023 0)
(-0.000126388 0.000204026 0)
(-0.00012638 0.000204031 0)
(-0.000126374 0.000204038 0)
(-0.000126369 0.000204046 0)
(-0.000126365 0.000204053 0)
(-0.000126362 0.00020406 0)
(-0.00012636 0.000204065 0)
(-0.000126358 0.00020407 0)
(-0.000126357 0.000204075 0)
(-0.000126356 0.000204078 0)
(-0.000126355 0.00020408 0)
(-0.000126355 0.000204082 0)
(-0.000126355 0.000204084 0)
(-0.000126354 0.000204085 0)
(-0.000126355 0.000204085 0)
(-0.000126355 0.000204086 0)
(-0.000126356 0.000204086 0)
(-0.000126356 0.000204087 0)
(-0.000126358 0.000204087 0)
(-0.000126359 0.000204087 0)
(-0.000126361 0.000204088 0)
(-0.000126364 0.000204089 0)
(-0.000126367 0.000204092 0)
(-0.000126372 0.000204095 0)
(-0.000126379 0.000204101 0)
(-0.000126388 0.00020411 0)
(-0.000126399 0.000204125 0)
(-0.000126414 0.000204146 0)
(-0.000126432 0.000204178 0)
(-0.000126454 0.000204222 0)
(-0.00012648 0.000204282 0)
(-0.000126511 0.000204359 0)
(-0.000126547 0.000204454 0)
(-0.000126587 0.000204565 0)
(-0.00012663 0.000204691 0)
(-0.000126675 0.000204822 0)
(-0.00012672 0.000204952 0)
(-0.000126763 0.000205069 0)
(-0.000126804 0.000205164 0)
(-0.000126843 0.000205231 0)
(-0.000126881 0.000205269 0)
(-0.000126922 0.000205275 0)
(-0.000126962 0.000205243 0)
(-0.000127001 0.000205174 0)
(-0.000127044 0.00020506 0)
(-0.000127084 0.000204919 0)
(-0.000127124 0.000204757 0)
(-0.000127156 0.000204616 0)
(-0.000127184 0.000204503 0)
(-0.000127202 0.00020444 0)
(-0.000127215 0.000204412 0)
(-0.000127224 0.000204408 0)
(-0.000127233 0.00020442 0)
(-0.000127246 0.00020447 0)
(-0.000127265 0.000204582 0)
(-0.000127292 0.000204789 0)
(-0.000127325 0.000205095 0)
(-0.000127361 0.000205504 0)
(-0.000127394 0.000205972 0)
(-0.000127421 0.000206453 0)
(-0.000127438 0.000206859 0)
(-0.000127447 0.000207136 0)
(-0.00012745 0.000207251 0)
(-0.0473507 0.0909023 0)
(-0.0476557 0.0931555 0)
(-0.0476755 0.0931797 0)
(-0.0476779 0.0931783 0)
(-0.0476795 0.0931784 0)
(-0.0476806 0.0931801 0)
(-0.0476819 0.0931837 0)
(-0.0476835 0.0931906 0)
(-0.0476854 0.0932026 0)
(-0.0476874 0.0932216 0)
(-0.0476894 0.0932495 0)
(-0.0476914 0.0932879 0)
(-0.0476933 0.0933374 0)
(-0.0476951 0.093398 0)
(-0.0476969 0.0934681 0)
(-0.0476985 0.0935457 0)
(-0.0477001 0.0936276 0)
(-0.0477017 0.0937106 0)
(-0.0477032 0.0937911 0)
(-0.0477048 0.0938665 0)
(-0.0477065 0.0939343 0)
(-0.0477083 0.0939931 0)
(-0.0477101 0.0940423 0)
(-0.047712 0.0940819 0)
(-0.0477137 0.0941123 0)
(-0.0477155 0.0941347 0)
(-0.0477173 0.0941502 0)
(-0.0477192 0.0941601 0)
(-0.0477211 0.0941657 0)
(-0.047723 0.0941685 0)
(-0.0477253 0.094169 0)
(-0.0477275 0.0941677 0)
(-0.0477299 0.094165 0)
(-0.0477326 0.0941612 0)
(-0.0477355 0.0941567 0)
(-0.0477384 0.0941519 0)
(-0.0477412 0.0941474 0)
(-0.0477439 0.0941435 0)
(-0.0477462 0.0941405 0)
(-0.0477481 0.0941383 0)
(-0.0477498 0.094137 0)
(-0.0477512 0.0941365 0)
(-0.0477524 0.0941365 0)
(-0.0477534 0.0941368 0)
(-0.0477543 0.0941372 0)
(-0.0477552 0.0941377 0)
(-0.0477561 0.094138 0)
(-0.047757 0.094138 0)
(-0.0477581 0.0941375 0)
(-0.0477593 0.0941364 0)
(-0.0477606 0.0941346 0)
(-0.0477621 0.0941321 0)
(-0.0477638 0.0941287 0)
(-0.0477659 0.0941245 0)
(-0.0477683 0.0941195 0)
(-0.047771 0.0941138 0)
(-0.0477741 0.0941074 0)
(-0.0477775 0.0941007 0)
(-0.0477812 0.0940937 0)
(-0.0477851 0.0940866 0)
(-0.0477892 0.0940796 0)
(-0.0477934 0.0940728 0)
(-0.0477976 0.0940663 0)
(-0.0478017 0.0940602 0)
(-0.0478058 0.0940545 0)
(-0.0478099 0.0940491 0)
(-0.0478134 0.0940435 0)
(-0.0478173 0.0940382 0)
(-0.0478206 0.0940323 0)
(-0.0478234 0.0940255 0)
(-0.0478237 0.0940168 0)
(-0.0478251 0.0940057 0)
(-0.0478263 0.093991 0)
(-0.0478275 0.0939717 0)
(-0.0478287 0.0939465 0)
(-0.0478298 0.0939141 0)
(-0.0478308 0.0938733 0)
(-0.0478315 0.0938229 0)
(-0.0478317 0.0937624 0)
(-0.0478314 0.0936914 0)
(-0.0478304 0.0936107 0)
(-0.0478285 0.0935214 0)
(-0.0478258 0.0934256 0)
(-0.0478221 0.0933259 0)
(-0.0478175 0.0932257 0)
(-0.0478121 0.0931282 0)
(-0.0478063 0.0930367 0)
(-0.0478002 0.0929539 0)
(-0.0477943 0.092882 0)
(-0.0477889 0.092822 0)
(-0.0477842 0.0927741 0)
(-0.0477803 0.0927376 0)
(-0.0477772 0.0927109 0)
(-0.0477747 0.0926922 0)
(-0.0477727 0.0926796 0)
(-0.0477694 0.0926716 0)
(-0.04777 0.0926649 0)
(-0.0477771 0.0926595 0)
(-0.0477421 0.0925836 0)
(-0.0473555 0.0887655 0)
(-0.0405999 1.17969 0)
(-0.0405964 1.1795 0)
(-0.0405953 1.17926 0)
(-0.0405924 1.17888 0)
(-0.0405864 1.17842 0)
(-0.0405763 1.17794 0)
(-0.0405624 1.17748 0)
(-0.0405461 1.1771 0)
(-0.0405294 1.17679 0)
(-0.0405142 1.17657 0)
(-0.0405017 1.17643 0)
(-0.0404925 1.17635 0)
(-0.0404868 1.17632 0)
(-0.0404835 1.17631 0)
(-0.0404791 1.17631 0)
(-0.040475 1.17632 0)
(-0.0404681 1.17636 0)
(-0.0404579 1.17643 0)
(-0.0404448 1.17653 0)
(-0.0404299 1.17667 0)
(-0.0404146 1.17683 0)
(-0.0404004 1.17699 0)
(-0.0403879 1.17715 0)
(-0.0403775 1.1773 0)
(-0.0403691 1.17743 0)
(-0.0403626 1.17754 0)
(-0.0403579 1.17762 0)
(-0.0403547 1.17769 0)
(-0.0403526 1.17773 0)
(-0.0403514 1.17776 0)
(-0.0403507 1.17778 0)
(-0.0403504 1.17778 0)
(-0.0403502 1.17779 0)
(-0.04035 1.17779 0)
(-0.04035 1.17779 0)
(-0.0403498 1.17778 0)
(-0.0403496 1.17778 0)
(-0.0403494 1.17778 0)
(-0.0403491 1.17777 0)
(-0.0403489 1.17776 0)
(-0.0403486 1.17776 0)
(-0.0403484 1.17775 0)
(-0.0403482 1.17775 0)
(-0.0403479 1.17774 0)
(-0.0403477 1.17774 0)
(-0.0403474 1.17774 0)
(-0.0403472 1.17774 0)
(-0.0403469 1.17774 0)
(-0.0403466 1.17773 0)
(-0.040347 1.17773 0)
(-0.0403472 1.17773 0)
(-0.0403477 1.17773 0)
(-0.0403483 1.17773 0)
(-0.0403489 1.17773 0)
(-0.0403497 1.17772 0)
(-0.0403505 1.17772 0)
(-0.0403515 1.17771 0)
(-0.0403526 1.17771 0)
(-0.0403539 1.1777 0)
(-0.0403553 1.17769 0)
(-0.0403569 1.17769 0)
(-0.0403583 1.17768 0)
(-0.0403609 1.17767 0)
(-0.0403645 1.17766 0)
(-0.040366 1.17765 0)
(-0.0403699 1.17764 0)
(-0.040369 1.17762 0)
(-0.0403711 1.1776 0)
(-0.0403729 1.17757 0)
(-0.0403751 1.17753 0)
(-0.0403779 1.17747 0)
(-0.0403815 1.17739 0)
(-0.0403861 1.1773 0)
(-0.0403919 1.17718 0)
(-0.0403991 1.17705 0)
(-0.0404078 1.1769 0)
(-0.040418 1.17674 0)
(-0.0404296 1.17657 0)
(-0.0404423 1.17641 0)
(-0.0404558 1.17626 0)
(-0.0404697 1.17612 0)
(-0.0404831 1.17602 0)
(-0.0404949 1.17594 0)
(-0.0405044 1.17589 0)
(-0.0405111 1.17587 0)
(-0.0405153 1.17587 0)
(-0.0405198 1.17587 0)
(-0.0405257 1.17588 0)
(-0.0405339 1.17592 0)
(-0.0405441 1.17599 0)
(-0.0405562 1.1761 0)
(-0.0405696 1.17625 0)
(-0.040584 1.17643 0)
(-0.0405995 1.17664 0)
(-0.0406156 1.17686 0)
(-0.0406302 1.17709 0)
(-0.0406399 1.17731 0)
(-0.0406445 1.17749 0)
(-0.0406467 1.17762 0)
(-0.0406515 1.17778 0)
(-0.0840573 3.17408 0)
(-0.0843882 3.17448 0)
(-0.0843881 3.17447 0)
(-0.0843882 3.17445 0)
(-0.0843879 3.17439 0)
(-0.0843869 3.17431 0)
(-0.0843841 3.17418 0)
(-0.0843798 3.17405 0)
(-0.084373 3.1739 0)
(-0.0843664 3.17378 0)
(-0.084359 3.17368 0)
(-0.0843535 3.17361 0)
(-0.0843488 3.17357 0)
(-0.0843462 3.17355 0)
(-0.0843449 3.17354 0)
(-0.0843434 3.17354 0)
(-0.0843419 3.17355 0)
(-0.0843393 3.17357 0)
(-0.0843357 3.17361 0)
(-0.0843309 3.17367 0)
(-0.0843257 3.17373 0)
(-0.0843208 3.1738 0)
(-0.0843168 3.17386 0)
(-0.0843133 3.17393 0)
(-0.0843101 3.17398 0)
(-0.0843069 3.17403 0)
(-0.0843038 3.17408 0)