/*--------------------------------*- C++ -*----------------------------------*\
| =========                 |                                                 |
| \\      /  F ield         | OpenFOAM: The Open Source CFD Toolbox           |
|  \\    /   O peration     | Version:  2406                                  |
|   \\  /    A nd           | Website:  www.openfoam.com                      |
|    \\/     M anipulation  |                                                 |
\*---------------------------------------------------------------------------*/
FoamFile
{
    version     2.0;
    format      ascii;
    arch        "LSB;label=32;scalar=64";
    class       volScalarField;
    location    "0.075";
    object      Ma;
}
// * * * * * * * * * * * * * * * * * * * * * * * * * * * * * * * * * * * * * //

dimensions      [0 0 0 0 0 0 0];

internalField   nonuniform List<scalar> 
83682
(
1.132
1.132
1.132
1.132
1.132
1.132
1.132
1.132
1.132
1.132
1.132
1.132
1.132
1.132
1.132
1.132
1.132
1.132
1.132
1.132
1.132
1.132
1.132
1.132
1.132
1.132
1.132
1.132
1.132
1.132
1.132
1.132
1.132
1.132
1.132
1.132
1.132
1.132
1.13196
1.13074
1.10733
1.03498
1.01901
1.01881
1.01879
1.01878
1.0188
1.01886
1.01898
1.01904
1.01907
1.01907
1.01904
1.01897
1.01891
1.01892
1.01895
1.01899
1.01904
1.0191
1.01918
1.01922
1.01923
1.01922
1.0192
1.01915
1.01909
1.01905
1.01905
1.01906
1.01908
1.01911
1.01917
1.0192
1.01919
1.01917
1.01914
1.0191
1.01903
1.01898
1.01897
1.01897
1.01898
1.019
1.01904
1.01907
1.01907
1.01908
1.01908
1.01908
1.01906
1.01904
1.01905
1.01905
1.01906
1.01908
1.01911
1.01914
1.01915
1.01916
1.01915
1.01914
1.01911
1.01909
1.01907
1.01906
1.01906
1.01907
1.01909
1.0191
1.01911
1.01911
1.0191
1.01909
1.01908
1.01908
1.01907
1.01908
1.01908
1.01908
1.01908
1.01908
1.01908
1.01907
1.01907
1.01907
1.01907
1.01907
1.01908
1.01908
1.01907
1.01907
1.01906
1.01906
1.01906
1.01906
1.01907
1.01908
1.01909
1.0191
1.01911
1.01911
1.01911
1.01911
1.01911
1.01911
1.0191
1.01909
1.01909
1.01908
1.01908
1.01908
1.01909
1.01909
1.01909
1.01909
1.01908
1.01907
1.01906
1.01905
1.01905
1.01905
1.01906
1.01908
1.0191
1.0191
1.01908
1.01903
1.01901
1.01904
1.01922
1.01968
1.02052
1.0217
1.02313
1.02468
1.02628
1.02787
1.02941
1.03087
1.03212
1.03306
1.03363
1.0339
1.034
1.03402
1.03399
1.03394
1.03386
1.03376
1.03367
1.03358
1.03352
1.03347
1.03343
1.03335
1.03317
1.03275
1.03187
1.0304
1.0286
1.02705
1.02597
1.02522
1.02462
1.02408
1.02358
1.02313
1.02273
1.02239
1.0221
1.02187
1.02168
1.02153
1.02142
1.02133
1.02127
1.02122
1.02117
1.02113
1.02109
1.02105
1.02101
1.02096
1.02091
1.02086
1.0208
1.02075
1.02069
1.02064
1.02059
1.02055
1.02052
1.0205
1.0205
1.02049
1.02048
1.02048
1.02047
1.02047
1.02046
1.02045
1.02045
1.02045
1.02044
1.02043
1.02041
1.0204
1.02038
1.02035
1.02033
1.02031
1.02029
1.02027
1.02026
1.02025
1.02025
1.02025
1.02026
1.02025
1.02025
1.02024
1.02023
1.02023
1.02022
1.02021
1.0202
1.02019
1.02018
1.02017
1.02015
1.02013
1.02011
1.02009
1.02008
1.02006
1.02005
1.02003
1.02002
1.02001
1.02
1.01999
1.01998
1.01997
1.01996
1.01995
1.01994
1.01992
1.01991
1.0199
1.01988
1.01987
1.01986
1.01985
1.01984
1.01984
1.01983
1.01982
1.01982
1.01981
1.01981
1.01981
1.01981
1.0198
1.0198
1.01979
1.01979
1.0198
1.0198
1.01981
1.0198
1.0198
1.01978
1.01977
1.01975
1.01974
1.01972
1.01972
1.01971
1.0197
1.01969
1.01968
1.01967
1.01967
1.01967
1.01967
1.01967
1.01967
1.01966
1.01965
1.01965
1.01964
1.01964
1.01964
1.01963
1.01962
1.01961
1.0196
1.01959
1.01958
1.01958
1.01958
1.01959
1.0196
1.01961
1.01962
1.01962
1.01962
1.01962
1.01963
1.01963
1.01964
1.01965
1.01965
1.01965
1.01965
1.01964
1.01964
1.01964
1.01964
1.01963
1.01962
1.01962
1.01961
1.0196
1.01959
1.01959
1.01959
1.01958
1.01958
1.01958
1.01958
1.01958
1.01958
1.01958
1.01958
1.01957
1.01957
1.01956
1.01954
1.01954
1.01952
1.01951
1.0195
1.01949
1.01949
1.01948
1.01946
1.01945
1.01944
1.01943
1.01942
1.01942
1.01942
1.01941
1.01941
1.0194
1.0194
1.01939
1.01939
1.01939
1.01941
1.01942
1.01943
1.01942
1.01942
1.01942
1.01941
1.01941
1.01942
1.01943
1.01943
1.01942
1.01941
1.01941
1.0194
1.0194
1.0194
1.01941
1.0194
1.0194
1.01939
1.01939
1.01939
1.01938
1.01938
1.01938
1.01937
1.01936
1.01935
1.01935
1.01934
1.01933
1.01933
1.01933
1.01934
1.01934
1.01934
1.01933
1.01933
1.01933
1.01933
1.01933
1.01933
1.01933
1.01932
1.01931
1.0193
1.01929
1.01928
1.01928
1.01928
1.01928
1.01927
1.01927
1.01927
1.01927
1.01927
1.01927
1.01928
1.01929
1.0193
1.0193
1.0193
1.01931
1.01931
1.0193
1.0193
1.01929
1.01929
1.01927
1.01926
1.01924
1.01923
1.01922
1.01921
1.01921
1.0192
1.01919
1.01918
1.01917
1.01916
1.01916
1.01915
1.01915
1.01915
1.01915
1.01913
1.01912
1.01911
1.01911
1.01911
1.01912
1.01913
1.01913
1.01912
1.0191
1.01909
1.01909
1.01909
1.01909
1.0191
1.01911
1.01911
1.0191
1.01911
1.01911
1.01912
1.01912
1.01913
1.01914
1.01915
1.01915
1.01916
1.01916
1.01916
1.01915
1.01915
1.01916
1.01916
1.01916
1.01915
1.01915
1.01915
1.01916
1.01915
1.01916
1.01917
1.01917
1.01916
1.01915
1.01913
1.01909
1.01904
1.01896
1.01885
1.01868
1.01844
1.01808
1.01759
1.0169
1.01595
1.01465
1.01289
1.0105
1.00733
1.00319
0.997871
0.991104
0.982646
0.972228
0.959633
0.944717
0.927399
0.907767
0.886145
0.863106
0.839537
0.816726
0.796535
0.781031
0.770898
0.766557
0.76623
0.766189
0.766092
0.765961
0.765879
0.765879
0.765924
0.766024
0.766169
0.766348
0.766559
0.766729
0.766763
0.766751
0.766705
0.766622
0.766525
0.766446
0.766419
0.766423
0.766451
0.766506
0.766564
0.766582
0.766578
0.766556
0.766504
0.766438
0.766403
0.766401
0.76641
0.76644
0.766491
0.766541
0.766557
0.766555
0.766543
0.766514
0.766472
0.766438
0.766428
0.76643
0.766443
0.766472
0.76651
0.766532
0.766536
0.766535
0.766526
0.766506
0.766485
0.766477
0.766478
0.766483
0.766497
0.766517
0.766529
0.766531
0.766529
0.766522
0.766508
0.766494
0.76649
0.766493
0.766501
0.766517
0.76654
0.766563
0.766579
0.766584
0.76658
0.766571
0.766558
0.766541
0.766532
0.766569
0.76669
0.767045
0.768328
0.770639
0.773774
0.777335
0.781092
0.784969
0.788925
0.792943
0.797015
0.801132
0.805284
0.809463
0.813662
0.817878
0.822104
0.826344
0.8306
0.834873
0.839162
0.843472
0.847805
0.852157
0.856523
0.860901
0.865293
0.869692
0.874098
0.878507
0.882926
0.887357
0.891797
0.896243
0.900696
0.905172
0.909655
0.91415
0.918634
0.923139
0.927648
0.932168
0.936675
0.941191
0.945724
0.950265
0.954804
0.959339
0.963874
0.968409
0.972906
0.977386
0.981789
0.98624
0.991125
1.00025
1.132
1.132
1.132
1.132
1.132
1.132
1.132
1.132
1.132
1.132
1.132
1.132
1.132
1.132
1.132
1.132
1.132
1.132
1.132
1.132
1.132
1.132
1.132
1.132
1.132
1.132
1.132
1.132
1.132
1.132
1.132
1.132
1.132
1.132
1.132
1.132
1.132
1.132
1.13196
1.13074
1.10733
1.03498
1.01901
1.01881
1.01879
1.01878
1.0188
1.01886
1.01898
1.01904
1.01907
1.01907
1.01904
1.01897
1.01891
1.01892
1.01895
1.01899
1.01904
1.0191
1.01918
1.01922
1.01923
1.01922
1.0192
1.01915
1.01909
1.01905
1.01905
1.01906
1.01908
1.01911
1.01917
1.0192
1.01919
1.01917
1.01914
1.0191
1.01903
1.01898
1.01897
1.01897
1.01898
1.019
1.01904
1.01907
1.01907
1.01908
1.01908
1.01908
1.01906
1.01904
1.01905
1.01905
1.01906
1.01908
1.01911
1.01914
1.01915
1.01916
1.01915
1.01914
1.01911
1.01909
1.01907
1.01906
1.01906
1.01907
1.01909
1.0191
1.01911
1.01911
1.0191
1.01909
1.01908
1.01908
1.01907
1.01908
1.01908
1.01908
1.01908
1.01908
1.01908
1.01907
1.01907
1.01907
1.01907
1.01907
1.01908
1.01908
1.01907
1.01907
1.01906
1.01906
1.01906
1.01906
1.01907
1.01908
1.01909
1.0191
1.01911
1.01911
1.01911
1.01911
1.01911
1.01911
1.0191
1.01909
1.01909
1.01908
1.01908
1.01908
1.01909
1.01909
1.01909
1.01909
1.01908
1.01907
1.01906
1.01905
1.01905
1.01905
1.01906
1.01908
1.0191
1.0191
1.01908
1.01903
1.01901
1.01904
1.01922
1.01968
1.02052
1.0217
1.02313
1.02468
1.02628
1.02787
1.02941
1.03088
1.03212
1.03305
1.03362
1.0339
1.03401
1.03404
1.034
1.03394
1.03386
1.03376
1.03367
1.03358
1.03352
1.03347
1.03343
1.03335
1.03317
1.03275
1.03187
1.0304
1.0286
1.02705
1.02597
1.02522
1.02462
1.02408
1.02358
1.02313
1.02273
1.02239
1.0221
1.02187
1.02168
1.02153
1.02142
1.02133
1.02127
1.02121
1.02117
1.02113
1.02109
1.02105
1.02101
1.02096
1.02091
1.02086
1.0208
1.02075
1.02069
1.02064
1.02059
1.02055
1.02052
1.0205
1.0205
1.02049
1.02048
1.02048
1.02047
1.02047
1.02046
1.02045
1.02045
1.02045
1.02044
1.02043
1.02041
1.0204
1.02038
1.02035
1.02033
1.02031
1.02029
1.02027
1.02026
1.02025
1.02025
1.02025
1.02026
1.02025
1.02025
1.02024
1.02023
1.02023
1.02022
1.02021
1.0202
1.02019
1.02018
1.02017
1.02015
1.02013
1.02011
1.02009
1.02008
1.02006
1.02005
1.02003
1.02002
1.02001
1.02
1.01999
1.01998
1.01997
1.01996
1.01995
1.01994
1.01992
1.01991
1.0199
1.01988
1.01987
1.01986
1.01985
1.01984
1.01984
1.01983
1.01982
1.01982
1.01981
1.01981
1.01981
1.01981
1.0198
1.0198
1.01979
1.01979
1.0198
1.0198
1.01981
1.0198
1.0198
1.01978
1.01977
1.01975
1.01974
1.01972
1.01972
1.01971
1.0197
1.01969
1.01968
1.01967
1.01967
1.01967
1.01967
1.01967
1.01967
1.01966
1.01965
1.01965
1.01964
1.01964
1.01964
1.01963
1.01962
1.01961
1.0196
1.01959
1.01958
1.01958
1.01958
1.01959
1.0196
1.01961
1.01962
1.01962
1.01962
1.01962
1.01963
1.01963
1.01964
1.01965
1.01965
1.01965
1.01965
1.01964
1.01964
1.01964
1.01964
1.01963
1.01962
1.01962
1.01961
1.0196
1.01959
1.01959
1.01959
1.01958
1.01958
1.01958
1.01958
1.01958
1.01958
1.01958
1.01958
1.01957
1.01957
1.01956
1.01954
1.01954
1.01952
1.01951
1.0195
1.01949
1.01949
1.01948
1.01946
1.01945
1.01944
1.01943
1.01942
1.01942
1.01942
1.01941
1.01941
1.0194
1.0194
1.01939
1.01939
1.01939
1.01941
1.01942
1.01943
1.01942
1.01942
1.01942
1.01941
1.01941
1.01942
1.01943
1.01943
1.01942
1.01941
1.01941
1.0194
1.0194
1.0194
1.01941
1.0194
1.0194
1.01939
1.01939
1.01939
1.01938
1.01938
1.01938
1.01937
1.01936
1.01935
1.01935
1.01934
1.01933
1.01933
1.01933
1.01934
1.01934
1.01934
1.01933
1.01933
1.01933
1.01933
1.01933
1.01933
1.01933
1.01932
1.01931
1.0193
1.01929
1.01928
1.01928
1.01928
1.01928
1.01927
1.01927
1.01927
1.01927
1.01927
1.01927
1.01928
1.01929
1.0193
1.0193
1.0193
1.01931
1.01931
1.0193
1.0193
1.01929
1.01929
1.01927
1.01926
1.01924
1.01923
1.01922
1.01921
1.01921
1.0192
1.01919
1.01918
1.01917
1.01916
1.01916
1.01915
1.01915
1.01915
1.01915
1.01913
1.01912
1.01911
1.01911
1.01911
1.01912
1.01913
1.01913
1.01912
1.0191
1.01909
1.01909
1.01909
1.01909
1.0191
1.01911
1.01911
1.0191
1.01911
1.01911
1.01912
1.01912
1.01913
1.01914
1.01915
1.01915
1.01916
1.01916
1.01916
1.01915
1.01915
1.01916
1.01916
1.01916
1.01915
1.01915
1.01915
1.01915
1.01915
1.01916
1.01917
1.01917
1.01916
1.01915
1.01913
1.01909
1.01904
1.01896
1.01885
1.01869
1.01844
1.01809
1.01761
1.01692
1.01599
1.0147
1.01296
1.01059
1.00746
1.00337
0.998102
0.9914
0.983016
0.972678
0.960168
0.94533
0.928077
0.908489
0.886879
0.863813
0.840169
0.817227
0.796876
0.781233
0.77102
0.76662
0.766251
0.766201
0.7661
0.765967
0.765882
0.765881
0.765925
0.766024
0.766169
0.766347
0.766558
0.766728
0.766762
0.76675
0.766705
0.766622
0.766525
0.766446
0.766419
0.766424
0.766451
0.766506
0.766563
0.766582
0.766578
0.766555
0.766504
0.766438
0.766403
0.7664
0.76641
0.76644
0.76649
0.76654
0.766556
0.766555
0.766543
0.766514
0.766471
0.766437
0.766427
0.76643
0.766443
0.766472
0.76651
0.766532
0.766536
0.766534
0.766525
0.766506
0.766484
0.766477
0.766477
0.766483
0.766496
0.766516
0.766528
0.76653
0.766529
0.766522
0.766508
0.766494
0.766491
0.766494
0.766502
0.766518
0.766541
0.766564
0.766581
0.766585
0.766581
0.766572
0.766558
0.766542
0.766532
0.766568
0.766689
0.767044
0.768326
0.770638
0.773772
0.777334
0.781091
0.784967
0.788923
0.792942
0.797013
0.801131
0.805283
0.809462
0.813661
0.817877
0.822104
0.826344
0.830599
0.834873
0.839162
0.843472
0.847805
0.852157
0.856523
0.860901
0.865292
0.869692
0.874098
0.878507
0.882925
0.887356
0.891797
0.896243
0.900696
0.905171
0.909655
0.91415
0.918633
0.923138
0.927647
0.932169
0.936674
0.941189
0.945722
0.950265
0.954804
0.959338
0.963873
0.968408
0.972906
0.977386
0.981789
0.986242
0.991131
1.00025
1.132
1.132
1.132
1.132
1.132
1.132
1.132
1.132
1.132
1.132
1.132
1.132
1.132
1.132
1.132
1.132
1.132
1.132
1.132
1.132
1.132
1.132
1.132
1.132
1.132
1.132
1.132
1.132
1.132
1.132
1.132
1.132
1.132
1.132
1.132
1.132
1.132
1.132
1.13196
1.13074
1.10733
1.03498
1.01901
1.01881
1.01879
1.01878
1.0188
1.01886
1.01898
1.01904
1.01907
1.01907
1.01904
1.01897
1.01891
1.01892
1.01895
1.01899
1.01904
1.0191
1.01918
1.01922
1.01923
1.01922
1.0192
1.01915
1.01909
1.01905
1.01905
1.01906
1.01908
1.01911
1.01917
1.0192
1.01919
1.01917
1.01914
1.0191
1.01903
1.01898
1.01897
1.01897
1.01898
1.019
1.01904
1.01907
1.01907
1.01908
1.01908
1.01908
1.01906
1.01904
1.01905
1.01905
1.01906
1.01908
1.01911
1.01914
1.01915
1.01916
1.01915
1.01914
1.01911
1.01909
1.01907
1.01906
1.01906
1.01907
1.01909
1.0191
1.01911
1.01911
1.0191
1.01909
1.01908
1.01908
1.01907
1.01908
1.01908
1.01908
1.01908
1.01908
1.01908
1.01907
1.01907
1.01907
1.01907
1.01907
1.01908
1.01908
1.01907
1.01907
1.01906
1.01906
1.01906
1.01906
1.01907
1.01908
1.01909
1.0191
1.01911
1.01911
1.01911
1.01911
1.01911
1.01911
1.0191
1.01909
1.01909
1.01908
1.01908
1.01908
1.01909
1.01909
1.01909
1.01909
1.01908
1.01907
1.01906
1.01905
1.01905
1.01905
1.01906
1.01908
1.0191
1.0191
1.01908
1.01903
1.01901
1.01904
1.01922
1.01968
1.02052
1.0217
1.02313
1.02468
1.02628
1.02787
1.02941
1.03088
1.03212
1.03304
1.03361
1.0339
1.03402
1.03404
1.03401
1.03394
1.03386
1.03376
1.03367
1.03358
1.03352
1.03347
1.03343
1.03335
1.03317
1.03275
1.03187
1.03039
1.0286
1.02705
1.02597
1.02522
1.02462
1.02408
1.02358
1.02313
1.02273
1.02239
1.0221
1.02187
1.02168
1.02153
1.02142
1.02133
1.02127
1.02121
1.02117
1.02113
1.02109
1.02105
1.02101
1.02096
1.02091
1.02086
1.0208
1.02075
1.02069
1.02064
1.02059
1.02055
1.02052
1.0205
1.0205
1.02049
1.02048
1.02048
1.02047
1.02047
1.02046
1.02045
1.02045
1.02045
1.02044
1.02043
1.02041
1.0204
1.02038
1.02035
1.02033
1.02031
1.02029
1.02027
1.02026
1.02025
1.02025
1.02025
1.02026
1.02025
1.02025
1.02024
1.02023
1.02023
1.02022
1.02021
1.0202
1.02019
1.02018
1.02017
1.02015
1.02013
1.02011
1.02009
1.02008
1.02006
1.02005
1.02003
1.02002
1.02001
1.02
1.01999
1.01998
1.01997
1.01996
1.01995
1.01994
1.01992
1.01991
1.0199
1.01988
1.01987
1.01986
1.01985
1.01984
1.01984
1.01983
1.01982
1.01982
1.01981
1.01981
1.01981
1.01981
1.0198
1.0198
1.01979
1.01979
1.0198
1.0198
1.01981
1.0198
1.0198
1.01978
1.01977
1.01975
1.01974
1.01972
1.01972
1.01971
1.0197
1.01969
1.01968
1.01967
1.01967
1.01967
1.01967
1.01967
1.01967
1.01966
1.01965
1.01965
1.01964
1.01964
1.01964
1.01963
1.01962
1.01961
1.0196
1.01959
1.01958
1.01958
1.01958
1.01959
1.0196
1.01961
1.01962
1.01962
1.01962
1.01962
1.01963
1.01963
1.01964
1.01965
1.01965
1.01965
1.01965
1.01964
1.01964
1.01964
1.01964
1.01963
1.01962
1.01962
1.01961
1.0196
1.0196
1.01959
1.01959
1.01958
1.01958
1.01958
1.01958
1.01958
1.01958
1.01958
1.01958
1.01957
1.01957
1.01956
1.01955
1.01954
1.01952
1.01951
1.0195
1.01949
1.01949
1.01948
1.01946
1.01945
1.01944
1.01943
1.01942
1.01942
1.01942
1.01941
1.01941
1.0194
1.0194
1.01939
1.01939
1.01939
1.01941
1.01942
1.01943
1.01942
1.01942
1.01942
1.01941
1.01941
1.01942
1.01943
1.01943
1.01942
1.01941
1.01941
1.0194
1.0194
1.0194
1.01941
1.0194
1.0194
1.01939
1.01939
1.01939
1.01938
1.01938
1.01938
1.01937
1.01936
1.01935
1.01935
1.01934
1.01933
1.01933
1.01933
1.01934
1.01934
1.01934
1.01933
1.01933
1.01933
1.01933
1.01933
1.01933
1.01933
1.01932
1.01931
1.0193
1.01929
1.01928
1.01928
1.01928
1.01928
1.01927
1.01927
1.01927
1.01927
1.01927
1.01927
1.01928
1.01929
1.0193
1.0193
1.0193
1.01931
1.01931
1.0193
1.0193
1.01929
1.01929
1.01927
1.01926
1.01924
1.01923
1.01922
1.01921
1.01921
1.0192
1.01919
1.01918
1.01917
1.01916
1.01916
1.01915
1.01915
1.01915
1.01915
1.01913
1.01912
1.01911
1.01911
1.01911
1.01912
1.01913
1.01913
1.01912
1.0191
1.01909
1.01909
1.01909
1.01909
1.0191
1.01911
1.01911
1.0191
1.01911
1.01911
1.01912
1.01912
1.01913
1.01914
1.01915
1.01915
1.01916
1.01916
1.01916
1.01915
1.01915
1.01916
1.01916
1.01916
1.01915
1.01915
1.01915
1.01915
1.01915
1.01916
1.01917
1.01917
1.01916
1.01915
1.01913
1.0191
1.01904
1.01896
1.01886
1.01869
1.01844
1.01809
1.01762
1.01694
1.01602
1.01475
1.01303
1.01069
1.00761
1.00357
0.998369
0.991744
0.983445
0.973195
0.960771
0.946
0.928782
0.90919
0.887524
0.86436
0.840596
0.817519
0.79703
0.78129
0.771052
0.766657
0.766276
0.76622
0.766116
0.76598
0.765891
0.765886
0.765927
0.766025
0.766169
0.766347
0.766558
0.766726
0.766759
0.766747
0.766702
0.76662
0.766524
0.766446
0.766419
0.766424
0.766451
0.766506
0.766563
0.766581
0.766577
0.766554
0.766503
0.766437
0.766403
0.7664
0.766409
0.766439
0.76649
0.76654
0.766556
0.766555
0.766542
0.766513
0.766471
0.766437
0.766427
0.76643
0.766442
0.766472
0.76651
0.766532
0.766536
0.766534
0.766525
0.766505
0.766484
0.766476
0.766476
0.766482
0.766495
0.766515
0.766527
0.766529
0.766528
0.766521
0.766508
0.766495
0.766492
0.766495
0.766504
0.76652
0.766544
0.766567
0.766584
0.766589
0.766584
0.766575
0.766561
0.766543
0.766533
0.766569
0.766689
0.767043
0.768325
0.770636
0.773771
0.777332
0.78109
0.784966
0.788923
0.792942
0.797013
0.801131
0.805283
0.809462
0.813662
0.817878
0.822104
0.826344
0.8306
0.834874
0.839162
0.843472
0.847805
0.852157
0.856523
0.860901
0.865292
0.869692
0.874099
0.878507
0.882926
0.887356
0.891797
0.896243
0.900696
0.90517
0.909655
0.914151
0.918633
0.923137
0.927647
0.932171
0.936675
0.941189
0.945722
0.950266
0.954805
0.959338
0.963873
0.968408
0.972906
0.977386
0.981789
0.986246
0.991142
1.00024
1.132
1.132
1.132
1.132
1.132
1.132
1.132
1.132
1.132
1.132
1.132
1.132
1.132
1.132
1.132
1.132
1.132
1.132
1.132
1.132
1.132
1.132
1.132
1.132
1.132
1.132
1.132
1.132
1.132
1.132
1.132
1.132
1.132
1.132
1.132
1.132
1.132
1.132
1.13196
1.13074
1.10733
1.03498
1.01901
1.01881
1.01879
1.01878
1.0188
1.01886
1.01898
1.01904
1.01907
1.01907
1.01904
1.01897
1.01891
1.01892
1.01895
1.01899
1.01904
1.0191
1.01918
1.01922
1.01923
1.01922
1.0192
1.01915
1.01909
1.01905
1.01905
1.01906
1.01908
1.01911
1.01917
1.0192
1.01919
1.01917
1.01914
1.0191
1.01903
1.01898
1.01897
1.01897
1.01898
1.019
1.01904
1.01907
1.01907
1.01908
1.01908
1.01908
1.01906
1.01904
1.01905
1.01905
1.01906
1.01908
1.01911
1.01914
1.01915
1.01916
1.01915
1.01914
1.01911
1.01909
1.01907
1.01906
1.01906
1.01907
1.01909
1.0191
1.01911
1.01911
1.0191
1.01909
1.01908
1.01908
1.01907
1.01908
1.01908
1.01908
1.01908
1.01908
1.01908
1.01907
1.01907
1.01907
1.01907
1.01907
1.01908
1.01908
1.01907
1.01907
1.01906
1.01906
1.01906
1.01906
1.01907
1.01908
1.01909
1.0191
1.01911
1.01911
1.01911
1.01911
1.01911
1.01911
1.0191
1.01909
1.01909
1.01908
1.01908
1.01908
1.01909
1.01909
1.01909
1.01909
1.01908
1.01907
1.01906
1.01905
1.01905
1.01905
1.01906
1.01908
1.0191
1.0191
1.01908
1.01903
1.01901
1.01904
1.01922
1.01968
1.02052
1.0217
1.02313
1.02468
1.02628
1.02787
1.02941
1.03089
1.03212
1.03304
1.0336
1.03389
1.03402
1.03405
1.03402
1.03395
1.03385
1.03376
1.03367
1.03358
1.03351
1.03347
1.03343
1.03335
1.03317
1.03275
1.03187
1.03039
1.0286
1.02705
1.02597
1.02522
1.02462
1.02408
1.02358
1.02313
1.02273
1.02239
1.0221
1.02187
1.02168
1.02153
1.02142
1.02133
1.02127
1.02121
1.02117
1.02113
1.02109
1.02105
1.02101
1.02096
1.02091
1.02086
1.0208
1.02075
1.02069
1.02064
1.02059
1.02055
1.02052
1.0205
1.0205
1.02049
1.02048
1.02048
1.02047
1.02047
1.02046
1.02045
1.02045
1.02045
1.02044
1.02043
1.02041
1.0204
1.02038
1.02035
1.02033
1.02031
1.02029
1.02027
1.02026
1.02025
1.02025
1.02025
1.02026
1.02025
1.02025
1.02024
1.02023
1.02023
1.02022
1.02021
1.0202
1.02019
1.02018
1.02017
1.02015
1.02013
1.02011
1.02009
1.02008
1.02006
1.02005
1.02003
1.02002
1.02001
1.02
1.01999
1.01998
1.01997
1.01996
1.01995
1.01994
1.01992
1.01991
1.0199
1.01988
1.01987
1.01986
1.01985
1.01984
1.01984
1.01983
1.01982
1.01982
1.01981
1.01981
1.01981
1.01981
1.0198
1.0198
1.01979
1.01979
1.0198
1.0198
1.01981
1.0198
1.0198
1.01978
1.01977
1.01975
1.01974
1.01972
1.01972
1.01971
1.0197
1.01969
1.01968
1.01967
1.01967
1.01967
1.01967
1.01967
1.01967
1.01966
1.01965
1.01965
1.01964
1.01964
1.01964
1.01963
1.01962
1.01961
1.0196
1.01959
1.01958
1.01958
1.01958
1.01959
1.0196
1.01961
1.01962
1.01962
1.01962
1.01962
1.01963
1.01964
1.01964
1.01965
1.01965
1.01965
1.01965
1.01964
1.01964
1.01964
1.01964
1.01963
1.01962
1.01962
1.01961
1.0196
1.0196
1.01959
1.01959
1.01958
1.01958
1.01958
1.01958
1.01958
1.01958
1.01958
1.01958
1.01957
1.01957
1.01956
1.01955
1.01954
1.01952
1.01951
1.0195
1.01949
1.01949
1.01948
1.01946
1.01945
1.01944
1.01943
1.01942
1.01942
1.01942
1.01941
1.01941
1.0194
1.0194
1.01939
1.01939
1.01939
1.01941
1.01942
1.01943
1.01942
1.01942
1.01942
1.01941
1.01941
1.01942
1.01943
1.01943
1.01942
1.01941
1.01941
1.0194
1.0194
1.0194
1.01941
1.0194
1.0194
1.01939
1.01939
1.01939
1.01938
1.01938
1.01938
1.01937
1.01936
1.01935
1.01935
1.01934
1.01933
1.01933
1.01933
1.01934
1.01934
1.01934
1.01933
1.01933
1.01933
1.01933
1.01933
1.01933
1.01933
1.01932
1.01931
1.0193
1.01929
1.01928
1.01928
1.01928
1.01928
1.01927
1.01927
1.01927
1.01927
1.01927
1.01927
1.01928
1.01929
1.0193
1.0193
1.0193
1.01931
1.01931
1.0193
1.0193
1.01929
1.01929
1.01927
1.01926
1.01924
1.01923
1.01922
1.01921
1.01921
1.0192
1.01919
1.01918
1.01917
1.01916
1.01916
1.01915
1.01915
1.01915
1.01915
1.01913
1.01912
1.01911
1.01911
1.01911
1.01912
1.01913
1.01913
1.01912
1.0191
1.01909
1.01909
1.01909
1.01909
1.0191
1.01911
1.01911
1.0191
1.01911
1.01911
1.01912
1.01912
1.01913
1.01914
1.01915
1.01915
1.01916
1.01916
1.01915
1.01915
1.01915
1.01916
1.01916
1.01916
1.01915
1.01915
1.01915
1.01915
1.01915
1.01916
1.01917
1.01917
1.01916
1.01915
1.01913
1.0191
1.01904
1.01896
1.01886
1.01869
1.01845
1.0181
1.01764
1.01696
1.01606
1.0148
1.01309
1.01079
1.00776
1.00378
0.998651
0.992105
0.983889
0.973712
0.961341
0.946589
0.92935
0.909693
0.887908
0.864596
0.840716
0.817598
0.797107
0.781366
0.771122
0.766711
0.766311
0.766248
0.766138
0.765997
0.765903
0.765894
0.765932
0.766028
0.766171
0.766348
0.766557
0.766723
0.766755
0.766743
0.766699
0.766617
0.766522
0.766444
0.766418
0.766423
0.76645
0.766505
0.766562
0.76658
0.766576
0.766553
0.766502
0.766436
0.766402
0.766399
0.766409
0.766439
0.766489
0.766539
0.766555
0.766554
0.766542
0.766513
0.766471
0.766437
0.766427
0.766429
0.766442
0.766471
0.766509
0.766531
0.766535
0.766533
0.766524
0.766504
0.766482
0.766474
0.766474
0.76648
0.766493
0.766512
0.766525
0.766528
0.766527
0.76652
0.766508
0.766496
0.766494
0.766498
0.766508
0.766526
0.76655
0.766574
0.766592
0.766596
0.766591
0.766581
0.766566
0.766547
0.766536
0.76657
0.766689
0.767042
0.768323
0.770634
0.773769
0.777331
0.781088
0.784965
0.788921
0.792941
0.797012
0.80113
0.805282
0.809462
0.813662
0.817878
0.822105
0.826345
0.830601
0.834874
0.839163
0.843473
0.847806
0.852158
0.856523
0.860901
0.865292
0.869692
0.874099
0.878507
0.882925
0.887356
0.891798
0.896243
0.900696
0.905169
0.909656
0.914151
0.918633
0.923136
0.927646
0.932172
0.936675
0.941189
0.945721
0.950267
0.954806
0.959339
0.963873
0.968407
0.972907
0.977387
0.98179
0.986252
0.991153
1.00022
1.132
1.132
1.132
1.132
1.132
1.132
1.132
1.132
1.132
1.132
1.132
1.132
1.132
1.132
1.132
1.132
1.132
1.132
1.132
1.132
1.132
1.132
1.132
1.132
1.132
1.132
1.132
1.132
1.132
1.132
1.132
1.132
1.132
1.132
1.132
1.132
1.132
1.132
1.13196
1.13074
1.10733
1.03498
1.01901
1.01881
1.01879
1.01878
1.0188
1.01886
1.01898
1.01904
1.01907
1.01907
1.01904
1.01897
1.01891
1.01892
1.01895
1.01899
1.01904
1.0191
1.01918
1.01922
1.01923
1.01922
1.0192
1.01915
1.01909
1.01905
1.01905
1.01906
1.01908
1.01911
1.01917
1.0192
1.01919
1.01917
1.01914
1.0191
1.01903
1.01898
1.01897
1.01897
1.01898
1.019
1.01904
1.01907
1.01907
1.01908
1.01908
1.01908
1.01906
1.01904
1.01905
1.01905
1.01906
1.01908
1.01911
1.01914
1.01915
1.01916
1.01915
1.01914
1.01911
1.01909
1.01907
1.01906
1.01906
1.01907
1.01909
1.0191
1.01911
1.01911
1.0191
1.01909
1.01908
1.01908
1.01907
1.01908
1.01908
1.01908
1.01908
1.01908
1.01908
1.01907
1.01907
1.01907
1.01907
1.01907
1.01908
1.01908
1.01907
1.01907
1.01906
1.01906
1.01906
1.01906
1.01907
1.01908
1.01909
1.0191
1.01911
1.01911
1.01911
1.01911
1.01911
1.01911
1.0191
1.01909
1.01909
1.01908
1.01908
1.01908
1.01909
1.01909
1.01909
1.01909
1.01908
1.01907
1.01906
1.01905
1.01905
1.01905
1.01906
1.01908
1.0191
1.0191
1.01908
1.01903
1.01901
1.01904
1.01922
1.01968
1.02052
1.0217
1.02313
1.02468
1.02628
1.02787
1.02941
1.03089
1.03212
1.03303
1.03359
1.03389
1.03402
1.03406
1.03403
1.03395
1.03385
1.03376
1.03367
1.03358
1.03351
1.03347
1.03343
1.03335
1.03317
1.03275
1.03187
1.03039
1.0286
1.02705
1.02597
1.02522
1.02462
1.02408
1.02358
1.02313
1.02273
1.02239
1.0221
1.02187
1.02168
1.02153
1.02142
1.02133
1.02127
1.02121
1.02117
1.02113
1.02109
1.02105
1.02101
1.02096
1.02091
1.02086
1.0208
1.02075
1.02069
1.02064
1.02059
1.02055
1.02052
1.0205
1.0205
1.02049
1.02048
1.02048
1.02047
1.02047
1.02046
1.02045
1.02045
1.02045
1.02044
1.02043
1.02041
1.0204
1.02038
1.02035
1.02033
1.02031
1.02029
1.02027
1.02026
1.02025
1.02025
1.02025
1.02026
1.02025
1.02025
1.02024
1.02023
1.02023
1.02022
1.02021
1.0202
1.02019
1.02018
1.02017
1.02015
1.02013
1.02011
1.02009
1.02008
1.02006
1.02005
1.02003
1.02002
1.02001
1.02
1.01999
1.01998
1.01997
1.01996
1.01995
1.01994
1.01992
1.01991
1.0199
1.01988
1.01987
1.01986
1.01985
1.01984
1.01984
1.01983
1.01982
1.01982
1.01981
1.01981
1.01981
1.01981
1.0198
1.0198
1.01979
1.01979
1.0198
1.0198
1.01981
1.0198
1.01979
1.01978
1.01977
1.01975
1.01974
1.01972
1.01972
1.01971
1.0197
1.01969
1.01968
1.01967
1.01967
1.01967
1.01967
1.01967
1.01967
1.01966
1.01965
1.01965
1.01964
1.01964
1.01964
1.01963
1.01962
1.01961
1.0196
1.01959
1.01958
1.01958
1.01958
1.01959
1.0196
1.01961
1.01962
1.01962
1.01962
1.01962
1.01963
1.01964
1.01964
1.01965
1.01965
1.01965
1.01965
1.01964
1.01964
1.01964
1.01964
1.01963
1.01963
1.01962
1.01961
1.0196
1.0196
1.01959
1.01959
1.01958
1.01958
1.01958
1.01958
1.01958
1.01958
1.01958
1.01958
1.01957
1.01957
1.01956
1.01955
1.01954
1.01952
1.01951
1.0195
1.01949
1.01949
1.01948
1.01946
1.01945
1.01944
1.01943
1.01942
1.01942
1.01942
1.01941
1.01941
1.0194
1.0194
1.01939
1.01939
1.01939
1.01941
1.01942
1.01943
1.01942
1.01942
1.01942
1.01941
1.01941
1.01942
1.01943
1.01943
1.01942
1.01941
1.01941
1.0194
1.0194
1.0194
1.01941
1.0194
1.0194
1.01939
1.01939
1.01939
1.01938
1.01938
1.01938
1.01937
1.01936
1.01935
1.01935
1.01934
1.01933
1.01933
1.01933
1.01934
1.01934
1.01934
1.01933
1.01933
1.01933
1.01933
1.01933
1.01933
1.01933
1.01932
1.01931
1.0193
1.01929
1.01928
1.01928
1.01928
1.01928
1.01927
1.01927
1.01927
1.01927
1.01927
1.01927
1.01928
1.01929
1.0193
1.0193
1.0193
1.01931
1.01931
1.0193
1.0193
1.01929
1.01929
1.01927
1.01926
1.01924
1.01923
1.01922
1.01921
1.01921
1.0192
1.01919
1.01918
1.01917
1.01916
1.01916
1.01915
1.01915
1.01915
1.01915
1.01913
1.01912
1.01911
1.01911
1.01911
1.01912
1.01913
1.01913
1.01911
1.0191
1.01909
1.01909
1.01909
1.01909
1.0191
1.01911
1.01911
1.01911
1.01911
1.01911
1.01912
1.01912
1.01913
1.01914
1.01915
1.01915
1.01916
1.01916
1.01915
1.01915
1.01915
1.01916
1.01916
1.01916
1.01915
1.01915
1.01915
1.01915
1.01915
1.01916
1.01917
1.01917
1.01916
1.01915
1.01914
1.0191
1.01905
1.01896
1.01886
1.01869
1.01845
1.01811
1.01764
1.01698
1.01609
1.01484
1.01314
1.01087
1.00789
1.00396
0.998881
0.9924
0.984242
0.974109
0.961754
0.946974
0.929672
0.909919
0.888011
0.864596
0.840644
0.817502
0.797042
0.78134
0.771126
0.766722
0.766321
0.766261
0.766154
0.766013
0.765915
0.765904
0.765939
0.766033
0.766175
0.76635
0.766557
0.76672
0.766751
0.766739
0.766694
0.766614
0.766519
0.766442
0.766417
0.766422
0.766449
0.766504
0.766561
0.766579
0.766574
0.766552
0.7665
0.766435
0.766401
0.766398
0.766408
0.766438
0.766488
0.766538
0.766554
0.766553
0.766541
0.766512
0.76647
0.766436
0.766426
0.766429
0.766441
0.76647
0.766508
0.766531
0.766535
0.766532
0.766523
0.766503
0.766481
0.766472
0.766472
0.766477
0.76649
0.766509
0.766522
0.766525
0.766524
0.766519
0.766507
0.766497
0.766497
0.766503
0.766514
0.766533
0.766559
0.766585
0.766604
0.766609
0.766603
0.766591
0.766575
0.766554
0.766541
0.766572
0.76669
0.767041
0.768321
0.770632
0.773766
0.777328
0.781085
0.784963
0.788919
0.79294
0.79701
0.801129
0.805282
0.809462
0.813662
0.817879
0.822106
0.826346
0.830601
0.834875
0.839164
0.843474
0.847806
0.852159
0.856524
0.860902
0.865292
0.869692
0.874099
0.878507
0.882925
0.887355
0.891798
0.896243
0.900696
0.905168
0.909656
0.914151
0.918633
0.923135
0.927645
0.932173
0.936675
0.941188
0.945719
0.950268
0.954807
0.959339
0.963873
0.968406
0.972908
0.977387
0.981792
0.986257
0.991164
1.0002
1.132
1.132
1.132
1.132
1.132
1.132
1.132
1.132
1.132
1.132
1.132
1.132
1.132
1.132
1.132
1.132
1.132
1.132
1.132
1.132
1.132
1.132
1.132
1.132
1.132
1.132
1.132
1.132
1.132
1.132
1.132
1.132
1.132
1.132
1.132
1.132
1.132
1.132
1.13196
1.13074
1.10733
1.03498
1.01901
1.01881
1.01879
1.01878
1.0188
1.01886
1.01898
1.01904
1.01907
1.01907
1.01904
1.01897
1.01891
1.01892
1.01895
1.01899
1.01904
1.0191
1.01918
1.01922
1.01923
1.01922
1.0192
1.01915
1.01909
1.01905
1.01905
1.01906
1.01908
1.01911
1.01917
1.0192
1.01919
1.01917
1.01914
1.0191
1.01903
1.01898
1.01897
1.01897
1.01898
1.019
1.01904
1.01907
1.01907
1.01908
1.01908
1.01908
1.01906
1.01904
1.01905
1.01905
1.01906
1.01908
1.01911
1.01914
1.01915
1.01916
1.01915
1.01914
1.01911
1.01909
1.01907
1.01906
1.01906
1.01907
1.01909
1.0191
1.01911
1.01911
1.0191
1.01909
1.01908
1.01908
1.01907
1.01908
1.01908
1.01908
1.01908
1.01908
1.01908
1.01907
1.01907
1.01907
1.01907
1.01907
1.01908
1.01908
1.01907
1.01907
1.01906
1.01906
1.01906
1.01906
1.01907
1.01908
1.01909
1.0191
1.01911
1.01911
1.01911
1.01911
1.01911
1.01911
1.0191
1.01909
1.01909
1.01908
1.01908
1.01908
1.01909
1.01909
1.01909
1.01909
1.01908
1.01907
1.01906
1.01905
1.01905
1.01905
1.01906
1.01908
1.0191
1.0191
1.01908
1.01903
1.01901
1.01904
1.01922
1.01968
1.02052
1.0217