/*--------------------------------*- C++ -*----------------------------------*\
| =========                 |                                                 |
| \\      /  F ield         | OpenFOAM: The Open Source CFD Toolbox           |
|  \\    /   O peration     | Version:  2406                                  |
|   \\  /    A nd           | Website:  www.openfoam.com                      |
|    \\/     M anipulation  |                                                 |
\*---------------------------------------------------------------------------*/
FoamFile
{
    version     2.0;
    format      ascii;
    arch        "LSB;label=32;scalar=64";
    class       volVectorField;
    location    "0.075";
    object      U;
}
// * * * * * * * * * * * * * * * * * * * * * * * * * * * * * * * * * * * * * //

dimensions      [0 1 -1 0 0 0 0];

internalField   nonuniform List<vector> 
83682
(
(347.059 -2.08899e-11 -2.58529e-11)
(347.059 -1.6472e-11 -3.04315e-11)
(347.059 -6.88652e-12 -3.15348e-11)
(347.059 3.18205e-12 -3.06738e-11)
(347.059 1.02508e-11 -3.23739e-11)
(347.059 9.81105e-12 -3.22713e-11)
(347.059 9.02807e-12 -3.27726e-11)
(347.059 4.21076e-12 -3.25055e-11)
(347.059 6.94912e-12 -3.26701e-11)
(347.059 1.43003e-11 -3.37199e-11)
(347.059 1.699e-11 -3.40976e-11)
(347.059 2.00286e-11 -3.18698e-11)
(347.059 2.17504e-11 -3.35007e-11)
(347.059 2.66655e-11 -3.33642e-11)
(347.059 3.75034e-11 -3.29554e-11)
(347.059 3.70826e-11 -3.21415e-11)
(347.059 3.28246e-11 -3.21621e-11)
(347.059 3.44812e-11 -3.29868e-11)
(347.059 2.91953e-11 -3.11553e-11)
(347.059 2.53278e-11 -3.15002e-11)
(347.059 2.66979e-11 -3.25305e-11)
(347.059 2.48822e-11 -3.3011e-11)
(347.059 2.04814e-11 -3.27606e-11)
(347.059 1.68783e-11 -3.38758e-11)
(347.059 1.28616e-11 -3.40809e-11)
(347.059 1.34484e-11 -3.47877e-11)
(347.059 7.49469e-12 -3.56653e-11)
(347.059 6.25214e-12 -3.65877e-11)
(347.059 5.85078e-12 -3.7556e-11)
(347.059 1.82693e-12 -3.76002e-11)
(347.059 -2.54006e-12 -3.73895e-11)
(347.059 -9.14718e-12 -3.68724e-11)
(347.059 -1.165e-11 -3.63097e-11)
(347.059 -1.12753e-11 -3.56338e-11)
(347.059 -9.76479e-12 -3.52917e-11)
(347.059 -5.74191e-12 -3.53342e-11)
(347.059 -1.70864e-11 -3.47305e-11)
(347.059 3.51907e-10 -5.01824e-11)
(347.047 -1.78436e-08 6.03441e-10)
(346.743 2.96508e-07 -9.11015e-09)
(340.865 -8.51508e-07 -1.3412e-08)
(322.413 -5.77083e-06 2.56539e-07)
(318.292 -6.06834e-06 2.7816e-07)
(318.272 9.27292e-06 -3.86266e-07)
(318.268 6.70683e-06 -2.78367e-07)
(318.263 -2.38484e-06 1.09145e-07)
(318.263 -1.24095e-05 5.36731e-07)
(318.274 -1.28108e-05 5.49681e-07)
(318.294 -3.45149e-06 1.69651e-07)
(318.298 3.90675e-06 -1.48954e-07)
(318.295 6.3786e-06 -2.65695e-07)
(318.295 1.9109e-05 -8.27991e-07)
(318.29 3.7398e-05 -1.62986e-06)
(318.282 2.09688e-05 -9.14826e-07)
(318.281 -4.08796e-06 1.80611e-07)
(318.297 -9.53398e-06 4.2108e-07)
(318.307 -1.57369e-05 6.99574e-07)
(318.318 -2.22045e-05 9.94385e-07)
(318.328 -2.61399e-05 1.17148e-06)
(318.335 -2.9503e-05 1.32517e-06)
(318.341 -8.3141e-06 4.00849e-07)
(318.338 1.47766e-05 -6.18246e-07)
(318.335 1.67939e-05 -7.11927e-07)
(318.333 1.9214e-05 -8.23547e-07)
(318.331 1.96171e-05 -8.46755e-07)
(318.329 1.45096e-05 -6.29349e-07)
(318.326 3.81542e-06 -1.69207e-07)
(318.328 -4.60284e-06 1.95468e-07)
(318.332 -6.22374e-06 2.63822e-07)
(318.334 -7.82793e-06 3.31555e-07)
(318.336 -6.91629e-06 2.89128e-07)
(318.339 -3.17741e-06 1.2195e-07)
(318.344 8.30482e-07 -5.39684e-08)
(318.343 2.73434e-06 -1.38883e-07)
(318.336 2.58365e-06 -1.34341e-07)
(318.331 1.97723e-06 -1.08869e-07)
(318.324 2.32951e-07 -3.2422e-08)
(318.317 -3.03456e-06 1.1725e-07)
(318.308 -6.17767e-06 2.62266e-07)
(318.301 -5.53068e-06 2.36655e-07)
(318.302 -3.77638e-06 1.59997e-07)
(318.302 -2.87858e-06 1.24062e-07)
(318.303 6.1752e-07 -2.3206e-08)
(318.304 7.1269e-06 -3.22422e-07)
(318.306 1.07657e-05 -4.83628e-07)
(318.308 1.08393e-05 -4.82429e-07)
(318.307 9.49452e-06 -4.29766e-07)
(318.308 7.02552e-06 -3.28482e-07)
(318.31 2.52092e-06 -1.38658e-07)
(318.313 -1.08366e-06 2.07997e-08)
(318.313 -3.55319e-06 1.33317e-07)
(318.317 -4.21665e-06 1.70397e-07)
(318.32 -3.84371e-06 1.57884e-07)
(318.322 -2.87949e-06 1.16363e-07)
(318.324 -1.57243e-06 6.20912e-08)
(318.326 3.76679e-09 -6.17349e-10)
(318.33 1.54032e-06 -6.42837e-08)
(318.334 2.10289e-06 -8.55657e-08)
(318.334 1.80233e-06 -7.41492e-08)
(318.336 9.19769e-07 -3.57815e-08)
(318.336 -1.34935e-06 6.02779e-08)
(318.334 -4.49311e-06 1.96919e-07)
(318.332 -5.56672e-06 2.5716e-07)
(318.327 -4.47626e-06 2.23322e-07)
(318.321 -2.83371e-06 1.5235e-07)
(318.318 -1.27938e-06 8.27285e-08)
(318.317 -3.21497e-07 4.14669e-08)
(318.316 1.01595e-06 -1.28019e-08)
(318.317 1.35282e-06 -2.88116e-08)
(318.319 1.078e-06 -1.41526e-08)
(318.322 8.63084e-07 7.69026e-09)
(318.324 3.13793e-07 4.69425e-08)
(318.325 -1.77965e-07 6.09259e-08)
(318.325 -3.20512e-07 6.04598e-08)
(318.325 7.06059e-07 6.09432e-09)
(318.324 1.81357e-06 -5.02017e-08)
(318.323 3.23688e-06 -1.23212e-07)
(318.322 3.81881e-06 -1.53062e-07)
(318.321 4.66295e-06 -1.88154e-07)
(318.32 4.14278e-06 -1.85435e-07)
(318.319 2.62087e-06 -1.07328e-07)
(318.319 1.99866e-07 1.44977e-08)
(318.318 -1.37737e-06 8.61678e-08)
(318.318 -2.0689e-06 1.15566e-07)
(318.319 -3.26396e-06 1.58286e-07)
(318.321 -3.76424e-06 1.67329e-07)
(318.322 -3.56246e-06 1.60638e-07)
(318.323 -2.9127e-06 1.43311e-07)
(318.322 -2.40127e-06 1.31313e-07)
(318.319 -2.08587e-06 1.16133e-07)
(318.316 -2.0287e-06 1.11357e-07)
(318.312 -2.12404e-06 1.06264e-07)
(318.31 -2.59293e-06 1.20373e-07)
(318.31 -2.29705e-06 9.71559e-08)
(318.311 -2.68657e-06 1.03124e-07)
(318.314 -2.51881e-06 9.88143e-08)
(318.318 -1.59828e-06 5.91464e-08)
(318.322 -8.31823e-07 5.79393e-09)
(318.326 -1.06354e-07 -3.1394e-08)
(318.329 9.53734e-07 -6.96374e-08)
(318.331 1.91383e-06 -9.86988e-08)
(318.33 2.3938e-06 -1.07686e-07)
(318.329 2.33506e-06 -1.02075e-07)
(318.329 2.28084e-06 -9.47046e-08)
(318.328 1.79019e-06 -7.47896e-08)
(318.328 1.0716e-06 -5.49154e-08)
(318.327 1.29832e-06 -6.96137e-08)
(318.325 1.55083e-06 -8.61262e-08)
(318.325 1.59914e-06 -9.25415e-08)
(318.324 1.76163e-06 -1.0392e-07)
(318.323 2.09824e-06 -1.23586e-07)
(318.323 2.45202e-06 -1.39902e-07)
(318.323 3.20847e-06 -1.71931e-07)
(318.322 3.56556e-06 -1.89181e-07)
(318.321 3.62799e-06 -1.93161e-07)
(318.32 3.35531e-06 -1.82831e-07)
(318.318 2.8068e-06 -1.53487e-07)
(318.315 2.3297e-06 -1.35761e-07)
(318.312 5.49662e-07 -4.80623e-08)
(318.312 6.59633e-07 -4.68583e-08)
(318.313 -2.88788e-07 -6.18271e-09)
(318.314 -2.35323e-06 1.03832e-07)
(318.317 5.0946e-06 -2.50885e-07)
(318.32 -1.6372e-05 7.00261e-07)
(318.324 1.07765e-05 -4.38823e-07)
(318.326 -5.80736e-06 3.15098e-07)
(318.321 7.10451e-06 -2.4505e-07)
(318.306 -2.12344e-05 7.62863e-07)
(318.302 1.12084e-05 -1.00172e-06)
(318.311 -0.000112101 6.24295e-06)
(318.357 0.00016395 -1.07837e-05)
(318.479 -0.000274864 1.92402e-05)
(318.696 0.000355027 -2.57682e-05)
(319.002 -0.000159297 1.95754e-05)
(319.371 3.62884e-05 -1.39948e-05)
(319.773 0.000399295 -8.6389e-06)
(320.186 -0.000407983 1.76794e-05)
(320.595 0.000115691 -1.70341e-05)
(320.992 0.000696626 2.639e-06)
(321.369 -0.00114919 -1.40598e-05)
(321.69 -0.00207226 8.43499e-05)
(321.934 -0.00257415 6.83869e-05)
(322.084 0.00251643 1.92403e-05)
(322.153 0.00441731 -0.000135998)
(322.182 0.00305626 -0.000112604)
(322.187 0.0016288 -6.77923e-05)
(322.179 -0.00290932 8.33214e-05)
(322.166 -0.00345653 0.00012645)
(322.145 -0.00321403 0.000110876)
(322.12 -0.00228633 6.91041e-05)
(322.094 -0.00168642 5.31061e-05)
(322.071 -0.00157702 4.69984e-05)
(322.056 -0.00150641 4.71632e-05)
(322.045 -0.0014083 4.80042e-05)
(322.034 -0.0015377 5.68888e-05)
(322.015 -0.00150202 6.87761e-05)
(321.969 -0.00145607 8.93735e-05)
(321.859 -0.00134895 -5.14422e-05)
(321.631 -0.00176113 8.35649e-05)
(321.251 -0.00065164 0.000852772)
(320.785 -9.10687e-05 -0.00126498)
(320.384 -0.00266695 -0.000731319)
(320.106 -0.00117576 0.00173347)
(319.911 0.000848475 0.000823894)
(319.754 0.00052509 -0.000770578)
(319.615 -0.00100874 -0.00126352)
(319.487 -0.00185137 -0.000215339)
(319.371 -0.000929946 0.00111744)
(319.268 5.9268e-06 0.000878432)
(319.179 -0.000206119 -0.000262075)
(319.105 -0.000623146 -0.000616218)
(319.045 -0.000621096 -0.000246566)
(318.998 -0.000348609 0.000144946)
(318.959 -0.000159469 0.000249058)
(318.929 4.54754e-05 0.000236497)
(318.907 0.000125361 8.2532e-05)
(318.89 -9.47003e-05 -5.68736e-05)
(318.876 -0.000357691 -7.28533e-05)
(318.864 -0.000445861 -3.57583e-05)
(318.853 -0.00044012 2.69664e-06)
(318.842 -0.000387827 4.22684e-05)
(318.831 -0.000308087 4.5722e-05)
(318.82 -0.00012679 3.23437e-05)
(318.808 6.16075e-05 1.78568e-05)
(318.795 0.000130877 1.34736e-05)
(318.782 5.75111e-05 1.60821e-05)
(318.768 -9.8012e-05 3.00157e-05)
(318.754 -0.000198808 5.00582e-05)
(318.74 -0.000235024 6.7786e-05)
(318.726 -0.000255059 9.63451e-05)
(318.713 -0.000217566 0.000112269)
(318.701 -0.000137697 0.00011124)
(318.693 -4.60756e-05 0.000100357)
(318.69 2.47955e-05 8.30755e-05)
(318.689 5.44342e-05 6.42623e-05)
(318.687 5.25777e-05 5.6302e-05)
(318.687 -4.10735e-06 3.41393e-05)
(318.686 -0.000105749 5.91315e-07)
(318.685 -0.000183377 -1.91733e-05)
(318.683 -0.000213558 -2.32816e-05)
(318.681 -0.000195925 -1.36797e-05)
(318.678 -0.000141999 4.60407e-06)
(318.676 -6.30094e-05 2.73954e-05)
(318.674 -1.05683e-06 4.50401e-05)
(318.671 4.66677e-05 5.81064e-05)
(318.668 6.87766e-05 6.55123e-05)
(318.664 6.01668e-05 6.34174e-05)
(318.66 2.14546e-05 4.64197e-05)
(318.655 -3.68672e-05 1.91394e-05)
(318.65 -9.52487e-05 -9.2476e-06)
(318.644 -0.000127446 -2.77591e-05)
(318.639 -0.00013044 -3.12341e-05)
(318.633 -0.000121644 -3.11474e-05)
(318.628 -9.63108e-05 -2.291e-05)
(318.625 -6.52191e-05 -7.47822e-06)
(318.623 -3.777e-05 1.07327e-05)
(318.623 -1.71886e-05 2.74493e-05)
(318.624 -2.17532e-06 4.15616e-05)
(318.626 9.08628e-06 4.9342e-05)
(318.626 1.3719e-05 4.86545e-05)
(318.626 1.58553e-05 4.42905e-05)
(318.624 2.11219e-05 2.9716e-05)
(318.623 2.56168e-05 1.00961e-05)
(318.621 1.81419e-05 -7.90203e-06)
(318.618 1.06671e-05 -1.43546e-05)
(318.615 9.48829e-06 -2.38158e-05)
(318.612 -1.46074e-05 -2.68818e-05)
(318.609 -5.59979e-05 -1.83382e-05)
(318.605 -8.65597e-05 -4.75283e-06)
(318.601 -9.25083e-05 6.34707e-06)
(318.596 -7.93093e-05 1.49994e-05)
(318.592 -4.26111e-05 2.20867e-05)
(318.587 1.53349e-05 2.61017e-05)
(318.583 4.48662e-05 2.65322e-05)
(318.578 8.47256e-05 2.57641e-05)
(318.575 0.000126414 2.36895e-05)
(318.571 0.000142602 2.13141e-05)
(318.568 0.000128788 1.88306e-05)
(318.565 9.5428e-05 1.61473e-05)
(318.562 5.44477e-05 1.3644e-05)
(318.56 1.20743e-05 1.06104e-05)
(318.559 -2.72459e-05 6.12292e-06)
(318.557 -5.5495e-05 -4.88405e-08)
(318.555 -6.98776e-05 -7.14081e-06)
(318.553 -7.42357e-05 -1.21796e-05)
(318.55 -7.39812e-05 -1.70218e-05)
(318.546 -6.5827e-05 -2.22863e-05)
(318.542 -4.93329e-05 -2.59267e-05)
(318.538 -3.01346e-05 -2.70399e-05)
(318.534 -1.22431e-05 -2.63011e-05)
(318.53 5.43311e-06 -2.42349e-05)
(318.526 2.33531e-05 -2.37408e-05)
(318.522 3.67956e-05 -2.32972e-05)
(318.52 4.32115e-05 -2.32938e-05)
(318.518 4.71889e-05 -2.61222e-05)
(318.516 4.98884e-05 -2.0906e-05)
(318.514 4.16094e-05 -1.70042e-05)
(318.512 3.40398e-05 -2.06056e-05)
(318.511 1.91574e-05 -1.35336e-05)
(318.51 -4.59596e-06 4.30167e-06)
(318.51 -2.72788e-05 1.91453e-05)
(318.51 -3.59151e-05 3.1208e-05)
(318.51 -3.54361e-05 4.56221e-05)
(318.509 -3.1658e-05 5.97118e-05)
(318.509 -1.67469e-05 6.72576e-05)
(318.508 4.21183e-06 6.80479e-05)
(318.507 2.03486e-05 6.67527e-05)
(318.508 2.66829e-05 6.4526e-05)
(318.509 2.45443e-05 5.91513e-05)
(318.509 2.2761e-05 5.66568e-05)
(318.508 1.74097e-05 5.01374e-05)
(318.506 7.69381e-06 3.87597e-05)
(318.503 -3.29312e-06 2.38444e-05)
(318.499 -1.0627e-05 7.5153e-06)
(318.494 -1.36221e-05 -8.40593e-06)
(318.49 -1.55886e-05 -2.28412e-05)
(318.486 -2.43184e-05 -3.53028e-05)
(318.484 -3.51583e-05 -4.42294e-05)
(318.482 -4.15269e-05 -4.78356e-05)
(318.479 -5.50283e-05 -5.35289e-05)
(318.476 -6.8692e-05 -5.91221e-05)
(318.474 -6.972e-05 -6.50682e-05)
(318.472 -5.56405e-05 -7.20758e-05)
(318.472 -2.30807e-05 -7.94981e-05)
(318.473 -2.89641e-06 -8.30103e-05)
(318.474 3.47413e-05 -9.02824e-05)
(318.475 8.05186e-05 -9.80447e-05)
(318.474 0.000105853 -0.000101961)
(318.472 0.000109415 -0.000103236)
(318.471 9.64799e-05 -0.000102417)
(318.469 8.44282e-05 -0.000101354)
(318.468 5.9751e-05 -9.86233e-05)
(318.467 2.96871e-05 -9.38496e-05)
(318.466 6.32633e-06 -8.80643e-05)
(318.464 -6.62417e-06 -8.20368e-05)
(318.461 -1.58793e-05 -7.51153e-05)
(318.458 -1.91282e-05 -6.83455e-05)
(318.455 -2.02765e-05 -6.24049e-05)
(318.452 -2.6993e-05 -5.43746e-05)
(318.45 -3.38971e-05 -4.65787e-05)
(318.449 -3.62692e-05 -3.88533e-05)
(318.45 -3.75074e-05 -3.30116e-05)
(318.452 -3.71674e-05 -2.47912e-05)
(318.455 -3.07486e-05 -1.78428e-05)
(318.458 -2.09439e-05 -1.2825e-05)
(318.46 -1.03769e-05 -1.01039e-05)
(318.46 2.00515e-06 -9.45366e-06)
(318.461 1.44306e-05 -1.07089e-05)
(318.462 1.93906e-05 -1.4971e-05)
(318.464 1.84351e-05 -1.90215e-05)
(318.466 1.32066e-05 -2.23525e-05)
(318.469 3.90071e-06 -2.53166e-05)
(318.47 -4.98775e-06 -2.67224e-05)
(318.47 -8.18509e-06 -2.67578e-05)
(318.47 -1.17048e-05 -2.68954e-05)
(318.469 -1.15127e-05 -2.52455e-05)
(318.468 -6.69404e-06 -2.28028e-05)
(318.467 -7.69032e-07 -1.87173e-05)
(318.466 7.0396e-06 -1.50644e-05)
(318.465 1.69258e-05 -1.01163e-05)
(318.464 2.24483e-05 -2.90989e-06)
(318.462 2.25846e-05 3.30151e-06)
(318.46 2.21423e-05 7.77736e-06)
(318.458 1.74813e-05 1.11078e-05)
(318.456 1.21587e-05 1.28331e-05)
(318.454 6.32314e-06 1.45775e-05)
(318.452 5.75697e-07 1.70109e-05)
(318.452 -1.43765e-06 1.98056e-05)
(318.451 -1.64023e-06 2.29629e-05)
(318.451 -3.52523e-06 2.59716e-05)
(318.451 -2.38511e-06 2.81715e-05)
(318.451 2.01936e-06 2.94764e-05)
(318.452 4.10225e-06 2.95528e-05)
(318.452 4.06114e-07 2.89358e-05)
(318.451 -2.82744e-06 2.84228e-05)
(318.451 -3.2009e-06 2.83249e-05)
(318.45 -4.66881e-06 2.832e-05)
(318.448 -8.85959e-06 2.92937e-05)
(318.445 -9.34327e-06 3.18197e-05)
(318.442 -5.94327e-06 3.5018e-05)
(318.439 -3.18209e-06 3.8792e-05)
(318.436 -1.2265e-06 4.55101e-05)
(318.432 -1.24589e-06 5.17805e-05)
(318.429 7.49822e-06 5.99324e-05)
(318.426 9.62354e-06 6.72152e-05)
(318.425 6.06304e-06 7.15229e-05)
(318.422 1.39039e-05 7.26757e-05)
(318.418 1.46638e-05 7.2646e-05)
(318.414 8.74795e-06 7.19737e-05)
(318.412 3.34418e-07 6.9457e-05)
(318.41 1.10801e-05 6.37779e-05)
(318.409 2.2321e-05 5.7829e-05)
(318.409 6.71191e-06 5.29967e-05)
(318.408 -3.57238e-06 4.80975e-05)
(318.407 6.18509e-07 4.3389e-05)
(318.406 4.74408e-06 4.04641e-05)
(318.405 -5.84386e-06 3.8033e-05)
(318.403 -9.93799e-06 3.70898e-05)
(318.402 -7.94433e-06 3.70457e-05)
(318.401 -7.52761e-06 3.40547e-05)
(318.402 -1.35801e-05 3.0513e-05)
(318.406 -1.45916e-05 2.99667e-05)
(318.41 1.88277e-06 2.46716e-05)
(318.41 1.0723e-05 1.53166e-05)
(318.41 1.85452e-06 6.71177e-06)
(318.408 2.11406e-06 -2.28661e-06)
(318.407 1.39191e-05 -1.21149e-05)
(318.406 1.34391e-05 -2.04537e-05)
(318.407 8.15048e-06 -2.59243e-05)
(318.408 9.19315e-06 -3.53123e-05)
(318.409 9.30841e-06 -4.27538e-05)
(318.41 -1.72774e-06 -4.82247e-05)
(318.409 -1.83529e-05 -5.01737e-05)
(318.407 -2.9505e-05 -4.91116e-05)
(318.406 -2.18936e-05 -4.67137e-05)
(318.405 -1.5341e-05 -4.39279e-05)
(318.405 -2.21794e-05 -3.60969e-05)
(318.406 -2.528e-05 -2.68051e-05)
(318.407 -1.96265e-05 -2.0934e-05)
(318.407 -1.0677e-05 -1.44707e-05)
(318.405 -7.59566e-06 -7.62851e-06)
(318.404 -7.02509e-06 1.58767e-06)
(318.403 5.5864e-07 1.0462e-05)
(318.402 1.30367e-05 1.92527e-05)
(318.4 1.9987e-05 2.48258e-05)
(318.399 1.23317e-05 3.10489e-05)
(318.397 2.389e-06 3.33252e-05)
(318.395 6.80609e-07 3.1168e-05)
(318.392 3.8195e-06 2.94293e-05)
(318.39 6.06082e-06 2.39228e-05)
(318.388 1.63524e-06 1.91927e-05)
(318.386 3.39353e-06 9.26008e-06)
(318.385 1.33779e-05 1.41753e-06)
(318.384 1.61912e-05 -8.11693e-06)
(318.385 8.05086e-06 -1.78932e-05)
(318.387 1.30811e-05 -2.9809e-05)
(318.388 1.2124e-05 -3.99133e-05)
(318.388 -6.39772e-06 -4.77835e-05)
(318.387 -6.48679e-08 -5.86767e-05)
(318.388 1.66407e-05 -6.75061e-05)
(318.388 4.77533e-06 -7.27612e-05)
(318.388 -2.45762e-06 -7.56799e-05)
(318.388 1.72655e-06 -7.74794e-05)
(318.388 3.07745e-06 -8.00734e-05)
(318.387 -1.79421e-05 -8.08307e-05)
(318.384 -1.37477e-05 -8.08988e-05)
(318.381 1.28465e-05 -8.00192e-05)
(318.378 3.13074e-05 -7.76939e-05)
(318.376 2.32627e-06 -7.36832e-05)
(318.373 -2.31311e-05 -6.84582e-05)
(318.371 -8.26335e-06 -6.44041e-05)
(318.371 1.25903e-05 -6.12673e-05)
(318.37 1.99714e-06 -5.3818e-05)
(318.369 -3.69048e-06 -5.10735e-05)
(318.367 3.537e-06 -4.69027e-05)
(318.367 1.33319e-05 -4.19834e-05)
(318.368 3.76512e-07 -3.71117e-05)
(318.369 -1.47794e-05 -3.25701e-05)
(318.37 -6.48517e-06 -2.93395e-05)
(318.372 2.87064e-06 -2.60749e-05)
(318.376 -8.60122e-06 -2.39537e-05)
(318.378 -1.13971e-05 -2.25159e-05)
(318.379 -1.01322e-05 -2.09082e-05)
(318.379 -1.11256e-05 -1.98914e-05)
(318.38 -1.14982e-05 -1.94104e-05)
(318.38 -1.77562e-05 -1.89006e-05)
(318.379 -2.21334e-05 -1.84756e-05)
(318.378 -8.97603e-06 -1.8624e-05)
(318.377 1.03921e-05 -1.87661e-05)
(318.375 -7.39895e-06 -1.82273e-05)
(318.37 -2.2917e-05 -1.67884e-05)
(318.366 2.71278e-06 -1.71031e-05)
(318.361 5.57017e-06 -1.68091e-05)
(318.358 -1.22296e-06 -1.57482e-05)
(318.355 4.95854e-06 -1.5419e-05)
(318.353 2.10781e-06 -1.4539e-05)
(318.352 -4.45096e-06 -1.37294e-05)
(318.351 1.52762e-05 -1.38952e-05)
(318.349 5.90715e-05 -1.50212e-05)
(318.345 2.09836e-05 -1.3558e-05)
(318.342 -1.27276e-05 -1.15089e-05)
(318.341 1.91759e-07 -1.13565e-05)
(318.34 -1.81145e-06 -1.0011e-05)
(318.339 -1.08778e-05 -9.21995e-06)
(318.339 1.194e-05 -9.55289e-06)
(318.339 -9.99203e-06 -8.10772e-06)
(318.338 -1.38496e-05 -7.23744e-06)
(318.335 3.7847e-06 -6.98324e-06)
(318.332 -9.17247e-06 -5.04901e-06)
(318.329 -2.83169e-05 -3.17882e-06)
(318.328 -7.43898e-06 -2.94583e-06)
(318.328 9.71045e-05 -7.57998e-06)
(318.33 0.000115877 -7.74553e-06)
(318.332 -0.000146348 2.81905e-06)
(318.333 -0.000203065 3.45136e-06)
(318.329 1.51297e-05 -4.74606e-06)
(318.324 0.000115196 -9.34442e-06)
(318.321 6.16021e-05 -6.84841e-06)
(318.321 5.95766e-05 -7.37155e-06)
(318.322 8.65655e-05 -1.03098e-05)
(318.323 3.16605e-05 1.15189e-06)
(318.325 -0.000100043 9.74632e-06)
(318.328 -9.65801e-05 1.49265e-05)
(318.328 1.5197e-05 1.16614e-05)
(318.326 -2.44781e-05 2.41218e-05)
(318.328 -8.34807e-05 3.55337e-05)
(318.33 -7.75603e-05 4.64071e-05)
(318.332 -4.86869e-05 5.70507e-05)
(318.331 -1.7488e-05 6.02541e-05)
(318.333 -8.19174e-06 6.24061e-05)
(318.336 5.26396e-05 5.90396e-05)
(318.338 4.45841e-05 5.66026e-05)
(318.339 0.000134399 5.06375e-05)
(318.341 3.67708e-05 3.27453e-05)
(318.342 -0.000167406 2.76069e-05)
(318.34 -0.000122241 2.37175e-05)
(318.338 0.000121144 2.36576e-05)
(318.337 0.000236041 1.96744e-05)
(318.341 0.000321344 2.69807e-05)
(318.341 0.000288057 4.67442e-05)
(318.34 0.0001642 8.06925e-05)
(318.338 -4.97915e-05 0.000129441)
(318.34 -0.000390057 0.000144756)
(318.34 -0.000552209 0.000109676)
(318.341 -0.000492952 -5.35948e-05)
(318.34 -0.000525048 -0.000338939)
(318.344 -0.000580444 -0.000460435)
(318.346 -0.000607842 -0.000629521)
(318.349 -0.000591687 -0.000646416)
(318.349 -0.00035892 -0.00022592)
(318.35 -0.000479628 0.000803603)
(318.35 -0.000101148 0.00183991)
(318.351 -0.000345159 0.00245576)
(318.351 -0.00148816 0.00208952)
(318.351 -0.00365117 0.000622101)
(318.354 -0.00669223 -0.00103264)
(318.355 -0.0108329 -0.00174814)
(318.357 -0.0182987 -0.000604419)
(318.36 -0.0281476 0.00212177)
(318.371 -0.0401082 0.00489111)
(318.381 -0.0583996 0.00661243)
(318.4 -0.0809536 0.00531354)
(318.424 -0.105437 3.30108e-05)
(318.458 -0.131873 -0.00784788)
(318.49 -0.164823 -0.014328)
(318.529 -0.196045 -0.0176828)
(318.572 -0.218942 -0.0167406)
(318.624 -0.234997 -0.00803501)
(318.675 -0.241119 0.00681502)
(318.729 -0.227476 0.0223315)
(318.775 -0.183682 0.0339934)
(318.812 -0.125734 0.0410658)
(318.843 -0.047237 0.0384235)
(318.854 0.062105 0.0214936)
(318.842 0.181464 -0.00446042)
(318.811 0.290652 -0.0410111)
(318.76 0.381524 -0.0786933)
(318.683 0.448601 -0.116723)
(318.57 0.450416 -0.139723)
(318.472 0.377712 -0.12416)
(318.454 0.271814 -0.0821893)
(318.185 0.161371 -0.04058)
(318.05 0.0775713 -0.0151971)
(318.352 0.0443739 -0.00779695)
(318.383 0.039037 -0.00691815)
(318.34 0.0342962 -0.00597998)
(318.266 0.028868 -0.00477998)
(318.202 0.0242567 -0.00373545)
(318.169 0.0218023 -0.00321487)
(318.143 0.016893 -0.00211482)
(318.134 0.0110683 -0.00057763)
(318.143 0.00671038 0.000676779)
(318.174 0.00419938 0.0013581)
(318.237 0.00284413 0.0016949)
(318.297 0.00190152 0.00186982)
(318.303 0.00137814 0.00193473)
(318.294 0.00101262 0.00195868)
(318.273 0.000491375 0.00196134)
(318.239 3.34486e-05 0.00192558)
(318.199 -0.000330029 0.00186889)
(318.169 -0.000580146 0.00180228)
(318.168 -0.00073452 0.00173773)
(318.182 -0.000808386 0.0016886)
(318.205 -0.000842118 0.00160703)
(318.239 -0.000789916 0.00150878)
(318.272 -0.000669594 0.00139017)
(318.284 -0.000538833 0.00128319)
(318.283 -0.000436848 0.00120476)
(318.272 -0.000319241 0.00108749)
(318.246 -0.000253109 0.000963377)
(318.21 -0.00023363 0.000837571)
(318.19 -0.000235344 0.000716356)
(318.186 -0.000236099 0.000638786)
(318.188 -0.000225851 0.000544991)
(318.201 -0.000207328 0.000437227)
(318.224 -0.000186255 0.000338402)
(318.248 -0.0001631 0.000247314)
(318.256 -0.000163033 0.000176228)
(318.256 -0.000180466 0.000133447)
(318.252 -0.000218429 7.2074e-05)
(318.239 -0.000261847 1.22782e-05)
(318.221 -0.000290005 -4.21366e-05)
(318.206 -0.000292437 -9.47749e-05)
(318.203 -0.000263711 -0.000138648)
(318.206 -0.000220904 -0.00017119)
(318.213 -0.000130877 -0.000218518)
(318.228 8.77942e-06 -0.000265138)
(318.246 0.000224443 -0.000306816)
(318.257 0.000503562 -0.000339367)
(318.258 0.000735418 -0.000357131)
(318.256 0.000916462 -0.000366938)
(318.25 0.00115582 -0.000376171)
(318.239 0.00134771 -0.000382886)
(318.228 0.00141645 -0.000392936)
(318.223 0.00134037 -0.000410233)
(318.223 0.00121266 -0.000428318)
(318.226 0.000889042 -0.00046774)
(318.233 0.000367323 -0.000526914)
(318.243 -0.000346893 -0.000609782)
(318.25 -0.0012451 -0.000726144)
(318.252 -0.00194433 -0.000821608)
(318.252 -0.00277534 -0.000938791)
(318.249 -0.00385569 -0.00108299)
(318.243 -0.00483796 -0.0011954)
(318.237 -0.00563567 -0.00126618)
(318.235 -0.00609467 -0.0012616)
(318.236 -0.00624621 -0.00119485)
(318.24 -0.0061682 -0.000941432)
(318.247 -0.00560559 -0.000431856)
(318.256 -0.00465285 0.000304952)
(318.265 -0.0033906 0.00123251)
(318.271 -0.00150649 0.002533)
(318.271 0.000604324 0.0040659)
(318.265 0.00237207 0.00531468)
(318.257 0.00396725 0.0064385)
(318.245 0.00567449 0.00749574)
(318.231 0.00683879 0.00853027)
(318.218 0.00828007 0.00945838)
(318.22 0.0076304 0.0103699)
(318.251 0.00798158 0.0110355)
(318.365 0.00528018 0.011808)
(318.811 0.00281758 0.0121736)
(319.627 0.00118582 0.0125094)
(320.738 -0.00145184 0.0126896)
(322.004 -0.00123147 0.0129398)
(323.342 -0.00311489 0.0114004)
(324.724 -0.00305411 0.0136582)
(326.135 -0.00393133 0.0126284)
(327.569 -0.00233498 0.010293)
(329.02 -0.00434135 0.0129483)
(330.487 -0.00390106 0.0153455)
(331.965 -0.00253355 0.00781862)
(333.453 -0.00195717 0.00606793)
(334.947 -0.0039187 0.0139948)
(336.445 -0.00145931 0.011892)
(337.946 0.000402318 -0.000312376)
(339.449 0.000265908 0.0036063)
(340.956 -0.00230863 0.0149167)
(342.465 0.000395285 0.00573293)
(343.977 0.00200762 -0.00904636)
(345.493 0.000887504 0.00307928)
(347.014 -0.00186627 0.0181637)
(348.538 9.14557e-05 0.00198946)
(350.064 0.00199142 -0.0160668)
(351.592 0.00200348 0.0028392)
(353.121 -0.00185912 0.0231238)
(354.65 -0.00241676 0.00277269)
(356.18 0.00100877 -0.0214656)
(357.707 0.00466781 -0.00203539)
(359.236 -0.000491921 0.0260862)
(360.766 -0.00574931 0.00976239)
(362.298 -0.00237233 -0.0233403)
(363.829 0.00695915 -0.0129443)
(365.361 0.00432618 0.0232506)
(366.899 -0.00654128 0.0218162)
(368.437 -0.00935104 -0.0164899)
(369.977 0.00500477 -0.0257151)
(371.509 0.0112687 0.00926502)
(373.047 -0.00183146 0.0305844)
(374.582 -0.0146698 0.00280447)
(376.12 -0.00260383 -0.028066)
(377.649 0.0127919 -0.0128371)
(379.18 0.00640237 0.022588)
(380.715 -0.0119247 0.0230732)
(382.25 -0.00851525 -0.0110923)
(383.784 0.00512808 -0.026885)
(385.313 0.00765321 -0.00122733)
(386.842 -0.00229159 0.0252516)
(388.368 -0.00458218 0.0127579)
(389.879 -0.00364521 -0.0165199)
(391.382 0.00186334 -0.0170677)
(392.855 0.00129271 0.0062082)
(394.343 0.000435732 0.0112543)
(395.974 -0.00232817 0.00279139)
(399.008 -0.00383521 -0.001197)
(347.059 -1.47765e-11 -2.7871e-11)
(347.059 -1.01561e-11 -3.02341e-11)
(347.059 -2.70118e-12 -3.25408e-11)
(347.059 6.62556e-12 -3.36644e-11)
(347.059 1.61276e-11 -3.34896e-11)
(347.059 1.52491e-11 -3.49842e-11)
(347.059 1.38975e-11 -3.49467e-11)
(347.059 8.27688e-12 -3.54327e-11)
(347.059 8.11689e-12 -3.58128e-11)
(347.059 1.30091e-11 -3.69112e-11)
(347.059 1.34249e-11 -3.63641e-11)
(347.059 1.66631e-11 -3.63831e-11)
(347.059 1.96143e-11 -3.544e-11)
(347.059 2.34801e-11 -3.78564e-11)
(347.059 3.19441e-11 -3.71363e-11)
(347.059 3.40984e-11 -3.59663e-11)
(347.059 3.16708e-11 -3.5737e-11)
(347.059 3.0127e-11 -3.58778e-11)
(347.059 2.29836e-11 -3.48801e-11)
(347.059 2.32323e-11 -3.33552e-11)
(347.059 2.57425e-11 -3.5502e-11)
(347.059 2.17282e-11 -3.33177e-11)
(347.059 1.39676e-11 -3.56088e-11)
(347.059 1.19572e-11 -3.49374e-11)
(347.059 9.80308e-12 -3.55373e-11)
(347.059 1.05314e-11 -3.77476e-11)
(347.059 8.97519e-12 -3.85773e-11)
(347.059 3.11255e-12 -3.90659e-11)
(347.059 3.65543e-12 -3.97416e-11)
(347.059 -1.19146e-12 -4.05819e-11)
(347.059 -5.07415e-12 -4.12464e-11)
(347.059 -8.61206e-12 -3.94145e-11)
(347.059 -8.49172e-12 -3.83194e-11)
(347.059 -8.42329e-12 -3.77876e-11)
(347.059 -6.6131e-12 -3.73777e-11)
(347.059 -2.66325e-12 -3.71341e-11)
(347.059 -1.33265e-11 -3.65257e-11)
(347.059 2.81009e-10 -4.94221e-11)
(347.047 -1.38863e-08 4.39361e-10)
(346.743 1.73063e-07 -3.748e-09)
(340.865 7.95437e-07 -8.39168e-08)
(322.413 -6.22245e-06 2.81626e-07)
(318.292 -8.31601e-06 3.79729e-07)
(318.272 8.50212e-06 -3.51386e-07)
(318.268 7.08817e-06 -2.93529e-07)
(318.263 -1.32483e-06 6.47002e-08)
(318.263 -1.09281e-05 4.72727e-07)
(318.274 -1.17649e-05 5.01926e-07)
(318.294 -3.45957e-06 1.6016e-07)
(318.298 3.15635e-06 -1.26657e-07)
(318.295 5.3494e-06 -2.28531e-07)
(318.295 1.73905e-05 -7.58789e-07)
(318.29 3.49674e-05 -1.52735e-06)
(318.282 1.93935e-05 -8.48208e-07)
(318.281 -4.25744e-06 1.87733e-07)
(318.297 -9.36511e-06 4.13655e-07)
(318.307 -1.523e-05 6.76512e-07)
(318.318 -2.14458e-05 9.59102e-07)
(318.328 -2.52658e-05 1.12872e-06)
(318.335 -2.83344e-05 1.26959e-06)
(318.341 -8.10733e-06 3.85233e-07)
(318.338 1.3847e-05 -5.85893e-07)
(318.335 1.58552e-05 -6.77889e-07)
(318.333 1.81787e-05 -7.84302e-07)
(318.331 1.84787e-05 -8.02104e-07)
(318.329 1.35078e-05 -5.90974e-07)
(318.326 3.19124e-06 -1.46838e-07)
(318.328 -4.84185e-06 2.02811e-07)
(318.332 -6.3089e-06 2.65945e-07)
(318.334 -7.74103e-06 3.28586e-07)
(318.336 -6.75273e-06 2.85536e-07)
(318.339 -3.06313e-06 1.21976e-07)
(318.344 1.03395e-06 -5.81931e-08)
(318.343 2.64538e-06 -1.32211e-07)
(318.336 2.26295e-06 -1.18593e-07)
(318.331 1.61239e-06 -9.17087e-08)
(318.324 2.80466e-08 -2.50363e-08)
(318.317 -3.14716e-06 1.20786e-07)
(318.308 -6.27461e-06 2.64469e-07)
(318.301 -5.52936e-06 2.32544e-07)
(318.302 -3.65933e-06 1.4907e-07)
(318.302 -2.61201e-06 1.04586e-07)
(318.303 6.62547e-07 -3.02077e-08)
(318.304 6.82737e-06 -3.10155e-07)
(318.306 1.0409e-05 -4.70339e-07)
(318.308 1.0363e-05 -4.65177e-07)
(318.307 8.91491e-06 -4.07408e-07)
(318.308 6.47621e-06 -3.06752e-07)
(318.31 2.1664e-06 -1.24684e-07)
(318.313 -1.34381e-06 3.07096e-08)
(318.313 -3.87437e-06 1.49821e-07)
(318.317 -4.49762e-06 1.90851e-07)
(318.32 -4.07245e-06 1.76936e-07)
(318.322 -3.00238e-06 1.32308e-07)
(318.324 -1.63845e-06 7.51143e-08)
(318.326 -9.27675e-08 1.00437e-08)
(318.33 1.54373e-06 -5.88045e-08)
(318.334 2.31685e-06 -9.135e-08)
(318.334 2.05848e-06 -8.27297e-08)
(318.336 1.21033e-06 -4.77197e-08)
(318.336 -9.17962e-07 4.06208e-08)
(318.334 -3.82213e-06 1.66101e-07)
(318.332 -5.00025e-06 2.30021e-07)
(318.327 -4.27473e-06 2.12843e-07)
(318.321 -2.89077e-06 1.57908e-07)
(318.318 -1.42578e-06 9.84223e-08)
(318.317 -5.52329e-07 6.27938e-08)
(318.316 6.13984e-07 1.5648e-08)
(318.317 8.16578e-07 3.10002e-09)
(318.319 4.33235e-07 2.35175e-08)
(318.322 2.67925e-07 3.07093e-08)
(318.324 -2.47206e-07 5.33396e-08)
(318.325 -7.31841e-07 7.51213e-08)
(318.325 -8.62439e-07 7.68362e-08)
(318.325 2.79983e-07 2.10577e-08)
(318.324 1.54617e-06 -3.9918e-08)
(318.323 3.07652e-06 -1.14087e-07)
(318.322 3.66851e-06 -1.43438e-07)
(318.321 4.54705e-06 -1.80635e-07)
(318.32 4.0583e-06 -1.80153e-07)
(318.319 2.56283e-06 -1.10846e-07)
(318.319 1.95215e-07 1.79585e-08)
(318.318 -1.32768e-06 8.70452e-08)
(318.318 -1.99179e-06 1.16881e-07)
(318.319 -3.17495e-06 1.60944e-07)
(318.321 -3.74659e-06 1.69975e-07)
(318.322 -3.56083e-06 1.65998e-07)
(318.323 -2.9733e-06 1.53931e-07)
(318.322 -2.52591e-06 1.48231e-07)
(318.319 -2.28462e-06 1.34706e-07)
(318.316 -2.10824e-06 1.26667e-07)
(318.312 -2.16391e-06 1.196e-07)
(318.31 -2.51216e-06 1.2551e-07)
(318.31 -2.14475e-06 9.38702e-08)
(318.311 -2.47162e-06 9.43054e-08)
(318.314 -2.31064e-06 8.97952e-08)
(318.318 -1.44778e-06 4.86924e-08)
(318.322 -7.80486e-07 -5.74784e-09)
(318.326 -1.56375e-07 -3.94054e-08)
(318.329 8.39509e-07 -7.27671e-08)
(318.331 1.71969e-06 -9.55507e-08)
(318.33 2.18496e-06 -1.03127e-07)
(318.329 2.14088e-06 -9.81427e-08)
(318.329 2.10796e-06 -9.1295e-08)
(318.328 1.74001e-06 -7.68932e-08)
(318.328 1.02339e-06 -5.87164e-08)
(318.327 1.25009e-06 -6.85764e-08)
(318.325 1.61528e-06 -8.65139e-08)
(318.325 1.64101e-06 -9.34989e-08)
(318.324 1.77954e-06 -1.05037e-07)
(318.323 2.08051e-06 -1.24646e-07)
(318.323 2.37703e-06 -1.40562e-07)
(318.323 3.01332e-06 -1.71557e-07)
(318.322 3.3206e-06 -1.89553e-07)