/*--------------------------------*- C++ -*----------------------------------*\
| =========                 |                                                 |
| \\      /  F ield         | OpenFOAM: The Open Source CFD Toolbox           |
|  \\    /   O peration     | Version:  2406                                  |
|   \\  /    A nd           | Website:  www.openfoam.com                      |
|    \\/     M anipulation  |                                                 |
\*---------------------------------------------------------------------------*/
FoamFile
{
    version     2.0;
    format      ascii;
    arch        "LSB;label=32;scalar=64";
    class       volVectorField;
    location    "0.095";
    object      U;
}
// * * * * * * * * * * * * * * * * * * * * * * * * * * * * * * * * * * * * * //

dimensions      [0 1 -1 0 0 0 0];

internalField   nonuniform List<vector> 
13818
(
(-7.61833e-11 -1.04819e-12 -1.32352e-11)
(-6.88379e-11 -1.69556e-12 -1.13764e-11)
(-6.52763e-11 -3.83673e-12 -4.3604e-12)
(-6.51781e-11 -7.67925e-12 2.80052e-12)
(-6.362e-11 -8.56203e-12 6.29384e-12)
(-5.87788e-11 -7.91428e-12 6.63193e-12)
(-5.50563e-11 -9.29599e-12 2.30298e-12)
(-4.68478e-11 -1.07941e-11 1.09424e-12)
(-4.02914e-11 -1.04291e-11 2.99483e-13)
(-3.45617e-11 -1.11188e-11 -2.11094e-13)
(-2.97888e-11 -8.828e-12 1.043e-12)
(-2.88832e-11 -1.06735e-11 4.75145e-12)
(-2.86346e-11 -1.01136e-11 1.19486e-11)
(-2.42105e-11 -1.14078e-11 1.65843e-11)
(-2.34749e-11 -1.05283e-11 1.60583e-11)
(-2.30142e-11 -1.07101e-11 1.65624e-11)
(-2.04651e-11 -1.28337e-11 1.62389e-11)
(-2.0303e-11 -1.22562e-11 1.51029e-11)
(-1.92551e-11 -1.23971e-11 1.85708e-11)
(-1.66396e-11 -1.28819e-11 1.8522e-11)
(-1.56355e-11 -1.44959e-11 1.31482e-11)
(-1.2287e-11 -1.45728e-11 9.18825e-12)
(-1.31047e-11 -1.22726e-11 1.96754e-12)
(-1.7976e-11 -1.2419e-11 7.34363e-13)
(-1.94331e-11 -1.33345e-11 -3.94042e-12)
(-1.7908e-11 -1.35442e-11 -7.61248e-12)
(-1.62104e-11 -1.2581e-11 -7.43506e-12)
(-1.67021e-11 -1.38725e-11 -7.78755e-12)
(-1.73178e-11 -1.26432e-11 -8.55982e-12)
(-1.74334e-11 -1.35461e-11 -1.00229e-11)
(-1.48492e-11 -1.40853e-11 -1.31629e-11)
(-1.25493e-11 -1.55267e-11 -1.54072e-11)
(-1.22331e-11 -1.6548e-11 -1.49402e-11)
(-1.25685e-11 -1.50808e-11 -1.35812e-11)
(-1.22303e-11 -1.58561e-11 -6.04845e-12)
(-8.64331e-12 -1.45663e-11 -2.67889e-13)
(-8.06735e-12 -1.31396e-11 1.08912e-12)
(-7.57694e-12 -1.29028e-11 -1.37999e-12)
(-9.4922e-12 -1.36889e-11 -1.54909e-12)
(-9.63392e-12 -1.54377e-11 -2.61462e-12)
(-7.66746e-12 -1.67128e-11 -1.82837e-12)
(-8.18548e-12 -1.81744e-11 -4.25434e-12)
(-7.89153e-12 -1.88895e-11 7.10233e-13)
(-5.06328e-12 -2.17287e-11 6.67494e-12)
(-2.56709e-12 -2.23059e-11 9.15638e-12)
(-2.58888e-12 -2.33159e-11 9.39331e-12)
(-3.61765e-12 -2.3994e-11 8.95073e-12)
(-2.98256e-12 -2.58263e-11 1.50803e-12)
(-2.86487e-12 -2.50709e-11 -5.83264e-12)
(-2.10884e-12 -2.3968e-11 -1.00654e-11)
(-4.88526e-13 -2.19495e-11 -1.23669e-11)
(3.24425e-13 -2.3916e-11 -1.37474e-11)
(1.56601e-12 -2.27936e-11 -1.5316e-11)
(3.50159e-12 -2.32623e-11 -1.59041e-11)
(2.58752e-12 -2.24864e-11 -1.5189e-11)
(2.42393e-12 -2.21901e-11 -1.45185e-11)
(2.66844e-12 -2.02772e-11 -1.37267e-11)
(2.12595e-12 -2.27874e-11 -1.21824e-11)
(2.57192e-12 -2.5271e-11 -1.08414e-11)
(2.95075e-12 -2.56106e-11 -1.07674e-11)
(3.82111e-12 -2.70449e-11 -1.14611e-11)
(3.93254e-12 -2.82983e-11 -1.43641e-11)
(2.39806e-12 -2.9167e-11 -1.7201e-11)
(9.21555e-13 -2.71478e-11 -1.88956e-11)
(1.76601e-12 -2.58342e-11 -1.87984e-11)
(1.20327e-12 -2.64841e-11 -1.94277e-11)
(1.21435e-13 -2.73442e-11 -2.03975e-11)
(6.16042e-13 -2.66623e-11 -2.17195e-11)
(8.5403e-13 -2.57007e-11 -1.98258e-11)
(-2.63262e-12 -2.37273e-11 -1.53802e-11)
(-5.72631e-12 -2.42652e-11 -1.02924e-11)
(-2.96555e-12 -2.14517e-11 -6.72783e-12)
(-2.51763e-12 -2.11155e-11 -1.0612e-13)
(-3.35106e-12 -2.32652e-11 6.28663e-12)
(-4.46267e-12 -2.11912e-11 1.07764e-11)
(-2.41648e-12 -1.97865e-11 1.16021e-11)
(-3.60759e-12 -1.83263e-11 1.29293e-11)
(-5.12556e-12 -1.96572e-11 1.34233e-11)
(-3.36188e-12 -1.93759e-11 1.21005e-11)
(-1.76635e-12 -1.99286e-11 1.09116e-11)
(-2.84821e-12 -1.94428e-11 1.16529e-11)
(-4.18976e-12 -2.11728e-11 7.30883e-12)
(-4.19021e-12 -2.1306e-11 7.47062e-12)
(-3.26194e-12 -2.12236e-11 4.97339e-12)
(7.58094e-14 -2.18313e-11 3.40679e-13)
(-1.72289e-13 -2.04013e-11 -7.81227e-12)
(-8.16799e-13 -2.14373e-11 -1.36976e-11)
(-9.22953e-13 -2.07969e-11 -1.2914e-11)
(-6.27361e-13 -1.96162e-11 -1.2135e-11)
(4.97934e-13 -2.15357e-11 -1.213e-11)
(2.44069e-12 -2.22757e-11 -9.02625e-12)
(3.67453e-12 -2.02943e-11 -6.21628e-12)
(3.91725e-12 -1.66524e-11 -5.27392e-12)
(4.3457e-12 -1.58045e-11 -5.44047e-12)
(4.93916e-12 -1.66443e-11 -7.35175e-12)
(7.63951e-12 -1.65285e-11 -1.125e-11)
(8.39357e-12 -1.59531e-11 -1.67288e-11)
(1.01803e-11 -1.37902e-11 -1.24275e-11)
(7.22238e-12 -1.18955e-11 -5.23985e-12)
(3.11557e-12 -1.10956e-11 -5.00252e-12)
(2.44853e-12 -1.15732e-11 -9.35797e-12)
(4.91339e-13 -1.25579e-11 -5.85739e-12)
(1.23288e-12 -1.25552e-11 -1.27086e-12)
(3.38098e-13 -1.18693e-11 5.0016e-12)
(-1.06832e-13 -1.5229e-11 1.33678e-11)
(-3.87801e-13 -1.37697e-11 1.99442e-11)
(-7.4131e-11 -7.82374e-12 -1.39375e-11)
(-6.79939e-11 -7.75369e-12 -1.19517e-11)
(-6.30779e-11 -8.10986e-12 -6.54844e-12)
(-6.29616e-11 -1.31906e-11 7.43691e-13)
(-6.41418e-11 -1.38979e-11 5.46528e-12)
(-5.99369e-11 -1.32549e-11 4.82177e-12)
(-5.41905e-11 -1.32749e-11 1.40186e-12)
(-4.58036e-11 -1.43284e-11 1.61815e-12)
(-3.99007e-11 -1.53221e-11 2.87445e-13)
(-3.47052e-11 -1.63764e-11 -6.31643e-13)
(-2.97351e-11 -1.57005e-11 -1.43954e-12)
(-2.90608e-11 -1.64482e-11 1.45237e-12)
(-2.91391e-11 -1.63782e-11 8.93183e-12)
(-2.54729e-11 -1.40007e-11 1.6233e-11)
(-2.41127e-11 -1.4634e-11 1.59207e-11)
(-2.09311e-11 -1.5618e-11 1.57573e-11)
(-1.93412e-11 -1.49682e-11 1.88541e-11)
(-2.03905e-11 -1.46174e-11 2.00768e-11)
(-1.91343e-11 -1.70145e-11 2.10261e-11)
(-1.57698e-11 -1.70905e-11 2.00081e-11)
(-1.47167e-11 -1.73574e-11 1.64552e-11)
(-1.3189e-11 -1.92224e-11 1.16766e-11)
(-1.39268e-11 -1.78239e-11 4.5416e-12)
(-1.84623e-11 -1.73885e-11 1.70366e-12)
(-1.90896e-11 -1.91319e-11 -4.96655e-12)
(-1.74421e-11 -2.12044e-11 -7.80827e-12)
(-1.58407e-11 -2.11075e-11 -8.58696e-12)
(-1.568e-11 -2.08337e-11 -1.06492e-11)
(-1.78256e-11 -2.13566e-11 -1.23698e-11)
(-1.77831e-11 -2.22836e-11 -1.44289e-11)
(-1.50662e-11 -2.15585e-11 -1.61207e-11)
(-1.14552e-11 -2.18672e-11 -1.57167e-11)
(-1.08625e-11 -2.30315e-11 -1.32509e-11)
(-1.21897e-11 -2.25901e-11 -1.06638e-11)
(-1.22403e-11 -2.23096e-11 -5.64623e-12)
(-1.07273e-11 -2.0893e-11 -1.87745e-12)
(-8.9827e-12 -1.69491e-11 -1.63969e-12)
(-7.75395e-12 -1.72728e-11 -1.14449e-12)
(-8.64459e-12 -1.70933e-11 -3.96442e-13)
(-7.43708e-12 -2.03712e-11 -1.0508e-13)
(-6.05371e-12 -2.00903e-11 2.01719e-12)
(-6.83158e-12 -2.23166e-11 1.10652e-12)
(-6.88521e-12 -2.49009e-11 3.18031e-12)
(-4.54823e-12 -2.61017e-11 6.36489e-12)
(-1.09285e-12 -2.72077e-11 7.72947e-12)
(-1.48293e-12 -2.76494e-11 7.42361e-12)
(-3.33354e-12 -2.95269e-11 8.56812e-12)
(-4.50526e-12 -2.84978e-11 2.45364e-12)
(-5.031e-12 -2.89183e-11 -6.94623e-12)
(-2.59019e-12 -2.91394e-11 -1.04621e-11)
(-1.77515e-13 -2.75532e-11 -1.35466e-11)
(8.2257e-13 -2.96674e-11 -1.47517e-11)
(1.09799e-12 -2.89845e-11 -1.68741e-11)
(2.55107e-12 -2.92594e-11 -1.78412e-11)
(2.94519e-12 -2.86644e-11 -1.80633e-11)
(3.10438e-12 -2.92801e-11 -1.75929e-11)
(3.10366e-12 -2.79857e-11 -1.6526e-11)
(3.6623e-12 -3.02633e-11 -1.55893e-11)
(3.36591e-12 -3.27398e-11 -1.24859e-11)
(3.87878e-12 -3.26734e-11 -1.20379e-11)
(4.41869e-12 -3.25902e-11 -1.41819e-11)
(4.0324e-12 -3.47636e-11 -1.59547e-11)
(2.5921e-12 -3.43048e-11 -1.94181e-11)
(5.01077e-13 -3.25156e-11 -2.23866e-11)
(9.54991e-13 -3.22006e-11 -2.35482e-11)
(1.08735e-12 -3.26861e-11 -2.34805e-11)
(6.9549e-13 -3.40939e-11 -2.30953e-11)
(-1.1226e-13 -3.40573e-11 -2.46579e-11)
(-9.90676e-13 -3.20697e-11 -2.67646e-11)
(-2.82953e-12 -3.16574e-11 -2.22517e-11)
(-6.17988e-12 -3.07174e-11 -1.6477e-11)
(-4.06927e-12 -2.73196e-11 -9.02941e-12)
(-1.92859e-12 -2.65929e-11 -6.46486e-13)
(-3.85504e-12 -2.7941e-11 8.23851e-12)
(-5.62961e-12 -2.66979e-11 1.27587e-11)
(-3.20296e-12 -2.51402e-11 1.41177e-11)
(-3.5303e-12 -2.14506e-11 1.61815e-11)
(-4.92401e-12 -2.45738e-11 1.41754e-11)
(-4.08576e-12 -2.37344e-11 1.30504e-11)
(-3.13627e-12 -2.46906e-11 1.11514e-11)
(-1.92888e-12 -2.24295e-11 9.5222e-12)
(-1.96779e-12 -2.5553e-11 7.52357e-12)
(-3.80458e-12 -2.50724e-11 1.04409e-11)
(-4.11344e-12 -2.6121e-11 7.11185e-12)
(-2.27324e-13 -2.72361e-11 2.9915e-12)
(-5.15785e-13 -2.78673e-11 -5.463e-12)
(-9.15246e-13 -2.72682e-11 -1.19902e-11)
(-3.97256e-13 -2.67535e-11 -1.32572e-11)
(-3.82248e-13 -2.58608e-11 -1.32837e-11)
(5.74873e-13 -2.69488e-11 -1.23699e-11)
(2.20835e-12 -2.71764e-11 -9.56568e-12)
(3.05823e-12 -2.55174e-11 -7.15141e-12)
(2.97535e-12 -2.34743e-11 -6.23746e-12)
(4.24206e-12 -2.1896e-11 -7.42839e-12)
(5.95354e-12 -2.2311e-11 -9.36402e-12)
(6.40419e-12 -2.33925e-11 -8.82035e-12)
(7.15992e-12 -2.07464e-11 -1.08953e-11)
(7.49344e-12 -2.03078e-11 -7.72193e-12)
(6.16286e-12 -1.53027e-11 -4.97124e-12)
(4.64013e-12 -1.53647e-11 -2.98443e-12)
(3.51108e-12 -1.7143e-11 -5.31902e-12)
(1.37391e-12 -1.87147e-11 -4.58346e-12)
(8.34304e-13 -1.80483e-11 -7.00421e-12)
(3.88025e-13 -1.79746e-11 3.95566e-12)
(1.42685e-13 -2.10411e-11 1.17776e-11)
(6.30813e-13 -1.85891e-11 1.75448e-11)
(-6.8684e-11 -5.91709e-12 -1.25076e-11)
(-6.65638e-11 -5.82857e-12 -1.13155e-11)
(-6.37058e-11 -1.03669e-11 -7.971e-12)
(-6.20179e-11 -1.14011e-11 -1.28699e-12)
(-6.41774e-11 -1.46445e-11 2.82078e-12)
(-5.90851e-11 -1.69368e-11 3.72002e-12)
(-5.29761e-11 -1.47598e-11 8.54441e-13)
(-4.5728e-11 -1.57513e-11 2.67119e-12)
(-3.9988e-11 -1.85974e-11 7.45872e-13)
(-3.41052e-11 -1.83945e-11 9.80086e-13)
(-3.01776e-11 -1.83166e-11 -2.0856e-12)
(-2.93914e-11 -1.54425e-11 -5.73764e-13)
(-3.07011e-11 -1.63727e-11 5.30118e-12)
(-2.53566e-11 -1.51441e-11 1.15722e-11)
(-2.21817e-11 -1.74153e-11 1.37474e-11)
(-2.26404e-11 -1.91221e-11 1.29871e-11)
(-2.07861e-11 -1.59653e-11 1.80033e-11)
(-1.80256e-11 -1.65344e-11 2.04603e-11)
(-1.71917e-11 -1.77401e-11 2.22941e-11)
(-1.66627e-11 -1.57946e-11 1.966e-11)
(-1.33601e-11 -1.66294e-11 1.49539e-11)
(-1.23469e-11 -2.10414e-11 1.06347e-11)
(-1.48719e-11 -1.79254e-11 5.71362e-12)
(-1.79478e-11 -1.95462e-11 -1.19606e-13)
(-1.67947e-11 -2.08676e-11 -5.29358e-12)
(-1.62558e-11 -2.48504e-11 -8.1329e-12)
(-1.62961e-11 -2.3752e-11 -1.10825e-11)
(-1.6115e-11 -2.60843e-11 -1.25746e-11)
(-1.76176e-11 -2.59953e-11 -1.60966e-11)
(-1.71476e-11 -2.32402e-11 -1.97465e-11)
(-1.50822e-11 -2.42604e-11 -1.73347e-11)
(-1.15148e-11 -2.25411e-11 -1.57951e-11)
(-1.09745e-11 -2.31266e-11 -1.18324e-11)
(-1.26201e-11 -2.68978e-11 -9.207e-12)
(-1.19218e-11 -2.72616e-11 -6.35819e-12)
(-1.21324e-11 -2.40425e-11 -5.31091e-12)
(-1.07245e-11 -2.18677e-11 -6.12193e-12)
(-7.04313e-12 -1.967e-11 -4.8261e-12)
(-6.81577e-12 -2.03095e-11 -1.85877e-12)
(-7.73198e-12 -2.29235e-11 5.76125e-14)
(-5.2814e-12 -2.34761e-11 7.67069e-13)
(-4.77983e-12 -2.68081e-11 2.32262e-12)
(-5.64953e-12 -2.78968e-11 2.59134e-12)
(-3.61787e-12 -2.71907e-11 6.24031e-12)
(-1.20772e-12 -2.77382e-11 7.04907e-12)
(-1.2068e-12 -2.873e-11 7.32444e-12)
(-2.88703e-12 -2.8877e-11 8.60972e-12)
(-4.09309e-12 -2.91528e-11 1.71566e-12)
(-4.03495e-12 -2.93412e-11 -5.19874e-12)
(-4.53852e-12 -2.79753e-11 -8.55535e-12)
(-6.66204e-13 -2.87589e-11 -1.16827e-11)
(8.89842e-13 -2.71139e-11 -1.59875e-11)
(6.11612e-13 -3.05196e-11 -2.02752e-11)
(2.95472e-12 -2.91774e-11 -2.31912e-11)
(3.38746e-12 -2.89254e-11 -2.46492e-11)
(3.44854e-12 -2.92394e-11 -2.45589e-11)
(3.20229e-12 -3.12265e-11 -2.36696e-11)
(5.45815e-12 -3.31186e-11 -2.39312e-11)
(4.48099e-12 -3.46177e-11 -1.92508e-11)
(1.7247e-12 -3.3776e-11 -1.65517e-11)
(3.05371e-12 -3.47125e-11 -2.19674e-11)
(4.27711e-12 -3.47728e-11 -2.33527e-11)
(1.67467e-12 -3.42435e-11 -2.60497e-11)
(-1.00958e-13 -3.43874e-11 -2.81655e-11)
(1.23061e-12 -3.49101e-11 -2.93886e-11)
(2.76403e-12 -3.30612e-11 -2.94443e-11)
(2.41113e-12 -3.2957e-11 -2.77692e-11)
(3.1593e-14 -3.35185e-11 -3.01063e-11)
(-4.12586e-13 -3.45336e-11 -3.05466e-11)
(-1.64976e-12 -3.35341e-11 -2.3353e-11)
(-8.56613e-12 -3.24062e-11 -1.76743e-11)
(-5.54861e-12 -2.99183e-11 -6.45264e-12)
(-1.62891e-12 -2.93431e-11 4.66515e-12)
(-3.64724e-12 -2.51874e-11 1.21532e-11)
(-5.04296e-12 -2.55242e-11 1.60224e-11)
(-6.81085e-12 -2.36896e-11 1.6079e-11)
(-4.60047e-12 -2.33893e-11 1.58152e-11)
(-3.07538e-12 -2.68756e-11 1.34497e-11)
(-3.25626e-12 -2.60723e-11 1.35863e-11)
(-3.14807e-12 -2.59412e-11 1.27544e-11)
(-1.7366e-12 -2.68881e-11 1.13879e-11)
(-1.87818e-12 -2.66046e-11 9.82423e-12)
(-4.15268e-12 -2.6564e-11 9.68251e-12)
(-2.25388e-12 -2.92587e-11 7.23795e-12)
(1.81263e-12 -2.976e-11 4.12177e-12)
(-6.57409e-13 -2.89182e-11 -1.61836e-12)
(-1.39098e-12 -2.77931e-11 -8.54328e-12)
(-1.34054e-12 -2.70358e-11 -1.2864e-11)
(-5.57455e-13 -2.94255e-11 -1.48461e-11)
(1.02194e-12 -2.72254e-11 -1.36339e-11)
(1.74103e-12 -2.57386e-11 -1.05863e-11)
(2.64501e-12 -2.43129e-11 -9.14205e-12)
(1.73556e-12 -2.5039e-11 -8.15575e-12)
(2.32735e-12 -2.56345e-11 -7.87664e-12)
(5.76832e-12 -2.55262e-11 -8.59582e-12)
(6.26569e-12 -2.35102e-11 -5.99564e-12)
(6.65778e-12 -2.3669e-11 -6.87483e-12)
(6.51538e-12 -2.26317e-11 -3.58342e-12)
(3.80393e-12 -1.95546e-11 -5.01754e-12)
(4.51477e-12 -1.77896e-11 -5.50953e-12)
(4.84319e-12 -1.87257e-11 -6.39678e-12)
(1.35796e-12 -1.91278e-11 -6.2675e-12)
(4.71504e-13 -2.08801e-11 -6.61461e-12)
(2.57954e-12 -1.85189e-11 -1.28091e-12)
(3.29275e-13 -2.18926e-11 4.39875e-12)
(5.52524e-13 -2.07498e-11 1.17806e-11)
(-6.72188e-11 2.23807e-12 -1.14908e-11)
(-6.38262e-11 1.83617e-12 -1.15553e-11)
(-6.18402e-11 -4.05659e-12 -8.83874e-12)
(-6.09025e-11 -4.37021e-12 -1.80021e-12)
(-6.00163e-11 -1.1328e-11 1.85662e-12)
(-5.79116e-11 -1.49426e-11 4.21695e-12)
(-5.3301e-11 -1.43527e-11 2.06123e-12)
(-4.4275e-11 -1.49008e-11 3.6569e-12)
(-3.83989e-11 -1.55514e-11 8.52839e-13)
(-3.51337e-11 -1.60655e-11 4.19174e-12)
(-3.20103e-11 -1.57999e-11 1.58102e-12)
(-3.11267e-11 -1.22862e-11 1.82447e-12)
(-2.95242e-11 -1.34664e-11 2.80181e-12)
(-2.524e-11 -1.19939e-11 8.32093e-12)
(-2.08448e-11 -1.11626e-11 1.21947e-11)
(-2.17407e-11 -1.41948e-11 1.44348e-11)
(-2.00276e-11 -1.52873e-11 1.83737e-11)
(-1.83246e-11 -1.48199e-11 2.04763e-11)
(-1.8523e-11 -1.38826e-11 2.07137e-11)
(-1.55551e-11 -1.51771e-11 1.74584e-11)
(-1.08098e-11 -1.84601e-11 1.43333e-11)
(-1.26239e-11 -1.8716e-11 1.02707e-11)
(-1.65277e-11 -1.77291e-11 4.9443e-12)
(-1.72412e-11 -2.00285e-11 -2.15176e-12)
(-1.44564e-11 -2.10584e-11 -4.78055e-12)
(-1.45707e-11 -2.30349e-11 -8.14365e-12)
(-1.57375e-11 -2.20474e-11 -1.14395e-11)
(-1.49097e-11 -2.26504e-11 -1.4767e-11)
(-1.93683e-11 -2.31426e-11 -1.70518e-11)
(-1.82032e-11 -2.19716e-11 -2.19771e-11)
(-1.51723e-11 -2.33028e-11 -1.79285e-11)
(-1.14138e-11 -2.27874e-11 -1.70166e-11)
(-9.40459e-12 -2.19401e-11 -1.24397e-11)
(-1.04897e-11 -2.4828e-11 -9.61036e-12)
(-1.40735e-11 -2.43233e-11 -8.04381e-12)
(-1.45381e-11 -2.42039e-11 -6.59682e-12)
(-1.18577e-11 -2.47673e-11 -9.05295e-12)
(-8.2517e-12 -2.55186e-11 -6.36826e-12)
(-6.38941e-12 -2.41712e-11 -2.03762e-12)
(-5.53345e-12 -2.5985e-11 1.17596e-12)
(-2.75262e-12 -2.5724e-11 2.378e-12)
(-3.5789e-12 -2.54645e-11 5.97493e-12)
(-7.11773e-12 -2.55944e-11 8.20282e-12)
(-4.29358e-12 -2.60037e-11 8.28997e-12)
(2.27242e-13 -2.59747e-11 7.65577e-12)
(-4.47194e-13 -2.74955e-11 6.34174e-12)
(-3.59665e-12 -2.59856e-11 6.4385e-12)
(-5.1218e-12 -2.60471e-11 8.24519e-13)
(-6.21408e-12 -2.35138e-11 -3.1117e-12)
(-5.18468e-12 -2.37921e-11 -6.23712e-12)
(-1.20106e-12 -2.54944e-11 -9.45364e-12)
(2.53083e-12 -2.29909e-11 -1.45394e-11)
(1.96463e-12 -2.66966e-11 -2.02303e-11)
(5.4736e-13 -2.50507e-11 -2.74119e-11)
(3.2532e-12 -2.57049e-11 -3.07043e-11)
(4.81131e-12 -2.59014e-11 -3.10895e-11)
(5.02124e-12 -2.58003e-11 -3.04286e-11)
(6.36026e-12 -2.63726e-11 -3.00774e-11)
(5.23574e-12 -2.6236e-11 -2.82822e-11)
(4.04976e-12 -3.03024e-11 -2.97603e-11)
(5.21304e-12 -3.18251e-11 -3.4566e-11)
(5.06229e-12 -2.97176e-11 -3.62844e-11)
(2.3853e-12 -2.99727e-11 -3.8491e-11)
(-6.18289e-14 -2.93823e-11 -3.91455e-11)
(-7.31688e-13 -2.74888e-11 -3.81755e-11)
(1.12872e-12 -2.5708e-11 -3.79893e-11)
(4.05365e-12 -2.5833e-11 -3.82609e-11)
(1.96498e-12 -2.60369e-11 -3.7232e-11)
(-1.43101e-13 -3.04249e-11 -3.30957e-11)
(-3.02418e-12 -2.82345e-11 -2.44451e-11)
(-8.78901e-12 -2.68085e-11 -1.34207e-11)
(-6.1504e-12 -2.4899e-11 -3.84028e-13)
(-4.64997e-12 -2.40507e-11 1.1657e-11)
(-5.02896e-12 -1.98279e-11 1.77457e-11)
(-6.75789e-12 -1.91824e-11 2.00365e-11)
(-6.12718e-12 -1.78852e-11 1.79398e-11)
(-2.29177e-12 -2.00635e-11 1.66711e-11)
(-3.14926e-12 -2.18166e-11 1.57113e-11)
(-4.19707e-12 -2.13603e-11 1.52871e-11)
(-2.16833e-12 -2.12854e-11 1.42849e-11)
(-8.60804e-13 -2.26588e-11 1.38454e-11)
(-1.35782e-12 -2.21033e-11 1.20701e-11)
(-3.08749e-12 -2.31809e-11 1.15168e-11)
(-2.29333e-12 -2.46001e-11 8.50193e-12)
(7.67232e-14 -2.4464e-11 5.43712e-12)
(-1.9964e-12 -2.45518e-11 3.18981e-13)
(-1.93127e-12 -2.30245e-11 -6.644e-12)
(1.75625e-13 -2.28305e-11 -1.19987e-11)
(-3.15843e-13 -2.44138e-11 -1.42482e-11)
(-4.11605e-13 -2.3644e-11 -1.44832e-11)
(3.79346e-13 -2.43596e-11 -1.30545e-11)
(1.76413e-12 -2.03109e-11 -1.16796e-11)
(2.20378e-12 -1.97054e-11 -9.17415e-12)
(3.0896e-12 -2.0344e-11 -9.06429e-12)
(4.50935e-12 -2.05908e-11 -1.05415e-11)
(5.30221e-12 -1.81788e-11 -1.10792e-11)
(6.82891e-12 -1.93281e-11 -1.1436e-11)
(4.52414e-12 -1.90268e-11 -8.95421e-12)
(2.70087e-12 -1.79878e-11 -7.91442e-12)
(4.73344e-12 -1.84064e-11 -8.17269e-12)
(4.58739e-12 -1.73061e-11 -8.58895e-12)
(2.69216e-12 -1.5934e-11 -7.72056e-12)
(1.10267e-12 -1.89273e-11 -8.4875e-12)
(1.66851e-12 -1.82697e-11 -7.16504e-12)
(2.31834e-12 -1.64162e-11 -2.6544e-12)
(-6.98978e-11 4.77671e-12 -1.67139e-11)
(-6.33756e-11 3.6337e-12 -1.59214e-11)
(-5.99869e-11 1.51718e-12 -1.02259e-11)
(-5.9862e-11 2.07631e-13 -7.06144e-13)
(-5.63462e-11 -5.57507e-12 2.48692e-12)
(-5.53207e-11 -9.7409e-12 5.14922e-12)
(-5.13999e-11 -1.10094e-11 2.58346e-12)
(-4.52898e-11 -1.24641e-11 4.81323e-12)
(-3.91923e-11 -1.03875e-11 3.32297e-12)
(-3.50428e-11 -1.11251e-11 4.27985e-12)
(-3.39335e-11 -9.41626e-12 2.82322e-12)
(-3.0315e-11 -7.1966e-12 2.39169e-12)
(-2.89976e-11 -7.98525e-12 1.37299e-12)
(-2.79601e-11 -7.65476e-12 6.30294e-12)
(-2.12289e-11 -6.56065e-12 1.04254e-11)
(-2.00806e-11 -9.97921e-12 1.55652e-11)
(-2.021e-11 -1.20323e-11 1.89421e-11)
(-1.90237e-11 -1.14162e-11 2.06025e-11)
(-1.61191e-11 -1.30497e-11 1.93951e-11)
(-1.11819e-11 -1.5368e-11 1.61598e-11)
(-1.06845e-11 -1.85342e-11 1.27748e-11)
(-1.27719e-11 -1.59115e-11 9.6465e-12)
(-1.44412e-11 -1.94404e-11 5.55019e-12)
(-1.56681e-11 -2.10846e-11 -6.63624e-14)
(-1.53209e-11 -2.25583e-11 -4.37188e-12)
(-1.52499e-11 -2.05252e-11 -8.40557e-12)
(-1.59775e-11 -2.24005e-11 -1.1594e-11)
(-1.54585e-11 -1.93497e-11 -1.40556e-11)
(-1.76978e-11 -1.99543e-11 -1.5828e-11)
(-1.69005e-11 -2.17156e-11 -1.89995e-11)
(-1.37584e-11 -2.43355e-11 -1.71276e-11)
(-1.29791e-11 -2.41877e-11 -1.50535e-11)
(-1.0582e-11 -2.18815e-11 -1.35313e-11)
(-1.13592e-11 -2.12867e-11 -1.08229e-11)
(-1.37108e-11 -1.98696e-11 -1.00215e-11)
(-1.21067e-11 -2.30442e-11 -1.0007e-11)
(-1.00473e-11 -2.40851e-11 -1.2834e-11)
(-8.41389e-12 -2.71545e-11 -8.74517e-12)
(-6.95677e-12 -2.51466e-11 -2.88626e-12)
(-6.04046e-12 -2.6113e-11 3.30455e-12)
(-5.08189e-12 -2.42615e-11 3.59734e-12)
(-4.31951e-12 -2.22087e-11 7.77589e-12)
(-5.55887e-12 -2.13957e-11 1.09858e-11)
(-3.77289e-12 -2.27524e-11 1.16585e-11)
(-9.72956e-13 -2.26451e-11 1.08769e-11)
(-1.03502e-12 -2.29748e-11 9.15146e-12)
(-3.79887e-12 -2.15013e-11 8.62111e-12)
(-6.40349e-12 -2.19923e-11 4.177e-12)
(-4.16953e-12 -2.15469e-11 -8.40823e-13)
(-2.75563e-12 -2.44413e-11 -1.62898e-12)
(-2.41498e-12 -2.37517e-11 -5.56639e-12)
(2.47388e-12 -2.19544e-11 -1.19446e-11)
(2.28813e-12 -2.06774e-11 -2.05474e-11)
(1.294e-12 -2.2526e-11 -3.04322e-11)
(4.17089e-12 -2.40969e-11 -3.46862e-11)
(4.18309e-12 -2.55113e-11 -3.48572e-11)
(4.78784e-12 -2.56328e-11 -3.65499e-11)
(6.29674e-12 -2.37552e-11 -3.93119e-11)
(7.18724e-12 -2.10057e-11 -4.20179e-11)
(5.7963e-12 -2.33082e-11 -4.5148e-11)
(1.80459e-12 -2.20343e-11 -4.88529e-11)
(2.82141e-12 -2.04361e-11 -5.08231e-11)
(9.62354e-13 -1.92218e-11 -5.13886e-11)
(-1.36274e-12 -2.00626e-11 -5.29108e-11)
(-7.40909e-13 -2.026e-11 -5.0725e-11)
(1.42493e-12 -2.12389e-11 -4.97011e-11)
(3.89585e-12 -1.94403e-11 -4.79388e-11)
(4.06698e-12 -1.84289e-11 -4.3505e-11)
(1.81868e-12 -2.07303e-11 -3.58971e-11)
(-3.75945e-12 -2.27912e-11 -2.32341e-11)
(-9.55676e-12 -2.36916e-11 -9.84172e-12)
(-6.96401e-12 -2.03497e-11 3.97373e-12)
(-6.45905e-12 -1.64539e-11 1.57054e-11)
(-7.86544e-12 -1.69325e-11 1.90425e-11)
(-7.44072e-12 -1.5781e-11 1.92384e-11)
(-6.16956e-12 -1.63763e-11 1.73327e-11)
(-1.24647e-12 -1.5668e-11 1.58953e-11)
(-2.31555e-12 -1.47793e-11 1.5389e-11)
(-3.67818e-12 -1.64589e-11 1.46725e-11)
(-1.34847e-12 -1.71492e-11 1.45197e-11)
(-9.21783e-13 -1.81667e-11 1.64173e-11)
(-1.64231e-12 -1.92208e-11 1.34352e-11)
(-3.0658e-12 -1.97532e-11 1.03222e-11)
(-8.06527e-13 -1.85701e-11 7.57992e-12)
(1.38862e-12 -1.81754e-11 4.45099e-12)
(-1.80741e-12 -1.84544e-11 1.04059e-12)
(-2.94167e-12 -1.94499e-11 -6.2812e-12)
(-8.95021e-15 -2.03038e-11 -1.21467e-11)
(9.96323e-14 -1.88273e-11 -1.44532e-11)
(8.4134e-13 -2.01151e-11 -1.46663e-11)
(-4.16214e-13 -2.01775e-11 -1.38525e-11)
(-1.65584e-12 -1.92903e-11 -1.21781e-11)
(8.4141e-13 -1.84312e-11 -1.03811e-11)
(3.44622e-12 -1.64998e-11 -1.02587e-11)
(3.99396e-12 -1.449e-11 -1.22175e-11)
(5.47536e-12 -1.38049e-11 -1.56277e-11)
(7.72502e-12 -1.30376e-11 -1.58764e-11)
(4.80546e-12 -1.27722e-11 -1.38453e-11)
(3.23019e-12 -1.42924e-11 -1.2096e-11)
(4.99782e-12 -1.71495e-11 -1.15173e-11)
(3.48914e-12 -1.46005e-11 -9.84205e-12)
(3.32222e-12 -1.31983e-11 -1.11736e-11)
(2.55013e-12 -1.42848e-11 -1.04675e-11)
(-2.75019e-13 -1.71187e-11 -1.1319e-11)
(-1.02027e-14 -1.32488e-11 -7.45348e-12)
(-7.10389e-11 2.59814e-12 -2.2487e-11)
(-6.30954e-11 3.13632e-12 -1.89344e-11)
(-5.98205e-11 7.62196e-13 -7.17476e-12)
(-5.61717e-11 -1.71187e-12 2.74955e-12)
(-5.39565e-11 -7.74137e-12 3.00399e-12)
(-5.36849e-11 -1.08235e-11 6.41743e-12)
(-5.10178e-11 -9.70357e-12 7.0101e-12)
(-4.48337e-11 -1.31006e-11 7.90268e-12)
(-3.90786e-11 -1.17917e-11 7.0463e-12)
(-3.55516e-11 -1.06497e-11 7.62083e-12)
(-3.6342e-11 -7.03155e-12 5.5454e-12)
(-3.21322e-11 -6.28894e-12 3.55714e-12)
(-2.84191e-11 -5.52565e-12 1.80207e-12)
(-2.64698e-11 -7.90689e-12 6.43383e-12)
(-1.94542e-11 -9.66367e-12 9.82113e-12)
(-1.92232e-11 -1.39579e-11 1.54956e-11)
(-2.05331e-11 -1.57133e-11 1.80273e-11)
(-1.81241e-11 -1.62328e-11 2.03418e-11)
(-1.49761e-11 -1.70204e-11 1.91029e-11)
(-1.01684e-11 -1.85357e-11 1.57538e-11)
(-9.78984e-12 -1.64164e-11 1.2608e-11)
(-1.2383e-11 -1.66982e-11 9.18777e-12)
(-1.24988e-11 -2.21776e-11 5.28358e-12)
(-1.53164e-11 -2.50121e-11 5.20247e-13)
(-1.53491e-11 -2.42262e-11 -4.06629e-12)
(-1.3142e-11 -2.40874e-11 -8.34235e-12)
(-1.63497e-11 -2.48389e-11 -1.2264e-11)
(-1.77334e-11 -2.12497e-11 -1.73314e-11)
(-1.72893e-11 -2.16119e-11 -1.86857e-11)
(-1.4078e-11 -2.37269e-11 -1.78404e-11)
(-1.2299e-11 -2.63877e-11 -1.35715e-11)
(-1.41006e-11 -2.69395e-11 -1.51654e-11)
(-1.17518e-11 -2.51994e-11 -1.40006e-11)
(-1.26436e-11 -2.38716e-11 -1.27677e-11)
(-1.31004e-11 -2.186e-11 -1.2581e-11)
(-1.08664e-11 -2.16792e-11 -1.159e-11)
(-8.27368e-12 -2.45443e-11 -1.23374e-11)
(-7.29899e-12 -2.54795e-11 -8.78186e-12)
(-7.99061e-12 -2.61025e-11 -3.59549e-12)
(-5.65796e-12 -2.32135e-11 1.69813e-12)
(-5.40656e-12 -2.44342e-11 6.37884e-12)
(-4.88658e-12 -2.846e-11 1.05103e-11)
(-5.36089e-12 -2.71724e-11 1.6956e-11)
(-2.80149e-12 -2.59028e-11 1.90417e-11)
(-7.78362e-13 -2.38074e-11 1.838e-11)
(-2.23163e-12 -2.10413e-11 1.70192e-11)
(-4.09448e-12 -2.40951e-11 1.82808e-11)
(-5.39488e-12 -2.74018e-11 1.33623e-11)
(-4.98008e-12 -2.40161e-11 6.56302e-12)
(-3.83593e-12 -2.73009e-11 4.42982e-12)
(-4.34361e-12 -2.7658e-11 -2.82938e-12)
(6.35898e-13 -2.38787e-11 -1.06054e-11)
(3.01318e-12 -2.04751e-11 -2.14061e-11)
(2.0445e-12 -2.51627e-11 -3.03911e-11)
(5.35864e-12 -2.37062e-11 -3.54595e-11)
(5.59937e-12 -2.65384e-11 -3.47994e-11)
(3.59333e-12 -2.75828e-11 -3.73101e-11)
(4.56921e-12 -2.82025e-11 -4.33256e-11)
(5.85022e-12 -2.60879e-11 -5.25227e-11)
(4.58998e-12 -2.29559e-11 -6.0622e-11)
(2.49232e-12 -2.38974e-11 -6.59989e-11)
(7.64589e-13 -2.36737e-11 -6.70943e-11)
(4.94535e-13 -2.24137e-11 -6.70384e-11)
(4.71036e-13 -2.15592e-11 -6.61487e-11)
(-1.36348e-13 -2.35263e-11 -6.28441e-11)
(-6.62606e-13 -2.23421e-11 -5.96897e-11)
(2.13611e-12 -2.08724e-11 -5.58326e-11)
(2.42909e-12 -1.88703e-11 -4.89498e-11)
(3.22854e-12 -1.70415e-11 -3.66481e-11)
(-4.98405e-13 -2.14493e-11 -2.06229e-11)
(-9.60744e-12 -2.57939e-11 -8.58863e-12)
(-1.00184e-11 -2.24776e-11 4.41452e-12)
(-6.68626e-12 -1.54659e-11 1.33659e-11)
(-6.08374e-12 -1.82141e-11 1.90239e-11)
(-7.51079e-12 -1.67489e-11 1.95534e-11)
(-6.33929e-12 -1.88573e-11 1.90875e-11)
(-2.53283e-12 -1.77632e-11 1.64479e-11)
(-1.48114e-12 -1.52369e-11 1.49383e-11)
(-2.16811e-12 -1.79217e-11 1.40951e-11)
(-8.3234e-13 -1.91944e-11 1.39881e-11)
(1.06805e-12 -1.81605e-11 1.49971e-11)
(-9.97334e-13 -2.17711e-11 1.32014e-11)
(-3.76376e-12 -2.29916e-11 9.4141e-12)
(-2.56347e-12 -2.07951e-11 6.83391e-12)
(9.38597e-14 -1.81356e-11 5.31887e-12)
(2.82345e-14 -1.83613e-11 6.16444e-13)
(-7.49932e-13 -2.17559e-11 -6.91269e-12)
(4.52984e-13 -2.1126e-11 -1.39899e-11)
(-7.20652e-13 -2.1692e-11 -1.56988e-11)
(-5.59622e-13 -2.0054e-11 -1.64527e-11)
(-3.02514e-13 -1.90726e-11 -1.56363e-11)
(3.07188e-13 -2.25707e-11 -1.23275e-11)
(4.33754e-13 -2.3013e-11 -1.07798e-11)
(1.32629e-12 -2.01355e-11 -1.03316e-11)
(3.08724e-12 -1.82549e-11 -1.43647e-11)
(4.42826e-12 -1.62305e-11 -2.04088e-11)
(6.8534e-12 -1.56944e-11 -2.26601e-11)
(5.14945e-12 -1.31396e-11 -1.99693e-11)
(6.60871e-12 -1.39626e-11 -1.77513e-11)
(5.82298e-12 -1.75791e-11 -1.77151e-11)
(1.84187e-12 -1.78808e-11 -1.51631e-11)
(3.02062e-12 -1.66335e-11 -1.62957e-11)
(4.75864e-12 -1.49485e-11 -1.42759e-11)
(1.82807e-12 -1.65263e-11 -1.49907e-11)
(-1.88976e-12 -1.54685e-11 -9.89606e-12)
(-7.36204e-11 -9.94078e-13 -2.06332e-11)
(-6.38274e-11 8.11472e-13 -1.5107e-11)
(-5.66229e-11 -5.05037e-13 -2.35685e-12)
(-5.19876e-11 -1.52389e-12 8.6321e-12)
(-5.07937e-11 -3.58853e-12 7.25763e-12)
(-5.25344e-11 -6.19898e-12 9.84365e-12)
(-4.90109e-11 -1.10798e-11 1.29788e-11)
(-4.22089e-11 -1.14201e-11 1.244e-11)
(-3.99148e-11 -1.28752e-11 1.12951e-11)
(-3.92138e-11 -1.09728e-11 9.67148e-12)
(-3.90097e-11 -9.43998e-12 7.45281e-12)
(-3.24831e-11 -1.07571e-11 4.34629e-12)
(-2.74926e-11 -1.01874e-11 -8.00415e-13)
(-2.42256e-11 -1.35849e-11 4.57645e-12)
(-1.7058e-11 -1.6039e-11 7.76877e-12)
(-1.63411e-11 -1.48754e-11 1.22836e-11)
(-1.85882e-11 -1.50514e-11 1.52702e-11)
(-1.72988e-11 -1.68636e-11 1.74337e-11)
(-1.50306e-11 -1.57499e-11 1.94104e-11)
(-1.21938e-11 -1.6103e-11 1.47491e-11)
(-1.106e-11 -1.29011e-11 1.28519e-11)
(-9.49145e-12 -1.514e-11 8.09817e-12)
(-9.30152e-12 -1.81301e-11 2.9614e-12)
(-1.46239e-11 -2.15808e-11 -1.05331e-13)
(-1.54252e-11 -2.06481e-11 -4.57805e-12)
(-1.2987e-11 -2.07073e-11 -8.14117e-12)
(-1.78792e-11 -2.01515e-11 -1.203e-11)
(-1.82808e-11 -2.36305e-11 -1.69998e-11)
(-1.63116e-11 -2.32341e-11 -1.6254e-11)
(-1.24468e-11 -2.42942e-11 -1.61361e-11)
(-1.06431e-11 -2.35976e-11 -1.1768e-11)
(-1.40078e-11 -2.50869e-11 -1.31935e-11)
(-1.40172e-11 -2.80736e-11 -1.37551e-11)
(-1.46384e-11 -2.38879e-11 -1.51279e-11)
(-1.44981e-11 -2.46106e-11 -1.53274e-11)
(-9.60021e-12 -2.29908e-11 -1.17072e-11)
(-6.8464e-12 -2.39531e-11 -1.26889e-11)
(-6.85452e-12 -2.25775e-11 -8.6895e-12)
(-9.3097e-12 -2.35616e-11 -3.54616e-12)
(-6.49054e-12 -2.31015e-11 2.86009e-12)
(-9.66521e-13 -2.41958e-11 7.05771e-12)
(-3.65179e-12 -2.7539e-11 1.62236e-11)
(-7.03592e-12 -2.58107e-11 2.57989e-11)
(-5.42929e-12 -2.48239e-11 2.73605e-11)
(-5.26685e-12 -2.46687e-11 2.39459e-11)
(-2.43084e-12 -2.25826e-11 2.37572e-11)
(2.50091e-14 -2.3987e-11 2.72716e-11)
(-6.00208e-12 -2.67233e-11 2.32614e-11)
(-4.62391e-12 -2.37108e-11 1.24715e-11)
(-2.94785e-13 -2.46221e-11 6.93475e-12)
(-4.57963e-12 -2.5447e-11 2.38068e-12)
(-3.5903e-12 -2.29101e-11 -8.4916e-12)
(4.47498e-12 -2.47828e-11 -1.74315e-11)
(3.71945e-12 -2.48757e-11 -2.77171e-11)
(5.36822e-12 -2.57612e-11 -3.53909e-11)
(6.91194e-12 -2.45467e-11 -3.4506e-11)
(5.03519e-12 -2.40736e-11 -3.75552e-11)
(4.1838e-12 -2.69751e-11 -4.50596e-11)
(2.91153e-12 -2.9916e-11 -5.84172e-11)
(2.53454e-12 -3.14382e-11 -6.79272e-11)
(7.15799e-13 -3.08383e-11 -7.40876e-11)
(3.30692e-13 -2.87276e-11 -7.57414e-11)
(5.62706e-13 -2.84843e-11 -7.64353e-11)
(9.88038e-13 -2.66773e-11 -7.2701e-11)
(1.39982e-12 -2.57453e-11 -6.84365e-11)
(-4.64269e-13 -2.69624e-11 -6.3477e-11)
(1.76794e-12 -2.59223e-11 -5.75862e-11)
(2.02717e-12 -2.37769e-11 -5.05367e-11)
(3.84667e-12 -2.14013e-11 -3.54118e-11)
(2.0901e-12 -1.7603e-11 -1.68242e-11)
(-7.29226e-12 -2.22684e-11 -4.50058e-12)
(-1.35571e-11 -2.27776e-11 3.2691e-12)
(-8.14975e-12 -1.81075e-11 1.09317e-11)
(-6.08662e-12 -1.57647e-11 1.73944e-11)
(-6.88187e-12 -1.57795e-11 2.06407e-11)
(-5.1766e-12 -1.75584e-11 2.17912e-11)
(-4.59979e-12 -1.68462e-11 1.71024e-11)
(-1.45308e-12 -1.60134e-11 1.56893e-11)
(-8.10283e-13 -1.58366e-11 1.29304e-11)
(-1.4956e-12 -1.8265e-11 1.13239e-11)
(1.2035e-12 -1.89421e-11 1.00065e-11)
(1.09437e-12 -1.87343e-11 9.89437e-12)
(-2.58925e-12 -2.01225e-11 8.32226e-12)
(-4.48549e-12 -1.98944e-11 5.22189e-12)
(-1.20469e-12 -2.04314e-11 4.64992e-12)
(1.60603e-12 -2.14834e-11 2.76248e-12)
(-6.55896e-13 -2.17807e-11 -8.92046e-12)
(5.82479e-13 -2.31536e-11 -1.86417e-11)
(-1.26198e-12 -2.38801e-11 -1.88642e-11)
(-1.77155e-12 -2.26876e-11 -2.04746e-11)
(1.3128e-12 -2.29833e-11 -1.76195e-11)
(1.5157e-12 -2.4503e-11 -1.00941e-11)
(-1.43314e-12 -2.46652e-11 -1.03934e-11)
(-1.76621e-12 -2.23117e-11 -1.04055e-11)
(1.23836e-12 -1.92204e-11 -1.73835e-11)
(3.45219e-12 -1.89423e-11 -2.5872e-11)