/*--------------------------------*- C++ -*----------------------------------*\
| =========                 |                                                 |
| \\      /  F ield         | OpenFOAM: The Open Source CFD Toolbox           |
|  \\    /   O peration     | Version:  2406                                  |
|   \\  /    A nd           | Website:  www.openfoam.com                      |
|    \\/     M anipulation  |                                                 |
\*---------------------------------------------------------------------------*/
FoamFile
{
    version     2.0;
    format      ascii;
    arch        "LSB;label=32;scalar=64";
    class       volScalarField;
    location    "0.015";
    object      Ma;
}
// * * * * * * * * * * * * * * * * * * * * * * * * * * * * * * * * * * * * * //

dimensions      [0 0 0 0 0 0 0];

internalField   nonuniform List<scalar> 
13962
(
1.132
1.132
1.132
1.132
1.132
1.132
1.13195
1.1305
1.10462
1.03399
1.02046
1.02056
1.02066
1.0206
1.02043
1.02031
1.02025
1.02018
1.02007
1.01993
1.01979
1.01969
1.01959
1.01946
1.01934
1.01927
1.01921
1.01915
1.01909
1.01903
1.019
1.01899
1.01898
1.01896
1.01894
1.01892
1.0189
1.01887
1.01886
1.01886
1.01888
1.01891
1.01894
1.01896
1.01898
1.019
1.01902
1.01904
1.01906
1.01908
1.0191
1.01913
1.01915
1.01915
1.01914
1.01914
1.01914
1.01913
1.01913
1.01913
1.01913
1.01914
1.01914
1.01913
1.01911
1.0191
1.01909
1.01907
1.01906
1.01905
1.01905
1.01905
1.01905
1.01904
1.01904
1.01904
1.01903
1.01903
1.01903
1.01903
1.01904
1.01906
1.01906
1.01906
1.01907
1.01908
1.01908
1.01909
1.01909
1.0191
1.01912
1.01912
1.01911
1.0191
1.01909
1.01908
1.01905
1.01902
1.01896
1.01887
1.0187
1.01835
1.01769
1.01652
1.01446
1.01099
1.00537
0.996652
0.983809
0.965893
0.942332
0.913346
0.880264
0.845705
0.813539
0.787877
0.772028
0.766801
0.765562
0.765016
0.764936
0.764984
0.76517
0.765521
0.765988
0.766483
0.766983
0.767316
0.767347
0.767326
0.767238
0.767088
0.766898
0.7667
0.766559
0.766528
0.76654
0.76659
0.766679
0.766782
0.766826
0.766824
0.766802
0.766734
0.766626
0.766555
0.766542
0.76655
0.766588
0.766675
0.766797
0.766902
0.76693
0.766924
0.766895
0.766831
0.76673
0.76661
0.766529
0.766515
0.766523
0.766557
0.766623
0.766708
0.766779
0.766811
0.766812
0.766799
0.766761
0.766696
0.766632
0.766611
0.76661
0.766618
0.766645
0.766697
0.766751
0.766771
0.766762
0.766735
0.766782
0.767353
0.769903
0.773377
0.775299
0.77574
0.775201
0.773167
0.772462
0.771825
0.771197
0.770506
0.769733
0.768848
0.767822
0.766694
0.765579
0.76453
0.763711
0.763206
0.762656
0.761201
0.753414
0.709164
0.512798
0.128381
0.00326575
5.94491e-06
5.85422e-10
3.57968e-14
3.67479e-14
2.70393e-14
1.4289e-14
1.10821e-14
2.23206e-14
2.94694e-14
3.24676e-14
3.49503e-14
3.72678e-14
3.66484e-14
3.28704e-14
2.84806e-14
2.11417e-14
1.43369e-14
7.78851e-15
8.18217e-15
8.39371e-15
1.04823e-14
1.23744e-14
1.47872e-14
1.6942e-14
1.19272e-14
8.13311e-15
1.0626e-14
1.14469e-14
1.27216e-14
2.0476e-14
2.39605e-14
2.23049e-14
2.24283e-14
2.28246e-14
1.81011e-14
1.79006e-14
1.08731e-14
3.31283e-15
8.80944e-15
1.35075e-14
1.53547e-14
1.48556e-14
1.78305e-14
1.64969e-14
1.51212e-14
1.88615e-14
1.81113e-14
2.06745e-14
1.64149e-14
2.05866e-14
2.61586e-14
2.18076e-14
2.51614e-14
2.47605e-14
2.20167e-14
2.11608e-14
2.15675e-14
2.09324e-14
2.1866e-14
2.51075e-14
2.71582e-14
2.36774e-14
2.25757e-14
1.99062e-14
1.59008e-14
1.16676e-14
1.57247e-14
2.11729e-14
2.21032e-14
2.17613e-14
2.93138e-14
2.44456e-14
2.42196e-14
1.84876e-14
2.08958e-14
1.87244e-14
1.40246e-14
1.28385e-14
1.34978e-14
1.10087e-14
1.24734e-14
1.62784e-14
1.92243e-14
2.00459e-14
1.89215e-14
2.03007e-14
2.1684e-14
2.25294e-14
2.6098e-14
2.94753e-14
2.83845e-14
2.84624e-14
2.69911e-14
2.31874e-14
2.20526e-14
2.41991e-14
2.60575e-14
2.65975e-14
2.80924e-14
2.50929e-14
2.05454e-14
1.93375e-14
2.0023e-14
1.94039e-14
2.01234e-14
2.8089e-14
2.95525e-14
2.56008e-14
2.64142e-14
2.22513e-14
1.79441e-14
1.76421e-14
1.57928e-14
1.70349e-14
1.76725e-14
2.29849e-14
3.22608e-14
4.23667e-14
4.97695e-14
4.68663e-14
4.16454e-14
3.39202e-14
3.04745e-14
2.90644e-14
2.61364e-14
2.66597e-14
2.15665e-14
1.95372e-14
2.08607e-14
1.85483e-14
1.27551e-14
5.71044e-15
7.91724e-15
1.40444e-14
1.30619e-14
1.26072e-14
1.61153e-14
1.66765e-14
2.12481e-14
2.7168e-14
3.01939e-14
3.05232e-14
2.91312e-14
2.63837e-14
2.23187e-14
2.07243e-14
2.20574e-14
2.05093e-14
1.62628e-14
1.97846e-14
2.2922e-14
2.14421e-14
2.19572e-14
2.12731e-14
2.21472e-14
2.09587e-14
2.22045e-14
1.86753e-14
1.42444e-14
1.49805e-14
1.33092e-14
1.40431e-14
1.15768e-14
1.34981e-14
1.46574e-14
1.63771e-14
1.79271e-14
1.94404e-14
1.81062e-14
1.58054e-14
1.63906e-14
1.59659e-14
8.89431e-15
1.35789e-14
2.79279e-14
3.9516e-14
4.34256e-14
4.02122e-14
3.38518e-14
2.38301e-14
1.42867e-14
1.62791e-14
1.85337e-14
1.89902e-14
2.3136e-14
2.09044e-14
2.14706e-14
2.49432e-14
2.8376e-14
2.71817e-14
2.54777e-14
2.72275e-14
2.94618e-14
2.78159e-14
2.6246e-14
2.49761e-14
2.22303e-14
1.56439e-14
7.95406e-15
4.18253e-15
1.07572e-14
4.85741e-15
7.66536e-15
7.90011e-15
4.56158e-15
7.35851e-15
8.25173e-15
1.41834e-14
1.66726e-14
1.47886e-14
1.22095e-14
1.0798e-14
6.83477e-15
2.77791e-15
5.71812e-15
1.09966e-14
1.85344e-14
2.05808e-14
1.85789e-14
2.00752e-14
2.28275e-14
2.05939e-14
2.07585e-14
2.1624e-14
1.69439e-14
1.73562e-14
2.29726e-14
1.71905e-14
1.67923e-14
2.57097e-14
2.46663e-14
2.21645e-14
1.61807e-14
1.00938e-14
1.19558e-14
1.64501e-14
1.76208e-14
1.8539e-14
1.96609e-14
1.7006e-14
1.77176e-14
1.88007e-14
1.64747e-14
1.53089e-14
1.47369e-14
1.40773e-14
1.81952e-14
1.84865e-14
1.85452e-14
1.60871e-14
1.5053e-14
1.86578e-14
2.1102e-14
2.12768e-14
2.3188e-14
2.44123e-14
2.51816e-14
1.132
1.132
1.132
1.132
1.132
1.132
1.13195
1.1305
1.10462
1.03399
1.02046
1.02056
1.02066
1.0206
1.02043
1.02031
1.02025
1.02018
1.02007
1.01993
1.01979
1.01969
1.01959
1.01946
1.01934
1.01927
1.01921
1.01915
1.01909
1.01903
1.019
1.01899
1.01898
1.01896
1.01894
1.01892
1.0189
1.01887
1.01886
1.01886
1.01888
1.01891
1.01894
1.01896
1.01898
1.019
1.01902
1.01904
1.01906
1.01908
1.0191
1.01913
1.01915
1.01915
1.01914
1.01914
1.01914
1.01913
1.01913
1.01913
1.01913
1.01914
1.01914
1.01913
1.01911
1.0191
1.01909
1.01907
1.01906
1.01905
1.01905
1.01905
1.01905
1.01904
1.01904
1.01904
1.01903
1.01903
1.01903
1.01903
1.01904
1.01906
1.01906
1.01906
1.01907
1.01908
1.01908
1.01909
1.01909
1.0191
1.01912
1.01912
1.01911
1.0191
1.01909
1.01908
1.01905
1.01902
1.01896
1.01887
1.0187
1.01835
1.01769
1.01652
1.01446
1.01099
1.00537
0.996652
0.983809
0.965893
0.942332
0.913346
0.880264
0.845705
0.813539
0.787877
0.772028
0.766801
0.765562
0.765016
0.764936
0.764984
0.76517
0.765521
0.765988
0.766483
0.766983
0.767316
0.767347
0.767326
0.767238
0.767088
0.766898
0.7667
0.766559
0.766528
0.76654
0.76659
0.766679
0.766782
0.766826
0.766824
0.766802
0.766734
0.766626
0.766555
0.766542
0.76655
0.766588
0.766675
0.766797
0.766902
0.76693
0.766924
0.766895
0.766831
0.76673
0.76661
0.766529
0.766515
0.766523
0.766557
0.766623
0.766708
0.766779
0.766811
0.766812
0.766799
0.766761
0.766696
0.766632
0.766611
0.76661
0.766618
0.766645
0.766697
0.766751
0.766772
0.766764
0.766736
0.766761
0.767167
0.769353
0.77273
0.774892
0.77539
0.774972
0.773413
0.772667
0.772034
0.771471
0.770865
0.770175
0.769322
0.768249
0.767016
0.765759
0.764562
0.763623
0.763132
0.762635
0.761309
0.753688
0.709517
0.513316
0.128814
0.00328973
6.01704e-06
5.95754e-10
3.52191e-14
3.47989e-14
2.71473e-14
1.45768e-14
9.76557e-15
1.93845e-14
2.56165e-14
3.22202e-14
3.43732e-14
3.67892e-14
3.67805e-14
3.36395e-14
2.95536e-14
2.14827e-14
1.46384e-14
8.14267e-15
9.0013e-15
7.02391e-15
9.93738e-15
9.55604e-15
1.1961e-14
1.32383e-14
9.73279e-15
1.22153e-14
1.40831e-14
1.4612e-14
1.76354e-14
2.27748e-14
2.29986e-14
2.38385e-14
2.51429e-14
2.22084e-14
1.87494e-14
1.50606e-14
7.81212e-15
2.10717e-15
8.99511e-15
1.17136e-14
1.52005e-14
1.54633e-14
1.64994e-14
1.7983e-14
1.66751e-14
1.91642e-14
1.6478e-14
1.86462e-14
1.78857e-14
2.01491e-14
2.39944e-14
2.0746e-14
2.37965e-14
2.50374e-14
2.48084e-14
2.23791e-14
2.24188e-14
2.28397e-14
2.34314e-14
2.54074e-14
2.72325e-14
2.46634e-14
2.01241e-14
2.00811e-14
1.67273e-14
1.10331e-14
1.47618e-14
1.95877e-14
2.05425e-14
2.07685e-14
2.24035e-14
2.21074e-14
2.17269e-14
1.85939e-14
2.29124e-14
1.98866e-14
1.73043e-14
1.65232e-14
1.27741e-14
1.1913e-14
1.33932e-14
1.48399e-14
1.87739e-14
2.07722e-14
2.1272e-14
2.10464e-14
2.21614e-14
2.36693e-14
2.83523e-14
2.97274e-14
2.91295e-14
2.91315e-14
2.90465e-14
2.52165e-14
2.3531e-14
2.38897e-14
2.57637e-14
2.62129e-14
2.79719e-14
2.61101e-14
2.33905e-14
2.30295e-14
2.26161e-14
2.07585e-14
1.96361e-14
2.59219e-14
2.79804e-14
2.4982e-14
2.64437e-14
2.62893e-14
2.16565e-14
1.88806e-14
1.84447e-14
2.01637e-14
2.10892e-14
2.52607e-14
3.31934e-14
4.01829e-14
4.74468e-14
4.71148e-14
4.09404e-14
3.3903e-14
3.24498e-14
2.88939e-14
2.71965e-14
2.78879e-14
2.27738e-14
2.28857e-14
2.20298e-14
1.85024e-14
1.46415e-14
1.07587e-14
1.0514e-14
1.6661e-14
1.5829e-14
1.54541e-14
1.88127e-14
2.17236e-14
2.32056e-14
2.6646e-14
2.96154e-14
3.13506e-14
3.10143e-14
2.68495e-14
2.39686e-14
2.20424e-14
2.3095e-14
2.1724e-14
1.98891e-14
2.36681e-14
2.30854e-14
2.2069e-14
2.22733e-14
2.10875e-14
2.41071e-14
2.54189e-14
2.39808e-14
1.89069e-14
1.56535e-14
1.57811e-14
1.58613e-14
1.79564e-14
1.54865e-14
1.62503e-14
1.8333e-14
1.92553e-14
1.99591e-14
2.10429e-14
1.77808e-14
1.65932e-14
1.79079e-14
1.55047e-14
1.20135e-14
1.73305e-14
2.8867e-14
3.83071e-14
4.36328e-14
4.02289e-14
3.18638e-14
2.12672e-14
1.47271e-14
1.61362e-14
1.70949e-14
1.63904e-14
2.02296e-14
1.93098e-14
2.11958e-14
2.26685e-14
2.54431e-14
2.56629e-14
2.49208e-14
2.55323e-14
2.63484e-14
2.64427e-14
2.68976e-14
2.58767e-14
2.18953e-14
1.37161e-14
7.48489e-15
5.89544e-15
8.70707e-15
9.52101e-15
9.30966e-15
8.64252e-15
7.21084e-15
9.10923e-15
1.04908e-14
1.40288e-14
1.88314e-14
1.6789e-14
1.29062e-14
1.19781e-14
7.55241e-15
6.63091e-15
7.41871e-15
1.14453e-14
1.44364e-14
1.90317e-14
2.11749e-14
2.33908e-14
2.44673e-14
2.4825e-14
2.21198e-14
2.2654e-14
1.96248e-14
1.72108e-14
2.12489e-14
2.25472e-14
1.90036e-14
2.5592e-14
2.74364e-14
2.49328e-14
1.84615e-14
1.40625e-14
1.64656e-14
1.99999e-14
1.90267e-14
2.14407e-14
2.04371e-14
1.88676e-14
1.8953e-14
1.82466e-14
1.74369e-14
1.71139e-14
1.72946e-14
1.55048e-14
1.78273e-14
1.87716e-14
1.91667e-14
1.69717e-14
1.6326e-14
1.97504e-14
2.25995e-14
2.35608e-14
2.44772e-14
2.56135e-14
2.69286e-14
1.132
1.132
1.132
1.132
1.132
1.132
1.13195
1.1305
1.10462
1.03399
1.02046
1.02056
1.02066
1.0206
1.02043
1.02031
1.02025
1.02018
1.02007
1.01993
1.01979
1.01969
1.01959
1.01946
1.01934
1.01927
1.01921
1.01915
1.01909
1.01903
1.019
1.01899
1.01898
1.01896
1.01894
1.01892
1.0189
1.01887
1.01886
1.01886
1.01888
1.01891
1.01894
1.01896
1.01898
1.019
1.01902
1.01904
1.01906
1.01908
1.0191
1.01913
1.01915
1.01915
1.01914
1.01914
1.01914
1.01913
1.01913
1.01913
1.01913
1.01914
1.01914
1.01913
1.01911
1.0191
1.01909
1.01907
1.01906
1.01905
1.01905
1.01905
1.01905
1.01904
1.01904
1.01904
1.01903
1.01903
1.01903
1.01903
1.01904
1.01906
1.01906
1.01906
1.01907
1.01908
1.01908
1.01909
1.01909
1.0191
1.01912
1.01912
1.01911
1.0191
1.01909
1.01908
1.01905
1.01902
1.01896
1.01887
1.0187
1.01835
1.01769
1.01652
1.01446
1.01099
1.00537
0.996652
0.983809
0.965893
0.942332
0.913346
0.880264
0.845705
0.813539
0.787877
0.772028
0.766801
0.765562
0.765016
0.764936
0.764984
0.76517
0.765521
0.765988
0.766483
0.766983
0.767316
0.767347
0.767326
0.767238
0.767088
0.766898
0.7667
0.766559
0.766528
0.76654
0.76659
0.766679
0.766782
0.766826
0.766824
0.766802
0.766734
0.766626
0.766555
0.766542
0.76655
0.766588
0.766675
0.766797
0.766902
0.76693
0.766924
0.766895
0.766831
0.76673
0.76661
0.766529
0.766515
0.766523
0.766557
0.766623
0.766708
0.766779
0.766811
0.766812
0.766799
0.766761
0.766696
0.766632
0.766611
0.76661
0.766618
0.766645
0.766697
0.766751
0.766772
0.766766
0.766741
0.76674
0.766997
0.768755
0.772024
0.774546
0.7752
0.774945
0.773841
0.773176
0.772646
0.772249
0.771819
0.771315
0.770616
0.769641
0.768406
0.767018
0.765547
0.764232
0.763374
0.762702
0.76127
0.753543
0.709292
0.513361
0.129185
0.00331794
6.11406e-06
6.1107e-10
2.81011e-14
2.97068e-14
2.49952e-14
1.27706e-14
7.36861e-15
1.52233e-14
2.10283e-14
2.74292e-14
2.84399e-14
3.01309e-14
3.08226e-14
3.07151e-14
3.12382e-14
2.51079e-14
1.9019e-14
1.44931e-14
1.2104e-14
1.1308e-14
1.05988e-14
1.13066e-14
1.21633e-14
1.17239e-14
1.15166e-14
1.37784e-14
1.44612e-14
1.37129e-14
1.45338e-14
1.92945e-14
2.18616e-14
2.21158e-14
2.25395e-14
1.99667e-14
1.59359e-14
1.01475e-14
5.03843e-15
3.51212e-15
8.73124e-15
1.16781e-14
1.52513e-14
1.76497e-14
1.44871e-14
1.54113e-14
1.66559e-14
1.85291e-14
1.97092e-14
1.53123e-14
1.59769e-14
1.6981e-14
1.84273e-14
1.83504e-14
1.92574e-14
2.13247e-14
2.12975e-14
2.09745e-14
2.08368e-14
2.19316e-14
2.17278e-14
2.21517e-14
2.44129e-14
2.37367e-14
1.77568e-14
1.57036e-14
1.47026e-14
1.40192e-14
1.61583e-14
1.63684e-14
1.73245e-14
1.69136e-14
1.67348e-14
1.76306e-14
1.82763e-14
1.99114e-14
2.33445e-14
2.09773e-14
1.68347e-14
1.4659e-14
1.37795e-14
1.22016e-14
1.20084e-14
1.13571e-14
1.46535e-14
1.59411e-14
1.85543e-14
1.96837e-14
1.95546e-14
2.04023e-14
2.47198e-14
2.62867e-14
2.4914e-14
2.39036e-14
2.2652e-14
2.07046e-14
1.96109e-14
1.90892e-14
2.13895e-14
2.22075e-14
2.40187e-14
2.24905e-14
2.28476e-14
2.31446e-14
2.39931e-14
2.29829e-14
1.87243e-14
1.87846e-14
1.90073e-14
1.95216e-14
1.94999e-14
1.90309e-14
1.81164e-14
1.61239e-14
1.70407e-14
1.84543e-14
1.94359e-14
2.36877e-14
2.90282e-14
3.2796e-14
3.83036e-14
3.89192e-14
3.54233e-14
3.29451e-14
3.0356e-14
2.68251e-14
2.68135e-14
2.37991e-14
1.99461e-14
2.00959e-14
1.81179e-14
1.78501e-14
1.79981e-14
1.42929e-14
8.61226e-15
1.22223e-14
1.23808e-14
1.50262e-14
1.49783e-14
2.00697e-14
2.43475e-14
2.56652e-14
2.51185e-14
2.59666e-14
2.79187e-14
2.46329e-14
2.37137e-14
2.18715e-14
2.28731e-14
2.11804e-14
2.00632e-14
2.01878e-14
2.17326e-14
2.182e-14
2.27837e-14
2.20957e-14
2.37599e-14
2.17215e-14
1.93761e-14
1.52691e-14
1.50834e-14
1.42476e-14
1.39928e-14
1.38617e-14
1.39684e-14
1.43192e-14
1.78444e-14
1.87362e-14
1.86157e-14
1.7315e-14
1.32677e-14
1.30527e-14
1.38943e-14
1.37546e-14
1.31513e-14
1.9688e-14
2.6214e-14
3.37588e-14
3.82431e-14
3.39926e-14
2.6371e-14
1.71955e-14
1.09333e-14
1.39385e-14
1.66179e-14
1.28673e-14
1.39747e-14
1.42134e-14
1.70021e-14
1.86292e-14
1.94623e-14
2.09278e-14
2.0062e-14
1.99914e-14
2.05351e-14
2.14682e-14
2.20076e-14
2.11959e-14
1.73752e-14
1.02597e-14
7.81638e-15
7.08053e-15
7.81857e-15
1.16552e-14
1.47601e-14
1.23034e-14
1.37927e-14
1.1155e-14
1.02561e-14
1.17241e-14
1.34221e-14
1.37544e-14
1.25357e-14
1.11927e-14
9.12175e-15
7.35614e-15
9.96243e-15
1.36156e-14
1.3185e-14
1.58469e-14
1.90265e-14
2.02845e-14
2.15209e-14
2.28546e-14
2.10669e-14
2.21657e-14
1.97508e-14
1.67451e-14
1.68907e-14
2.21882e-14
2.20344e-14
2.23112e-14
2.37657e-14
2.47098e-14
1.82657e-14
1.74552e-14
1.78485e-14
1.96866e-14
2.04493e-14
2.25168e-14
1.97195e-14
1.87143e-14
1.68126e-14
1.82848e-14
1.84307e-14
1.65775e-14
1.64988e-14
1.41544e-14
1.47366e-14
1.3884e-14
1.43124e-14
1.44355e-14
1.62879e-14
1.82079e-14
2.14562e-14
2.27004e-14
2.24932e-14
2.31739e-14
2.42233e-14
1.132
1.132
1.132
1.132
1.132
1.132
1.13195
1.1305
1.10462
1.03399
1.02046
1.02056
1.02066
1.0206
1.02043
1.02031
1.02025
1.02018
1.02007
1.01993
1.01979
1.01969
1.01959
1.01946
1.01934
1.01927
1.01921
1.01915
1.01909
1.01903
1.019
1.01899
1.01898
1.01896
1.01894
1.01892
1.0189
1.01887
1.01886
1.01886
1.01888
1.01891
1.01894
1.01896
1.01898
1.019
1.01902
1.01904
1.01906
1.01908
1.0191
1.01913
1.01915
1.01915
1.01914
1.01914
1.01914
1.01913
1.01913
1.01913
1.01913
1.01914
1.01914
1.01913
1.01911
1.0191
1.01909
1.01907
1.01906
1.01905
1.01905
1.01905
1.01905
1.01904
1.01904
1.01904
1.01903
1.01903
1.01903
1.01903
1.01904
1.01906
1.01906
1.01906
1.01907
1.01908
1.01908
1.01909
1.01909
1.0191
1.01912
1.01912
1.01911
1.0191
1.01909
1.01908
1.01905
1.01902
1.01896
1.01887
1.0187
1.01835
1.01769
1.01652
1.01446
1.01099
1.00537
0.996652
0.983809
0.965893
0.942332
0.913346
0.880264
0.845705
0.813539
0.787877
0.772028
0.766801
0.765562
0.765016
0.764936
0.764984
0.76517
0.765521
0.765988
0.766483
0.766983
0.767316
0.767347
0.767326
0.767238
0.767088
0.766898
0.7667
0.766559
0.766528
0.76654
0.76659
0.766679
0.766782
0.766826
0.766824
0.766802
0.766734
0.766626
0.766555
0.766542
0.76655
0.766588
0.766675
0.766797
0.766902
0.76693
0.766924
0.766895
0.766831
0.76673
0.76661
0.766529
0.766515
0.766523
0.766557
0.766623
0.766708
0.766779
0.766811
0.766812
0.766799
0.766761
0.766696
0.766632
0.766611
0.76661
0.766618
0.766645
0.766697
0.766751
0.766773
0.766769
0.766745
0.766722
0.766859
0.768137
0.771211
0.774166
0.775211
0.775175
0.774396
0.77372
0.773243
0.772897
0.772485
0.771956
0.771236
0.7703
0.769168
0.76794
0.766632
0.765302
0.764122
0.7629
0.760949
0.752858
0.708554
0.513181
0.129595
0.00335312
6.24111e-06
6.31742e-10
2.04233e-14
2.42161e-14
2.2498e-14
1.43598e-14
5.44164e-15
1.08812e-14
1.6296e-14
1.92382e-14
2.14849e-14
2.21245e-14
2.37422e-14
2.43813e-14
2.67664e-14
2.5016e-14
2.18493e-14
1.64876e-14
1.22191e-14
1.25433e-14
9.93689e-15
9.76569e-15
1.27607e-14
1.37252e-14
1.44611e-14
1.321e-14
1.35542e-14
1.36179e-14
1.50559e-14
1.83938e-14
1.75124e-14
1.75451e-14
1.74441e-14
1.63412e-14
1.48775e-14
1.11844e-14
6.98468e-15
2.3664e-15
6.66941e-15
1.09599e-14
1.34683e-14
1.56249e-14
1.56628e-14
1.54105e-14
1.70228e-14
1.66347e-14
1.8482e-14
1.69284e-14
1.57732e-14
1.53523e-14
1.516e-14
1.62863e-14
1.65477e-14
1.70592e-14
1.80579e-14
1.72573e-14
1.87756e-14
1.99019e-14
2.12335e-14
2.04138e-14
2.0383e-14
2.11287e-14
1.91602e-14
1.52952e-14
1.31538e-14
1.48327e-14
1.37906e-14
1.4547e-14
1.35187e-14
1.2149e-14
1.3334e-14
1.38226e-14
1.72336e-14
1.88158e-14
1.93299e-14
1.62426e-14
1.24052e-14
9.71728e-15
1.07518e-14
1.05225e-14
9.77352e-15
8.80357e-15
1.01181e-14
1.23385e-14
1.29596e-14
1.60456e-14
1.74878e-14
1.69148e-14
1.73568e-14
2.00926e-14
1.8182e-14
1.75922e-14
1.6897e-14
1.51831e-14
1.47811e-14
1.38458e-14
1.51863e-14
1.85367e-14
2.16283e-14
2.00108e-14
2.05884e-14
2.26439e-14
2.21728e-14
2.06271e-14
1.70767e-14
1.26621e-14
1.22097e-14
1.259e-14
1.32658e-14
1.19614e-14
1.19519e-14
1.16535e-14
1.10009e-14
1.26428e-14
1.49126e-14
1.77842e-14
2.06892e-14
2.08836e-14
2.43414e-14
2.67011e-14
2.73113e-14
2.6783e-14
2.55346e-14
2.55439e-14
2.48355e-14
2.08512e-14
1.75691e-14
1.49344e-14
1.28094e-14
1.40955e-14
1.45583e-14
1.11201e-14
4.95105e-15
5.69128e-15
9.02969e-15
1.07935e-14
1.12313e-14
1.46151e-14
1.92055e-14
2.03976e-14
2.01504e-14
2.14458e-14
2.01534e-14
1.81808e-14
1.99428e-14
2.0047e-14
1.8375e-14
1.73807e-14
1.73916e-14
2.03423e-14
2.22047e-14
2.12063e-14
2.18797e-14
2.1245e-14
2.02157e-14
1.80218e-14
1.82127e-14
1.45463e-14
1.21021e-14
1.07423e-14
9.17377e-15
9.6869e-15
8.64918e-15
9.44341e-15
1.2095e-14
1.22587e-14
1.18839e-14
1.28688e-14
1.0784e-14
7.22498e-15
7.41132e-15
1.00908e-14
9.99591e-15
1.48089e-14
2.00997e-14
2.58321e-14
2.77274e-14
2.58539e-14
2.12329e-14
1.52679e-14
1.21618e-14
1.22641e-14
1.38417e-14
1.32798e-14
1.07366e-14
1.11863e-14
1.08702e-14
1.27316e-14
1.57841e-14
1.50962e-14
1.60783e-14
1.57812e-14
1.68347e-14
1.70073e-14
1.68899e-14
1.66168e-14
1.50167e-14
1.18844e-14
8.4042e-15
3.60331e-15
4.96533e-15
7.50935e-15
1.11657e-14
1.26481e-14
1.10944e-14
9.22453e-15
7.0458e-15
9.08888e-15
6.64427e-15
7.68628e-15
9.42479e-15
8.74684e-15
6.82455e-15
6.25267e-15
7.0338e-15
1.19576e-14
1.28719e-14
1.3371e-14
1.75128e-14
1.89375e-14
1.79836e-14
2.03409e-14
1.70389e-14
1.58538e-14
1.65874e-14
1.37569e-14
1.34953e-14
1.65785e-14
1.97432e-14
2.13798e-14
2.03561e-14
1.93744e-14
1.72316e-14
1.5094e-14
1.57371e-14
1.75652e-14
1.75914e-14
1.66193e-14
1.70238e-14
1.63841e-14
1.56133e-14
1.60752e-14
1.3848e-14
1.30438e-14
1.18836e-14
1.09609e-14
9.53322e-15
9.08027e-15
1.13443e-14
1.37224e-14
1.28986e-14
1.43195e-14
1.70157e-14
1.88945e-14
1.94037e-14
1.86277e-14
1.76683e-14
1.132
1.132
1.132
1.132
1.132
1.132
1.13195
1.1305
1.10462
1.03399
1.02046
1.02056
1.02066
1.0206
1.02043
1.02031
1.02025
1.02018
1.02007
1.01993
1.01979
1.01969
1.01959
1.01946
1.01934
1.01927
1.01921
1.01915
1.01909
1.01903
1.019
1.01899
1.01898
1.01896
1.01894
1.01892
1.0189
1.01887
1.01886
1.01886
1.01888
1.01891
1.01894
1.01896
1.01898
1.019
1.01902
1.01904
1.01906
1.01908
1.0191
1.01913
1.01915
1.01915
1.01914
1.01914
1.01914
1.01913
1.01913
1.01913
1.01913
1.01914
1.01914
1.01913
1.01911
1.0191
1.01909
1.01907
1.01906
1.01905
1.01905
1.01905
1.01905
1.01904
1.01904
1.01904
1.01903
1.01903
1.01903
1.01903
1.01904
1.01906
1.01906
1.01906
1.01907
1.01908
1.01908
1.01909
1.01909
1.0191
1.01912
1.01912
1.01911
1.0191
1.01909
1.01908
1.01905
1.01902
1.01896
1.01887
1.0187
1.01835
1.01769
1.01652
1.01446
1.01099
1.00537
0.996652
0.983809
0.965893
0.942332
0.913346
0.880264
0.845705
0.813539
0.787877
0.772028
0.766801
0.765562
0.765016
0.764936
0.764984
0.76517
0.765521
0.765988
0.766483
0.766983
0.767316
0.767347
0.767326
0.767238
0.767088
0.766898
0.7667
0.766559
0.766528
0.76654
0.76659
0.766679
0.766782
0.766826
0.766824
0.766802
0.766734
0.766626
0.766555
0.766542
0.76655
0.766588
0.766675
0.766797
0.766902
0.76693
0.766924
0.766895
0.766831
0.76673
0.76661
0.766529
0.766515
0.766523
0.766557
0.766623
0.766708
0.766779
0.766811
0.766812
0.766799
0.766761
0.766696
0.766632
0.766611
0.76661
0.766618
0.766645
0.766697
0.766751
0.766773
0.766771
0.76675
0.766713
0.76676
0.767561
0.770266
0.773639
0.775482
0.775744
0.775346
0.774624
0.774019
0.773448
0.772803
0.772082
0.771261
0.770402
0.769528
0.76864
0.767627
0.766383
0.764907
0.763186
0.760616
0.751981
0.707433
0.512676
0.130068
0.00340212
6.4299e-06
6.63724e-10
1.91345e-14
2.27083e-14
1.70068e-14
1.47762e-14
8.49983e-15
8.83376e-15
1.47773e-14
1.92887e-14
2.06117e-14
1.89912e-14
1.94261e-14
2.26274e-14
2.42879e-14
2.3132e-14
1.96207e-14
1.53989e-14
1.17377e-14
1.20524e-14
1.04176e-14
9.3095e-15
1.07538e-14
1.01646e-14
1.38609e-14
1.54524e-14
1.68113e-14
1.7745e-14
1.71658e-14
1.57986e-14
1.51109e-14
1.56041e-14
1.57399e-14
1.48967e-14
1.12757e-14
9.3736e-15
4.85643e-15
1.85797e-15
6.14865e-15
9.84957e-15
1.36657e-14
1.43118e-14
1.34536e-14
1.20419e-14
1.38665e-14
1.54451e-14
1.43222e-14
1.3364e-14
1.6158e-14
1.72293e-14
1.46834e-14
1.56759e-14
1.5118e-14
1.29505e-14
1.50712e-14
1.65697e-14
1.61689e-14
1.83227e-14
1.95503e-14
1.78787e-14
1.84431e-14
1.85135e-14
1.65869e-14
1.31561e-14
1.26123e-14
9.5242e-15
8.29689e-15
8.90837e-15
8.09513e-15
1.01673e-14
7.75104e-15
1.23666e-14
1.2397e-14
1.60766e-14
1.60478e-14
1.27641e-14
1.01435e-14
9.58261e-15
1.14458e-14
9.32339e-15
7.49953e-15
1.02456e-14
1.09465e-14
1.30675e-14
1.35897e-14
1.29539e-14
1.38674e-14
1.40494e-14
1.15897e-14
1.33538e-14
1.16581e-14
1.22618e-14
1.40776e-14
1.37354e-14
1.45141e-14
1.4562e-14
1.30152e-14
1.4743e-14
1.74624e-14
1.76078e-14
1.85326e-14
2.12575e-14
2.10489e-14
1.8285e-14
1.6376e-14
1.33379e-14
1.13917e-14
1.09538e-14
1.35487e-14
1.0628e-14
9.31085e-15
8.8802e-15
9.05086e-15
1.16193e-14
1.31342e-14
1.19994e-14
1.2512e-14
1.30807e-14
1.35203e-14
1.79366e-14
2.03711e-14
2.10465e-14
2.13236e-14
2.17767e-14
2.17902e-14
1.85509e-14
1.74648e-14
1.58517e-14
1.2899e-14
1.36648e-14
1.389e-14
1.13863e-14
7.37882e-15
5.37197e-15
7.58008e-15
7.55364e-15
9.35279e-15
1.19267e-14
1.71104e-14
1.96883e-14
1.71038e-14
1.55298e-14
1.24089e-14
1.28844e-14
1.59082e-14
1.39461e-14
1.60261e-14
1.73843e-14
1.71782e-14
1.83157e-14
1.9573e-14
2.01647e-14
2.10459e-14
1.92868e-14
1.70705e-14
1.58366e-14
1.4689e-14
1.18835e-14
9.86562e-15
1.03295e-14
9.66876e-15
9.56836e-15
7.89929e-15
9.20557e-15
9.64882e-15
1.05497e-14
1.01058e-14
1.20843e-14
1.26823e-14
1.15922e-14
9.71146e-15
9.14781e-15
8.14048e-15
1.04769e-14
1.59192e-14
2.00293e-14
1.91456e-14
1.75229e-14
1.55583e-14
1.37025e-14
1.12603e-14
9.02077e-15
9.59773e-15
9.84589e-15
7.74468e-15
7.3162e-15
6.56357e-15
8.55255e-15
9.64105e-15
1.09911e-14
1.33711e-14
1.41428e-14
1.43178e-14
1.39362e-14
1.23468e-14
1.19144e-14
1.11329e-14
1.0286e-14
9.54834e-15
9.14724e-15
6.45626e-15
5.43542e-15
5.92555e-15
7.91659e-15
5.46787e-15
5.7286e-15
6.95434e-15
7.37623e-15
5.95237e-15
4.80009e-15
6.81628e-15
9.75539e-15
7.28548e-15
6.22991e-15
8.22084e-15
1.27406e-14
1.28511e-14
1.41099e-14
1.74412e-14
1.73937e-14
1.72022e-14
1.81649e-14
1.58158e-14
1.53959e-14
1.4067e-14
1.44648e-14
1.06613e-14
1.1535e-14
1.44019e-14
1.56071e-14
1.38536e-14
1.14308e-14
1.10281e-14
1.11174e-14
1.31281e-14
1.43056e-14
1.33278e-14
1.47844e-14
1.64066e-14
1.52623e-14
1.36602e-14
1.18201e-14
1.04943e-14
1.31423e-14
1.16557e-14
9.94944e-15
1.03148e-14
1.11389e-14
1.25947e-14
1.47948e-14
1.64722e-14
1.6363e-14
1.55405e-14
1.78904e-14
1.81894e-14
1.84705e-14
1.80633e-14
1.132
1.132
1.132
1.132
1.132
1.132
1.13195
1.1305
1.10462
1.03399
1.02046
1.02056
1.02066
1.0206
1.02043
1.02031
1.02025
1.02018
1.02007
1.01993
1.01979
1.01969
1.01959
1.01946
1.01934
1.01927
1.01921
1.01915
1.01909
1.01903
1.019
1.01899
1.01898
1.01896
1.01894
1.01892
1.0189
1.01887
1.01886
1.01886
1.01888
1.01891
1.01894
1.01896
1.01898
1.019
1.01902
1.01904
1.01906
1.01908
1.0191
1.01913
1.01915
1.01915
1.01914
1.01914
1.01914
1.01913
1.01913
1.01913
1.01913
1.01914
1.01914
1.01913
1.01911
1.0191
1.01909
1.01907
1.01906
1.01905
1.01905
1.01905
1.01905
1.01904
1.01904
1.01904
1.01903
1.01903
1.01903
1.01903
1.01904
1.01906
1.01906
1.01906
1.01907
1.01908
1.01908
1.01909
1.01909
1.0191
1.01912
1.01912
1.01911
1.0191
1.01909
1.01908
1.01905
1.01902
1.01896
1.01887
1.0187
1.01835
1.01769
1.01652
1.01446
1.01099
1.00537
0.996652
0.983809
0.965893
0.942332
0.913346
0.880264
0.845705
0.813539
0.787877
0.772028
0.766801
0.765562
0.765016
0.764936
0.764984
0.76517
0.765521
0.765988
0.766483
0.766983
0.767316
0.767347
0.767326
0.767238
0.767088
0.766898
0.7667
0.766559
0.766528
0.76654
0.76659
0.766679
0.766782
0.766826
0.766824
0.766802
0.766734
0.766626
0.766555
0.766542
0.76655
0.766588
0.766675
0.766797
0.766902
0.76693
0.766924
0.766895
0.766831
0.76673
0.76661
0.766529
0.766515
0.766523
0.766557
0.766623
0.766708
0.766779
0.766811
0.766812
0.766799
0.766761
0.766696
0.766632
0.766611
0.76661
0.766618
0.766645
0.766697
0.766751
0.766774
0.766773
0.766755
0.766712
0.7667
0.767103
0.769231
0.772895
0.775839
0.77678
0.776627
0.775838
0.774821
0.773855
0.77289
0.771983
0.771111
0.770334
0.769641
0.768976
0.768193
0.767133
0.765694
0.76379
0.760674
0.751256
0.706075
0.511839
0.13062
0.00346846
6.70037e-06
7.11539e-10
1.42166e-14
1.72272e-14
1.48848e-14
1.21814e-14
1.17425e-14
7.77093e-15
1.15503e-14
1.57996e-14
1.79966e-14
1.77756e-14
1.74241e-14
1.88575e-14
1.97891e-14
1.90739e-14
1.75384e-14
1.59737e-14
1.1262e-14
9.36804e-15
6.8665e-15
8.50052e-15
1.00823e-14
1.16404e-14
1.40547e-14
1.0817e-14
1.13182e-14
1.19326e-14
1.99489e-14
1.64635e-14
1.79981e-14
1.28856e-14
1.69739e-14
1.28998e-14
8.12868e-15
4.28539e-15
5.06182e-15
3.41705e-15
6.24331e-15
8.39507e-15
1.50378e-14
1.51927e-14
1.44297e-14
1.32732e-14
1.12544e-14
1.29796e-14
1.1618e-14
9.47958e-15
1.26259e-14
1.5207e-14
1.31622e-14
1.32943e-14
1.48438e-14
1.26609e-14
1.29924e-14
1.63578e-14
1.97536e-14
1.76236e-14
1.81147e-14
1.64202e-14
1.57383e-14
1.48462e-14
1.44274e-14
1.27327e-14
1.53148e-14
1.10903e-14
6.80891e-15
6.5241e-15
6.49343e-15
1.05217e-14
6.29429e-15
1.08598e-14
1.1199e-14
1.76094e-14
1.22659e-14
8.41117e-15
6.69356e-15
8.28752e-15
8.69731e-15
7.53202e-15
8.98861e-15
9.50187e-15
1.36233e-14
1.00777e-14
9.31466e-15
1.06116e-14
1.13983e-14
1.1068e-14
1.15568e-14
1.4093e-14
1.00989e-14
8.56404e-15
1.35119e-14
1.42547e-14
1.66633e-14
2.03428e-14
1.53337e-14
1.22005e-14
1.47843e-14
1.52179e-14
1.79422e-14
2.00624e-14
1.85512e-14
1.70476e-14
1.5781e-14
1.31946e-14
1.25678e-14
1.29169e-14
1.29896e-14
1.34571e-14
1.36917e-14
9.13767e-15
9.09834e-15
9.76418e-15
1.01828e-14
8.90192e-15
1.18782e-14
1.06806e-14
1.4352e-14
1.56758e-14
1.29508e-14
1.59469e-14
2.22528e-14
2.16567e-14
2.00725e-14
1.78799e-14
1.69203e-14
1.47644e-14
1.39741e-14
1.44504e-14
1.4019e-14
1.41014e-14
8.60804e-15
7.06275e-15
1.14732e-14
8.10268e-15
7.23523e-15
9.79293e-15
1.05434e-14
1.47396e-14
1.31514e-14
1.26476e-14
1.12094e-14
1.28638e-14
1.26162e-14
1.44667e-14
1.83454e-14
1.6182e-14
1.89335e-14
1.97533e-14
2.09661e-14
2.09041e-14
1.88722e-14
1.57607e-14
1.77869e-14
1.5585e-14
1.15165e-14
1.0819e-14
9.9987e-15
9.93654e-15
1.10508e-14
8.85993e-15
8.64974e-15
1.2399e-14
8.17217e-15
9.10703e-15
1.22608e-14
1.82229e-14
1.5103e-14
1.74939e-14
1.56083e-14
1.28288e-14
9.25975e-15
1.07672e-14
1.22929e-14
1.56718e-14
1.82773e-14
1.57087e-14
1.50074e-14
1.32404e-14
1.06481e-14
9.87775e-15
1.07561e-14
9.4883e-15
6.34245e-15
4.42181e-15
6.06799e-15
8.21825e-15
8.88942e-15
1.06804e-14
1.21176e-14
1.30347e-14
1.26911e-14
1.2727e-14
8.4249e-15
1.0517e-14
8.80893e-15
7.64361e-15
1.1049e-14
1.53051e-14
8.27721e-15
4.81091e-15
4.04343e-15
5.17006e-15
4.57018e-15
3.57455e-15
5.61817e-15
8.40674e-15
1.01076e-14
6.6111e-15
6.28957e-15
6.34164e-15
6.87208e-15
5.93286e-15
7.40135e-15
1.25367e-14
1.22149e-14
1.29193e-14
1.71477e-14
1.50726e-14
1.48514e-14
1.64322e-14
1.27431e-14
1.32102e-14
1.45988e-14
1.87211e-14
1.15139e-14
8.46094e-15
9.50116e-15
9.83772e-15
1.12934e-14
9.18624e-15
9.48416e-15
8.73087e-15
1.06377e-14
9.24753e-15
1.05215e-14
1.32176e-14
1.34222e-14
1.04675e-14
9.85603e-15
8.52645e-15
9.30059e-15
1.08292e-14
7.87982e-15
7.64737e-15
9.34709e-15
1.06731e-14
1.1863e-14
1.38228e-14
1.74923e-14
1.78734e-14
1.34243e-14
1.43638e-14
1.34966e-14
1.28497e-14
1.3657e-14
1.132
1.132
1.132
1.132
1.132
1.132
1.13195
1.1305
1.10462
1.03399
1.02046
1.02056
1.02066
1.0206
1.02043
1.02031
1.02025
1.02018
1.02007
1.01993
1.01979
1.01969
1.01959
1.01946
1.01934
1.01927
1.01921
1.01915
1.01909
1.01903
1.019
1.01899
1.01898
1.01896
1.01894
1.01892
1.0189
1.01887
1.01886
1.01886
1.01888
1.01891
1.01894
1.01896
1.01898
1.019
1.01902
1.01904
1.01906
1.01908
1.0191
1.01913
1.01915
1.01915
1.01914