/*--------------------------------*- C++ -*----------------------------------*\
| =========                 |                                                 |
| \\      /  F ield         | OpenFOAM: The Open Source CFD Toolbox           |
|  \\    /   O peration     | Version:  2406                                  |
|   \\  /    A nd           | Website:  www.openfoam.com                      |
|    \\/     M anipulation  |                                                 |
\*---------------------------------------------------------------------------*/
FoamFile
{
    version     2.0;
    format      ascii;
    arch        "LSB;label=32;scalar=64";
    class       volScalarField;
    location    "0.025";
    object      Ma;
}
// * * * * * * * * * * * * * * * * * * * * * * * * * * * * * * * * * * * * * //

dimensions      [0 0 0 0 0 0 0];

internalField   nonuniform List<scalar> 
83682
(
1.132
1.132
1.132
1.132
1.132
1.132
1.132
1.132
1.132
1.132
1.132
1.13199
1.13153
1.12128
1.05682
1.02147
1.02027
1.02016
1.0201
1.02002
1.01993
1.01986
1.01981
1.01976
1.01965
1.0195
1.01935
1.01922
1.01911
1.019
1.01895
1.01894
1.01896
1.01897
1.01899
1.01899
1.01895
1.0189
1.01886
1.01884
1.01884
1.01886
1.0189
1.01896
1.01899
1.01902
1.01904
1.01905
1.01905
1.01905
1.01906
1.01906
1.01907
1.0191
1.01912
1.01913
1.01913
1.01914
1.01915
1.01915
1.01915
1.01915
1.01915
1.01915
1.01914
1.01912
1.01911
1.0191
1.01908
1.01907
1.01907
1.01907
1.01907
1.01906
1.01905
1.01904
1.01902
1.01901
1.019
1.01901
1.01901
1.01903
1.01906
1.01908
1.01909
1.0191
1.0191
1.0191
1.0191
1.01909
1.01909
1.0191
1.01911
1.01911
1.01911
1.01911
1.01911
1.01911
1.0191
1.0191
1.0191
1.01911
1.01911
1.0191
1.0191
1.01909
1.01908
1.01908
1.01908
1.01908
1.01909
1.01909
1.01908
1.01907
1.01907
1.01906
1.01906
1.01906
1.01906
1.01907
1.01908
1.01908
1.01908
1.01908
1.01908
1.01907
1.01908
1.01908
1.01909
1.0191
1.0191
1.0191
1.0191
1.0191
1.0191
1.01909
1.01909
1.0191
1.0191
1.0191
1.01909
1.01909
1.01909
1.01908
1.01908
1.01908
1.01909
1.01909
1.01909
1.01909
1.01909
1.01908
1.01908
1.01907
1.01907
1.01908
1.01908
1.01908
1.01909
1.01909
1.01908
1.01899
1.01879
1.01872
1.01937
1.02152
1.0251
1.02897
1.0319
1.03344
1.03386
1.03366
1.0333
1.03295
1.03261
1.03208
1.03116
1.02961
1.0271
1.02325
1.01757
1.00938
0.998459
0.983307
0.964727
0.941445
0.912072
0.88055
0.849135
0.81988
0.795405
0.778433
0.770182
0.7674
0.766591
0.766201
0.765966
0.765838
0.76581
0.76586
0.76594
0.766017
0.766031
0.765882
0.765721
0.765567
0.765408
0.76524
0.765084
0.764943
0.764856
0.76481
0.764801
0.764829
0.764893
0.764984
0.765072
0.765147
0.765208
0.765257
0.765297
0.765331
0.765363
0.765396
0.76544
0.765494
0.765538
0.765543
0.76553
0.7655
0.765448
0.765371
0.765275
0.765198
0.765172
0.765166
0.76518
0.76522
0.765276
0.765326
0.765353
0.765359
0.765358
0.765339
0.765304
0.765283
0.765288
0.765302
0.765328
0.765373
0.765428
0.765462
0.765471
0.765472
0.76546
0.765437
0.765415
0.765414
0.765424
0.765452
0.765504
0.76558
0.765675
0.765772
0.765852
0.765911
0.765948
0.765971
0.765979
0.765956
0.765886
0.765832
0.7658
0.765789
0.765798
0.765766
0.765722
0.765684
0.765668
0.765693
0.765739
0.765779
0.765815
0.765844
0.765864
0.765868
0.765853
0.765832
0.765807
0.765779
0.765748
0.765717
0.765699
0.765694
0.765694
0.765696
0.765697
0.765692
0.765686
0.765677
0.765665
0.765648
0.765628
0.765617
0.765619
0.765625
0.765634
0.765649
0.765668
0.765678
0.765678
0.765676
0.765671
0.765661
0.765648
0.765642
0.765643
0.765646
0.765654
0.765667
0.765686
0.765704
0.765712
0.765712
0.76571
0.765706
0.765698
0.765686
0.765673
0.765664
0.76566
0.765658
0.765655
0.765643
0.765583
0.765226
0.763011
0.749376
0.674076
0.39429
0.0515509
0.000562903
4.06221e-07
1.53377e-11
2.80569e-14
2.75562e-14
2.50313e-14
2.46152e-14
2.83735e-14
2.66396e-14
2.75797e-14
2.40486e-14
2.31731e-14
2.74987e-14
3.30633e-14
3.92951e-14
4.01339e-14
3.86822e-14
3.19811e-14
2.59913e-14
2.31686e-14
1.98995e-14
1.87252e-14
1.15422e-14
1.03428e-14
5.77311e-15
9.82643e-15
1.18436e-14
1.1086e-14
1.69585e-14
2.52428e-14
2.99167e-14
3.06151e-14
3.2844e-14
3.43585e-14
3.59603e-14
3.08496e-14
3.44107e-14
3.64468e-14
3.30443e-14
3.66362e-14
4.34352e-14
5.23962e-14
5.33076e-14
5.18351e-14
5.13847e-14
5.18289e-14
4.96465e-14
4.04677e-14
3.15028e-14
2.73362e-14
3.26081e-14
3.94623e-14
4.75544e-14
4.50574e-14
4.53825e-14
3.95904e-14
3.53621e-14
3.61002e-14
3.32115e-14
3.17227e-14
2.24189e-14
1.86572e-14
1.61893e-14
1.68943e-14
1.41817e-14
1.09592e-14
1.49703e-14
1.98032e-14
1.61121e-14
1.43126e-14
2.10806e-14
2.6566e-14
2.54806e-14
2.82402e-14
3.24965e-14
3.44766e-14
2.8305e-14
2.70981e-14
2.32474e-14
1.80282e-14
1.8732e-14
2.07541e-14
1.97679e-14
1.86678e-14
2.01659e-14
2.08175e-14
1.57074e-14
1.39455e-14
1.35863e-14
1.17082e-14
1.24095e-14
9.67626e-15
4.19799e-15
1.17414e-14
1.87349e-14
2.08223e-14
2.71338e-14
3.43909e-14
3.64243e-14
3.80544e-14
3.5508e-14
3.17588e-14
2.84557e-14
2.85807e-14
2.44621e-14
2.02658e-14
1.93652e-14
1.87482e-14
1.51354e-14
1.45156e-14
1.64027e-14
1.78172e-14
1.97388e-14
2.36003e-14
2.55695e-14
2.49611e-14
2.60957e-14
2.28355e-14
1.86208e-14
1.95044e-14
2.28196e-14
1.97944e-14
1.12904e-14
1.05544e-14
6.41157e-15
4.05191e-15
9.3038e-15
1.05813e-14
7.60799e-15
7.78194e-15
9.04706e-15
1.37759e-14
2.04365e-14
2.69739e-14
3.0405e-14
3.30428e-14
3.67442e-14
3.44249e-14
2.8742e-14
2.24137e-14
1.7442e-14
1.63047e-14
2.17558e-14
3.11903e-14
3.27514e-14
4.36861e-14
5.18462e-14
5.20854e-14
4.55742e-14
4.38243e-14
4.63698e-14
4.78331e-14
5.37697e-14
4.99614e-14
5.327e-14
6.03206e-14
5.41455e-14
4.70823e-14
4.51781e-14
4.31222e-14
4.5044e-14
4.15535e-14
3.86935e-14
2.81285e-14
2.4621e-14
2.94753e-14
2.69441e-14
2.597e-14
2.1928e-14
1.85538e-14
2.06355e-14
2.06416e-14
1.95979e-14
1.39432e-14
1.46024e-14
9.39084e-15
1.09519e-14
1.90112e-14
2.42639e-14
2.14491e-14
2.26275e-14
2.16627e-14
2.25661e-14
1.50396e-14
9.04629e-15
3.9274e-15
8.88393e-15
1.31067e-14
1.49491e-14
1.83765e-14
1.60727e-14
2.41661e-14
2.80548e-14
2.67491e-14
2.89891e-14
3.49546e-14
4.27516e-14
4.79963e-14
5.3302e-14
5.34243e-14
5.23659e-14
5.21746e-14
4.62662e-14
4.05168e-14
3.28661e-14
2.07915e-14
1.55743e-14
1.416e-14
1.66776e-14
2.15799e-14
1.73219e-14
1.9754e-14
1.87616e-14
1.95872e-14
2.55914e-14
3.272e-14
3.87731e-14
3.79368e-14
3.75567e-14
3.19076e-14
3.06585e-14
3.44592e-14
3.4981e-14
3.29185e-14
3.52836e-14
3.33325e-14
3.14877e-14
2.9894e-14
2.61736e-14
2.22367e-14
1.72793e-14
1.54676e-14
1.50759e-14
1.51942e-14
1.70919e-14
1.8759e-14
2.27923e-14
2.97921e-14
3.591e-14
3.65433e-14
3.64775e-14
3.66183e-14
3.94602e-14
4.21365e-14
4.12299e-14
4.05239e-14
3.75023e-14
3.0456e-14
2.25115e-14
1.99466e-14
2.23062e-14
2.37592e-14
2.71781e-14
3.2137e-14
3.62478e-14
3.93025e-14
4.12309e-14
4.19078e-14
4.13545e-14
4.06878e-14
4.43612e-14
5.09978e-14
5.8838e-14
6.39439e-14
6.50388e-14
5.85315e-14
3.96895e-14
2.54605e-14
2.43411e-14
2.04782e-14
1.8515e-14
1.47752e-14
1.44142e-14
1.13317e-14
7.2472e-15
6.55957e-15
1.49867e-14
2.45432e-14
3.22533e-14
3.48068e-14
3.51986e-14
3.47617e-14
3.71226e-14
3.04742e-14
2.80694e-14
3.07034e-14
3.28507e-14
3.88373e-14
3.59388e-14
2.60579e-14
1.6666e-14
1.42377e-14
1.43903e-14
1.62266e-14
1.36884e-14
1.89968e-14
2.23294e-14
2.57496e-14
2.43946e-14
2.35546e-14
2.189e-14
2.14873e-14
2.06469e-14
1.78569e-14
1.62836e-14
2.05796e-14
2.36454e-14
1.98585e-14
1.69899e-14
1.40879e-14
1.16777e-14
8.29092e-15
1.06632e-14
1.0391e-14
1.78588e-14
2.59948e-14
3.01507e-14
3.19704e-14
3.61364e-14
3.3017e-14
2.45476e-14
1.91986e-14
1.64724e-14
1.8618e-14
2.3454e-14
2.46019e-14
2.64842e-14
3.11534e-14
3.02189e-14
2.974e-14
3.29146e-14
3.07183e-14
2.54127e-14
2.55516e-14
2.68253e-14
2.50458e-14
2.71187e-14
3.08035e-14
3.21523e-14
2.79281e-14
2.38464e-14
2.55591e-14
2.48489e-14
2.51064e-14
2.72326e-14
3.23742e-14
3.32679e-14
3.83224e-14
3.60762e-14
3.85937e-14
3.76851e-14
3.90233e-14
4.1392e-14
3.88092e-14
1.132
1.132
1.132
1.132
1.132
1.132
1.132
1.132
1.132
1.132
1.132
1.13199
1.13153
1.12128
1.05682
1.02147
1.02027
1.02016
1.0201
1.02002
1.01993
1.01986
1.01981
1.01976
1.01965
1.0195
1.01935
1.01922
1.01911
1.019
1.01895
1.01894
1.01896
1.01897
1.01899
1.01899
1.01895
1.0189
1.01886
1.01884
1.01884
1.01886
1.0189
1.01896
1.01899
1.01902
1.01904
1.01905
1.01905
1.01905
1.01906
1.01906
1.01907
1.0191
1.01912
1.01913
1.01913
1.01914
1.01915
1.01915
1.01915
1.01915
1.01915
1.01915
1.01914
1.01912
1.01911
1.0191
1.01908
1.01907
1.01907
1.01907
1.01907
1.01906
1.01905
1.01904
1.01902
1.01901
1.019
1.01901
1.01901
1.01903
1.01906
1.01908
1.01909
1.0191
1.0191
1.0191
1.0191
1.01909
1.01909
1.0191
1.01911
1.01911
1.01911
1.01911
1.01911
1.01911
1.0191
1.0191
1.0191
1.01911
1.01911
1.0191
1.0191
1.01909
1.01908
1.01908
1.01908
1.01908
1.01909
1.01909
1.01908
1.01907
1.01907
1.01906
1.01906
1.01906
1.01906
1.01907
1.01908
1.01908
1.01908
1.01908
1.01908
1.01907
1.01908
1.01908
1.01909
1.0191
1.0191
1.0191
1.0191
1.0191
1.0191
1.01909
1.01909
1.0191
1.0191
1.0191
1.01909
1.01909
1.01909
1.01908
1.01908
1.01908
1.01909
1.01909
1.01909
1.01909
1.01909
1.01908
1.01908
1.01907
1.01907
1.01908
1.01908
1.01908
1.01909
1.01909
1.01908
1.01899
1.01879
1.01872
1.01936
1.0215
1.0251
1.02899
1.03195
1.0335
1.03389
1.03364
1.03324
1.03287
1.03255
1.03206
1.03117
1.02964
1.02712
1.02323
1.01755
1.00925
0.998439
0.983089
0.964611
0.940855
0.913785
0.882718
0.850693
0.82092
0.796061
0.778745
0.770325
0.767518
0.766637
0.76622
0.765978
0.765844
0.765809
0.765854
0.765932
0.766009
0.766028
0.765882
0.765721
0.765566
0.765406
0.765236
0.765079
0.764936
0.76485
0.764803
0.764794
0.764822
0.764887
0.764978
0.765066
0.76514
0.765201
0.76525
0.76529
0.765325
0.765357
0.76539
0.765435
0.76549
0.765534
0.765539
0.765526
0.765496
0.765444
0.765367
0.765271
0.765194
0.765168
0.765162
0.765176
0.765216
0.765273
0.765324
0.76535
0.765356
0.765355
0.765336
0.765301
0.765279
0.765285
0.765299
0.765325
0.76537
0.765425
0.76546
0.76547
0.76547
0.765459
0.765435
0.765412
0.765411
0.765421
0.765449
0.765503
0.765583
0.765684
0.765787
0.765871
0.765933
0.765975
0.766001
0.766012
0.765987
0.765911
0.765849
0.76581
0.76579
0.76579
0.765755
0.765708
0.765664
0.765648
0.76568
0.765731
0.765775
0.765815
0.765846
0.765865
0.765868
0.765854
0.765831
0.765807
0.765779
0.765748
0.765718
0.765701
0.765697
0.765696
0.765699
0.765698
0.765692
0.765685
0.765676
0.765665
0.765648
0.765628
0.765618
0.76562
0.765625
0.765634
0.76565
0.765668
0.765678
0.765678
0.765676
0.765671
0.76566
0.765648
0.765643
0.765643
0.765647
0.765654
0.765668
0.765687
0.765704
0.765712
0.765712
0.765711
0.765707
0.765698
0.765687
0.765674
0.765664
0.76566
0.765658
0.765656
0.765644
0.765584
0.765227
0.763012
0.749378
0.674076
0.394287
0.0515499
0.000562885
4.06203e-07
1.53401e-11
2.77771e-14
2.57502e-14
2.11246e-14
2.05477e-14
2.55109e-14
2.39299e-14
2.30511e-14
2.22428e-14
2.32924e-14
2.7132e-14
3.27152e-14
3.7298e-14
3.72035e-14
3.58218e-14
3.25605e-14
2.77396e-14
2.30966e-14
1.97039e-14
1.85553e-14
1.18094e-14
9.47663e-15
4.75706e-15
1.06391e-14
1.16395e-14
1.22845e-14
1.86187e-14
2.35661e-14
2.80126e-14
3.04902e-14
2.92045e-14
2.9731e-14
3.3182e-14
3.11179e-14
3.17649e-14
3.43227e-14
3.08221e-14
3.5602e-14
4.44367e-14
5.01545e-14
5.49914e-14
5.32168e-14
5.16867e-14
4.85526e-14
4.62423e-14
3.87251e-14
3.32948e-14
2.79891e-14
2.7436e-14
3.19579e-14
3.83522e-14
3.85463e-14
3.82917e-14
3.50677e-14
3.1602e-14
3.30162e-14
2.77424e-14
2.54374e-14
1.99845e-14
1.83067e-14
1.45269e-14
1.48372e-14
1.30097e-14
1.04149e-14
1.44361e-14
1.89634e-14
1.53131e-14
1.54101e-14
2.17411e-14
2.38882e-14
2.29226e-14
2.66286e-14
2.93403e-14
2.86819e-14
2.56288e-14
2.4825e-14
2.08704e-14
1.8283e-14
2.06104e-14
2.01662e-14
1.87105e-14
1.87412e-14
2.09779e-14
1.93884e-14
1.49891e-14
1.36479e-14
1.15202e-14
9.8624e-15
9.93782e-15
7.16339e-15
6.17481e-15
1.26026e-14
1.9174e-14
2.41476e-14
3.00417e-14
3.45655e-14
3.50024e-14
3.66539e-14
3.416e-14
3.07476e-14
2.77823e-14
2.51416e-14
2.00857e-14
1.87635e-14
1.71501e-14
1.53923e-14
1.41867e-14
1.4375e-14
1.55535e-14
1.78829e-14
1.90403e-14
2.30479e-14
2.25259e-14
2.40209e-14
2.48656e-14
2.08307e-14
1.92551e-14
2.10371e-14
2.2121e-14
1.82385e-14
1.18529e-14
1.10052e-14
8.60323e-15
4.53942e-15
7.76955e-15
1.03363e-14
8.32347e-15
7.38768e-15
1.11572e-14
1.54577e-14
2.11048e-14
2.76647e-14
3.08719e-14
3.13623e-14
3.37818e-14
3.14326e-14
2.60098e-14
2.17441e-14
1.95808e-14
1.6022e-14
1.81929e-14
2.27731e-14
2.69963e-14
3.41502e-14
4.29665e-14
4.65687e-14
4.43813e-14
4.26658e-14
4.17637e-14
4.40157e-14
4.74267e-14
4.62947e-14
4.93873e-14
5.44003e-14
5.30811e-14
4.75125e-14
4.45707e-14
4.236e-14
3.89243e-14
3.68895e-14
3.28424e-14
2.54545e-14
2.16208e-14
2.50638e-14
2.36578e-14
2.38622e-14
1.87751e-14
1.72461e-14
1.8961e-14
2.01312e-14
1.75344e-14
1.35573e-14
1.30528e-14
1.02492e-14
1.29621e-14
1.73088e-14
1.92833e-14
1.75576e-14
1.86513e-14
1.76987e-14
1.6763e-14
1.33481e-14
9.71858e-15
1.00577e-14
9.7479e-15
1.34278e-14
1.36357e-14
1.79159e-14
1.49859e-14
2.08769e-14
2.45273e-14
2.51617e-14
2.8148e-14
3.19537e-14
3.8338e-14
4.12319e-14
4.73464e-14
5.00041e-14
5.21117e-14
5.00367e-14
4.47055e-14
3.54482e-14
2.83866e-14
1.83916e-14
1.45428e-14
1.29946e-14
1.35432e-14
1.85941e-14
1.75539e-14
1.87048e-14
1.90142e-14
2.06243e-14
2.6774e-14
3.15683e-14
3.59124e-14
3.45649e-14
3.48878e-14
3.3584e-14
3.31497e-14
3.29548e-14
3.41692e-14
3.27446e-14
3.31646e-14
3.16621e-14
2.9317e-14
2.6955e-14
2.42848e-14
2.26998e-14
1.65503e-14
1.4297e-14
1.05526e-14
1.5743e-14
1.75018e-14
1.93214e-14
2.33424e-14
2.82543e-14
3.45174e-14
3.75577e-14
3.98673e-14
3.84095e-14
3.93499e-14
4.01193e-14
3.71723e-14
3.72647e-14
3.85066e-14
3.32057e-14
2.45274e-14
2.38935e-14
2.5892e-14
2.32799e-14
2.67113e-14
3.23411e-14
3.38304e-14
3.85199e-14
3.99512e-14
4.23588e-14
4.05791e-14
4.28364e-14
4.59494e-14
5.15875e-14
5.44392e-14
5.70432e-14
5.69664e-14
5.32701e-14
3.77075e-14
2.17932e-14
2.13804e-14
1.83886e-14
1.69909e-14
1.48909e-14
1.36207e-14
9.78982e-15
8.34569e-15
7.41937e-15
1.25552e-14
2.1356e-14
2.8553e-14
3.15591e-14
3.15224e-14
3.04557e-14
3.1107e-14
2.78006e-14
2.667e-14
2.73132e-14
3.14587e-14
3.48901e-14
3.26084e-14
2.42254e-14
1.39528e-14
1.23955e-14
1.25243e-14
1.04235e-14
8.75497e-15
1.56835e-14
1.85532e-14
2.21978e-14
2.23019e-14
2.11253e-14
2.01271e-14
1.88535e-14
1.81717e-14
1.67375e-14
1.60002e-14
1.76278e-14
1.94776e-14
1.74474e-14
1.3623e-14
1.28887e-14
1.23578e-14
7.59239e-15
8.29319e-15
1.16273e-14
1.81166e-14
2.51959e-14
2.82558e-14
2.98759e-14
2.96692e-14
2.86015e-14
2.54469e-14
2.17032e-14
1.67838e-14
1.61823e-14
2.05235e-14
2.26721e-14
2.34503e-14
2.90533e-14
2.71771e-14
2.54649e-14
2.72517e-14
2.67691e-14
2.42772e-14
2.41156e-14
2.64558e-14
2.43543e-14
2.53721e-14
2.67723e-14
2.70406e-14
2.26776e-14
1.74241e-14
2.11498e-14
2.28741e-14
2.34387e-14
2.59377e-14
3.17143e-14
3.08589e-14
3.55786e-14
3.48134e-14
3.67911e-14
3.72936e-14
3.81624e-14
3.99592e-14
3.70324e-14
1.132
1.132
1.132
1.132
1.132
1.132
1.132
1.132
1.132
1.132
1.132
1.13199
1.13153
1.12128
1.05682
1.02147
1.02027
1.02016
1.0201
1.02002
1.01993
1.01986
1.01981
1.01976
1.01965
1.0195
1.01935
1.01922
1.01911
1.019
1.01895
1.01894
1.01896
1.01897
1.019
1.01899
1.01895
1.0189
1.01886
1.01884
1.01884
1.01886
1.01891
1.01896
1.01899
1.01902
1.01904
1.01905
1.01905
1.01905
1.01906
1.01906
1.01907
1.0191
1.01912
1.01913
1.01913
1.01914
1.01915
1.01915
1.01915
1.01915
1.01915
1.01915
1.01914
1.01912
1.01911
1.0191
1.01908
1.01907
1.01907
1.01907
1.01907
1.01906
1.01905
1.01904
1.01902
1.01901
1.019
1.01901
1.01901
1.01903
1.01906
1.01908
1.01909
1.0191
1.0191
1.0191
1.0191
1.01909
1.01909
1.0191
1.01911
1.01911
1.01911
1.01911
1.01911
1.01911
1.0191
1.0191
1.0191
1.01911
1.01911
1.0191
1.0191
1.01909
1.01908
1.01908
1.01908
1.01908
1.01909
1.01909
1.01908
1.01907
1.01907
1.01906
1.01906
1.01906
1.01906
1.01907
1.01908
1.01908
1.01908
1.01908
1.01908
1.01907
1.01908
1.01908
1.01909
1.0191
1.0191
1.0191
1.0191
1.0191
1.0191
1.01909
1.01909
1.0191
1.0191
1.0191
1.01909
1.01909
1.01909
1.01908
1.01908
1.01908
1.01909
1.01909
1.01909
1.01909
1.01909
1.01908
1.01908
1.01907
1.01907
1.01908
1.01908
1.01908
1.01909
1.01909
1.01909
1.01899
1.01879
1.01871
1.01934
1.02148
1.02509
1.02902
1.032
1.03356
1.03392
1.03362
1.03317
1.03278
1.03249
1.03204
1.0312
1.02968
1.02714
1.02321
1.01752
1.00913
0.998405
0.982925
0.96441
0.940622
0.91358
0.882845
0.851364
0.82161
0.796647
0.779125
0.770501
0.767697
0.766745
0.766282
0.766026
0.76588
0.765837
0.765873
0.765942
0.766009
0.766026
0.765883
0.765721
0.765565
0.765404
0.765229
0.765068
0.764922
0.764833
0.764786
0.764776
0.764805
0.76487
0.76496
0.765048
0.765121
0.765183
0.765232
0.765273
0.765309
0.765343
0.765377
0.765423
0.765478
0.765523
0.765528
0.765514
0.765484
0.765432
0.765355
0.76526
0.765184
0.765158
0.765152
0.765167
0.765208
0.765265
0.765316
0.765342
0.765348
0.765346
0.765327
0.765292
0.765271
0.765277
0.765291
0.765317
0.765363
0.765419
0.765455
0.765465
0.765465
0.765453
0.765429
0.765406
0.765404
0.765415
0.765446
0.765505
0.765597
0.765712
0.765831
0.765931
0.766008
0.766064
0.766101
0.766116
0.766085
0.765987
0.765895
0.765836
0.765797
0.765774
0.765724
0.765664
0.765608
0.765597
0.765646
0.765709
0.765763
0.765812
0.765848
0.765867
0.765869
0.765853
0.765831
0.765807
0.76578
0.76575
0.765722
0.765707
0.765704
0.765704
0.765705
0.765701
0.765694
0.765685
0.765675
0.765663
0.765646
0.765627
0.765619
0.765622
0.765628
0.765637
0.765651
0.765668
0.765677
0.765677
0.765675
0.76567
0.76566
0.765649
0.765644
0.765645
0.765648
0.765655
0.765669
0.765687
0.765705
0.765713
0.765713
0.765711
0.765707
0.765699
0.765688
0.765675
0.765666
0.765661
0.76566
0.765656
0.765644
0.765583
0.765227
0.763012
0.749378
0.674074
0.394283
0.0515481
0.000562849
4.06165e-07
1.53384e-11
2.26267e-14
2.28114e-14
2.23793e-14
1.84159e-14
2.09302e-14
2.40144e-14
2.33933e-14
2.38156e-14
2.28814e-14
2.71808e-14
3.35267e-14
3.51853e-14
3.52219e-14
3.49997e-14
3.2808e-14
2.8267e-14
2.49008e-14
2.13161e-14
1.6649e-14
1.00089e-14
5.03341e-15
3.5177e-15
1.10191e-14
1.158e-14
1.35033e-14
2.03169e-14
2.21822e-14
2.50637e-14
2.94518e-14
2.75649e-14
2.70075e-14
2.93148e-14
2.8726e-14
2.89056e-14
3.03076e-14
2.76303e-14
3.50779e-14
4.10427e-14
4.80921e-14
5.73046e-14
5.11846e-14
4.62365e-14
4.25592e-14
3.73268e-14
3.37675e-14
3.24505e-14
2.51317e-14
2.05784e-14
2.34624e-14
2.86961e-14
2.85936e-14
3.01333e-14
3.00638e-14
2.99891e-14
3.2885e-14
2.66648e-14
1.94102e-14
1.43449e-14
1.45821e-14
1.25883e-14
1.15072e-14
1.02801e-14
1.15896e-14
1.27656e-14
1.28751e-14
1.32876e-14
1.46272e-14
1.91529e-14
2.00424e-14
2.18952e-14
2.39773e-14
2.46169e-14
2.22398e-14
2.24639e-14
2.31932e-14
2.02121e-14
1.98381e-14
2.04933e-14
1.84174e-14
1.6947e-14
1.81522e-14
1.95644e-14
1.80703e-14
1.35046e-14
1.04741e-14
1.00605e-14
6.70848e-15
7.67642e-15
6.36594e-15
5.86317e-15
1.33598e-14
2.14369e-14
2.58281e-14
2.92408e-14
3.19955e-14
3.33239e-14
3.50204e-14
3.17764e-14
2.66006e-14
2.35133e-14
2.18774e-14
1.98953e-14
1.52496e-14
1.40355e-14
1.33016e-14
1.58805e-14
1.52209e-14
1.3857e-14
1.63132e-14
1.98177e-14
2.33793e-14
2.36903e-14
2.42365e-14
2.35425e-14
2.0422e-14
2.00375e-14
2.19149e-14
2.04965e-14
1.68401e-14
1.30923e-14
1.15482e-14
8.33178e-15
5.34443e-15
8.96646e-15
1.08224e-14
7.54583e-15
5.07747e-15
8.3695e-15
1.63722e-14
2.31034e-14
2.7837e-14
2.97318e-14
3.02249e-14
2.97659e-14
2.71231e-14
2.30786e-14
2.0246e-14
1.67222e-14
1.47232e-14
1.5077e-14
1.60724e-14
1.91137e-14
2.18896e-14
2.89157e-14
3.53645e-14
3.86085e-14
3.73481e-14
3.80968e-14
4.16785e-14
4.42044e-14
4.45776e-14
4.48702e-14
4.77111e-14
4.87149e-14
4.47054e-14
4.08294e-14
3.67158e-14
2.86598e-14
2.99855e-14
2.70409e-14
2.25545e-14
1.76149e-14
1.78263e-14
1.89043e-14
1.86376e-14
1.62173e-14
1.60635e-14
1.61112e-14
1.79645e-14
1.45059e-14
1.1051e-14
1.04567e-14
1.42857e-14
1.2956e-14
1.37055e-14
1.31251e-14
1.26603e-14
1.42421e-14
1.21116e-14
1.33262e-14
1.03803e-14
8.42043e-15
9.25233e-15
9.4573e-15
1.3222e-14
1.4749e-14
1.73209e-14
1.56332e-14
1.78945e-14
2.21105e-14
2.51842e-14
2.62908e-14
3.17725e-14
3.37221e-14
3.58332e-14
3.87875e-14
4.66645e-14
5.07462e-14
4.77799e-14
4.31696e-14
3.39068e-14
2.43313e-14
1.43251e-14
1.44757e-14
1.26057e-14
1.32995e-14
1.82866e-14
2.00708e-14
2.17649e-14
1.93487e-14
2.23722e-14
2.75163e-14
3.31039e-14
3.59758e-14
3.52604e-14
3.57228e-14
3.44882e-14
3.3e-14
3.3063e-14
3.15444e-14
3.10634e-14
3.28406e-14
3.10626e-14
2.61551e-14
2.38653e-14
1.99142e-14
1.72076e-14
1.36666e-14
8.05232e-15
6.19766e-15
1.15968e-14
1.35067e-14
1.47529e-14
2.1899e-14
3.05673e-14
3.3687e-14
3.95074e-14
3.8947e-14
3.65015e-14
3.64862e-14
3.75598e-14
3.58908e-14
3.64102e-14
3.72003e-14
3.283e-14
2.80586e-14
2.96883e-14
2.71787e-14
2.59578e-14
2.78966e-14
3.03294e-14
3.2398e-14
3.59959e-14
3.93135e-14
4.19826e-14
4.08598e-14
4.24776e-14
4.39048e-14
4.65645e-14
4.5942e-14
4.94065e-14
4.78732e-14
4.49226e-14
3.38594e-14
2.23282e-14
1.55727e-14
1.03588e-14
9.47112e-15
1.05226e-14
1.18123e-14
8.88406e-15
7.10024e-15
7.89178e-15
1.22464e-14
1.55819e-14
2.14645e-14
2.43365e-14
2.38825e-14
2.44839e-14
2.42502e-14
2.64725e-14
2.6864e-14
2.5994e-14
2.85937e-14
2.79782e-14
2.57482e-14
1.80979e-14
1.59705e-14
1.45826e-14
1.22451e-14
1.0722e-14
1.20742e-14
1.49566e-14
1.67077e-14
1.76811e-14
1.90474e-14
1.91402e-14
1.64714e-14
1.33532e-14
1.1838e-14
1.39181e-14
1.78199e-14
2.05499e-14
1.61216e-14
1.2771e-14
9.49411e-15
7.73022e-15
9.40467e-15
1.13689e-14
9.91185e-15
1.28033e-14
1.8773e-14
2.49195e-14
2.7417e-14
2.87389e-14
2.73086e-14
2.26662e-14
2.1669e-14
2.07295e-14
1.9448e-14
1.71342e-14
1.81789e-14
1.92682e-14
2.10135e-14
2.41101e-14
2.21981e-14
2.05837e-14
2.07808e-14
2.06583e-14
2.15933e-14
2.3126e-14
2.42474e-14
2.45854e-14
2.34746e-14
2.31509e-14
2.05142e-14
1.47963e-14
1.42383e-14
1.48694e-14
1.81678e-14
2.10958e-14
2.73718e-14
2.82554e-14
2.80138e-14
3.16791e-14
3.27198e-14
3.51868e-14
3.58169e-14
3.74779e-14
3.83248e-14
3.55415e-14
1.132
1.132
1.132
1.132
1.132
1.132
1.132
1.132
1.132
1.132
1.132
1.13199
1.13153
1.12128
1.05682
1.02147
1.02027
1.02016
1.0201
1.02002
1.01993
1.01986
1.01981
1.01976
1.01965
1.0195
1.01935
1.01922
1.01911
1.019
1.01895
1.01894
1.01896
1.01897
1.019
1.01899
1.01895
1.0189
1.01886
1.01884
1.01884
1.01886
1.01891
1.01896
1.01899
1.01902
1.01904
1.01905
1.01905
1.01905
1.01906
1.01906
1.01907
1.0191
1.01912
1.01913
1.01913
1.01914
1.01915
1.01915
1.01915
1.01915
1.01915
1.01915
1.01914
1.01912
1.01911
1.0191
1.01908
1.01907
1.01907
1.01907
1.01907
1.01906
1.01905
1.01904
1.01902
1.01901
1.019
1.01901
1.01901
1.01903
1.01906
1.01908
1.01909
1.0191
1.0191
1.0191
1.0191
1.01909
1.01909
1.0191
1.01911
1.01911
1.01911
1.01911
1.01911
1.01911
1.0191
1.0191
1.0191
1.01911
1.01911
1.0191
1.0191
1.01909
1.01908
1.01908
1.01908
1.01908
1.01909
1.01909
1.01908
1.01907
1.01907
1.01906
1.01906
1.01906
1.01906
1.01907
1.01908
1.01908
1.01908
1.01908
1.01908
1.01907
1.01908
1.01908
1.01909
1.0191
1.0191
1.0191
1.0191
1.0191
1.0191
1.01909
1.01909
1.0191
1.0191
1.0191
1.01909
1.01909
1.01909
1.01908
1.01908
1.01908
1.01909
1.01909
1.01909
1.01909
1.01909
1.01908
1.01908
1.01907
1.01907
1.01908
1.01908
1.01908
1.01909
1.01909
1.01909
1.01899
1.01879
1.01871
1.01933
1.02146
1.02508
1.02903
1.03204
1.03361
1.03395
1.0336
1.03311
1.0327
1.03244
1.03203
1.03122
1.02972
1.02717
1.0232
1.01749
1.00901
0.998349
0.982799
0.964202
0.940515
0.913397
0.882726
0.851228
0.821708
0.796911
0.779346
0.770571
0.767856
0.766868
0.766326
0.766051
0.765892
0.76584
0.765871
0.765938
0.766002
0.766021
0.765884
0.765722
0.765565
0.765403
0.765227
0.765064
0.764914
0.764823
0.764775
0.764765
0.764791
0.764855
0.764944
0.765031
0.765104
0.765164
0.765214
0.765255
0.765291
0.765325
0.765361
0.765407
0.765463
0.765508
0.765513
0.7655
0.765469
0.765417
0.76534
0.765244
0.765168
0.765144
0.765138
0.765154
0.765196
0.765253
0.765304
0.76533
0.765335
0.765333
0.765314
0.765278
0.765257
0.765264
0.765278
0.765305
0.765352
0.765409
0.765445
0.765455
0.765455
0.765444
0.765419
0.765395
0.765395
0.765408
0.765444
0.765514
0.765622
0.765762
0.765913
0.766048
0.766157
0.76624
0.766298
0.766318
0.766271
0.766145
0.765996
0.765895
0.765811
0.765742
0.765664
0.76558
0.765506
0.765513
0.765585
0.765667
0.765741
0.765805
0.765845
0.765864
0.765868
0.765853
0.765831
0.765807
0.765782
0.765754
0.76573
0.765719
0.765716
0.765717
0.765714
0.765707
0.765696
0.765684
0.765672
0.765659
0.765642
0.765626
0.765622
0.765626
0.765632
0.765642
0.765656
0.76567
0.765677
0.765676
0.765673
0.765668
0.765658
0.765649
0.765645
0.765647
0.765651
0.765659
0.765672
0.765689
0.765705
0.765713
0.765712
0.76571
0.765707
0.7657
0.765689
0.765676
0.765668
0.765664
0.765661
0.765657
0.765644
0.765582
0.765226
0.763012
0.749377
0.674073
0.394277
0.0515455
0.000562797
4.06109e-07
1.53333e-11
1.97036e-14
1.82968e-14
2.00311e-14
1.97316e-14
1.70363e-14
2.066e-14
2.1912e-14
2.30993e-14
2.16761e-14
2.81039e-14
3.07661e-14
3.24709e-14
3.10489e-14
3.17349e-14
3.21702e-14
2.72755e-14
2.33734e-14
2.03968e-14
1.60621e-14
1.04867e-14
4.69155e-15
1.39191e-15
7.48715e-15
1.29458e-14
1.46483e-14
1.84345e-14
2.17443e-14
2.47466e-14
2.83153e-14
2.73659e-14
2.8178e-14
2.93726e-14
2.74566e-14
2.62899e-14
2.49718e-14
2.48127e-14
3.2293e-14
3.51969e-14
4.17872e-14
4.73759e-14
4.58386e-14
4.01462e-14
3.40651e-14
2.9776e-14
2.68931e-14
2.69618e-14
2.20626e-14
2.20327e-14
2.3277e-14
2.32132e-14
2.59253e-14
2.72544e-14
2.56912e-14
2.61228e-14
2.65298e-14
2.27072e-14
1.64951e-14
1.17197e-14
1.21352e-14
1.01748e-14
8.28316e-15
8.41839e-15
1.0896e-14
9.75952e-15
8.26632e-15
1.03072e-14
1.34997e-14
1.79331e-14
1.88207e-14
1.93873e-14
2.01391e-14
2.01982e-14
1.87971e-14
1.86889e-14
1.83412e-14
1.53468e-14
1.5886e-14
1.61779e-14
1.51983e-14
1.38198e-14
1.63214e-14
1.90881e-14
1.64615e-14
1.25598e-14
1.14006e-14
8.28574e-15
5.38813e-15
5.45321e-15
6.85744e-15
6.68258e-15
1.51512e-14
2.24651e-14
2.53467e-14
2.71952e-14
2.88823e-14
3.17324e-14
3.1441e-14
2.7929e-14
2.39573e-14
2.16932e-14
1.83971e-14
1.88799e-14
1.74161e-14
1.22799e-14
1.38415e-14
1.77297e-14
1.60532e-14
1.57509e-14
1.56691e-14
2.12864e-14
2.4399e-14
2.39248e-14
2.41795e-14
2.30554e-14
2.13292e-14
2.02429e-14
2.01389e-14
2.13266e-14
1.96226e-14
1.61855e-14
1.53633e-14
1.0895e-14
6.31216e-15
6.78915e-15
8.31959e-15
8.10282e-15
5.66744e-15
7.65075e-15
1.65035e-14
2.31526e-14
2.7915e-14
2.9978e-14
2.89612e-14
2.70531e-14
2.37409e-14
2.07398e-14
1.81251e-14
1.59272e-14
1.39273e-14
1.24912e-14
1.05924e-14
1.12813e-14
1.54711e-14
2.28366e-14
2.94298e-14
3.3231e-14
3.40938e-14
3.59775e-14
3.89104e-14
4.09643e-14
3.98923e-14
3.98553e-14
4.30556e-14
4.20357e-14
3.89561e-14
3.45522e-14
3.29488e-14
2.72969e-14
2.14388e-14
1.82136e-14
1.90101e-14
1.90124e-14
1.577e-14
1.70884e-14
1.50282e-14
1.48288e-14
1.37465e-14
1.55894e-14
1.37289e-14
1.41811e-14
1.02858e-14
9.81103e-15
1.29721e-14
1.1669e-14
1.21904e-14
8.35197e-15
7.38035e-15
8.65271e-15
8.41283e-15
9.55539e-15
9.66849e-15
9.09153e-15
7.76589e-15
9.10159e-15
1.36196e-14
1.4758e-14
1.4652e-14
1.2904e-14
1.25566e-14
1.62254e-14
2.13505e-14
2.32376e-14
2.90517e-14
3.21242e-14
3.69421e-14
3.81023e-14
4.27115e-14
4.46212e-14
4.31878e-14
3.99264e-14
3.32834e-14
2.45914e-14
1.5563e-14
1.39332e-14
1.21975e-14
1.10762e-14
1.67498e-14
2.05624e-14
2.24463e-14
2.1151e-14
2.41132e-14
2.80428e-14
3.26011e-14
3.71977e-14
3.68974e-14
3.50441e-14
3.5428e-14
3.40517e-14
3.17166e-14
2.95664e-14
2.89168e-14
3.00161e-14
3.15468e-14
2.83539e-14
2.4361e-14
1.8884e-14
1.2395e-14
9.13833e-15
4.12272e-15
3.90564e-15
1.00622e-14
1.33639e-14
1.5393e-14
2.17397e-14
2.67553e-14
3.16114e-14
3.66911e-14
3.82246e-14
3.72764e-14
3.55092e-14
3.57188e-14
3.47489e-14
3.52897e-14
3.57466e-14
3.384e-14
3.07561e-14
3.02847e-14
2.90107e-14
2.92652e-14
2.86508e-14
2.6995e-14
3.20424e-14
3.4887e-14
3.86305e-14
4.11942e-14
4.05354e-14
4.27355e-14
4.26281e-14
4.59572e-14
4.88241e-14
4.81086e-14
4.77382e-14
4.0673e-14
3.12869e-14
2.12738e-14
1.6556e-14
1.00479e-14
7.34853e-15
7.58058e-15
9.50422e-15
7.54795e-15
4.7973e-15
4.72583e-15
8.19952e-15
1.12947e-14
1.47421e-14
1.66294e-14
1.57278e-14
1.75243e-14
1.96369e-14
2.20445e-14
2.22497e-14
2.45759e-14
2.41608e-14
2.26286e-14
2.15012e-14
1.8951e-14
1.86768e-14
1.71752e-14
1.55171e-14
1.33806e-14
1.46702e-14
1.33347e-14
1.41096e-14
1.59855e-14
1.4878e-14
1.52515e-14
1.28114e-14
1.0933e-14
9.81039e-15
1.40835e-14
2.07801e-14
2.11477e-14
1.67119e-14
1.16147e-14
1.0031e-14
1.21304e-14
1.0839e-14
1.29673e-14
1.58061e-14
1.43712e-14
1.85192e-14
2.42722e-14
2.68132e-14
2.82444e-14
2.73707e-14
2.14625e-14
1.90692e-14
1.6895e-14
1.52808e-14
1.44467e-14
1.6057e-14
1.62696e-14
1.85664e-14
1.94012e-14
2.04645e-14
2.04732e-14
1.71937e-14
1.57586e-14
1.86659e-14
1.92122e-14
2.05775e-14
2.19715e-14
2.10169e-14
1.95448e-14
1.48423e-14
1.07475e-14
1.13619e-14
1.45167e-14
1.85036e-14
2.04473e-14
2.63468e-14
2.89185e-14
2.84729e-14
2.85198e-14
3.03901e-14
3.28845e-14
3.44191e-14
3.61548e-14
3.65102e-14
3.52753e-14
1.132
1.132
1.132
1.132
1.132
1.132
1.132
1.132
1.132
1.132
1.132
1.13199
1.13153
1.12128
1.05682
1.02147
1.02027
1.02016
1.0201
1.02002
1.01993
1.01986
1.01981
1.01976
1.01965
1.0195
1.01935
1.01922
1.01911
1.019
1.01895
1.01894
1.01896
1.01897
1.01899
1.01899
1.01895
1.0189
1.01886
1.01884
1.01884
1.01886
1.01891
1.01896
1.01899
1.01902
1.01904
1.01905
1.01905
1.01905
1.01906
1.01906
1.01907
1.0191
1.01912
1.01913
1.01913
1.01914
1.01915
1.01915
1.01915
1.01915
1.01915
1.01915
1.01914
1.01912
1.01911
1.0191
1.01908
1.01907
1.01907
1.01907
1.01907
1.01906
1.01905
1.01904
1.01902
1.01901
1.019
1.01901
1.01901
1.01903
1.01906
1.01908
1.01909
1.0191
1.0191
1.0191
1.0191
1.01909
1.01909
1.0191
1.01911
1.01911
1.01911
1.01911
1.01911
1.01911
1.0191
1.0191
1.0191
1.01911
1.01911
1.0191
1.0191
1.01909
1.01908
1.01908
1.01908
1.01908
1.01909
1.01909
1.01908
1.01907
1.01907
1.01906
1.01906
1.01906
1.01906
1.01907
1.01908
1.01908
1.01908
1.01908
1.01908
1.01907
1.01908
1.01908
1.01909
1.0191
1.0191