/*--------------------------------*- C++ -*----------------------------------*\
| =========                 |                                                 |
| \\      /  F ield         | OpenFOAM: The Open Source CFD Toolbox           |
|  \\    /   O peration     | Version:  2406                                  |
|   \\  /    A nd           | Website:  www.openfoam.com                      |
|    \\/     M anipulation  |                                                 |
\*---------------------------------------------------------------------------*/
FoamFile
{
    version     2.0;
    format      ascii;
    arch        "LSB;label=32;scalar=64";
    class       volVectorField;
    location    "0.025";
    object      U;
}
// * * * * * * * * * * * * * * * * * * * * * * * * * * * * * * * * * * * * * //

dimensions      [0 1 -1 0 0 0 0];

internalField   nonuniform List<vector> 
83682
(
(347.059 -3.55449e-11 -2.42725e-11)
(347.059 -3.50452e-11 -2.33052e-11)
(347.059 -3.1039e-11 -2.15186e-11)
(347.059 -2.24724e-11 -2.3068e-11)
(347.059 -1.57251e-11 -2.2761e-11)
(347.059 -4.86289e-12 -2.15667e-11)
(347.059 4.882e-13 -2.13449e-11)
(347.059 4.64487e-12 -2.0983e-11)
(347.059 9.98765e-12 -1.53073e-11)
(347.059 -2.16455e-11 -1.22081e-10)
(347.059 9.02825e-10 1.81814e-09)
(347.055 -1.42536e-08 -2.33445e-08)
(346.94 9.20696e-08 1.38688e-07)
(344.373 6.61383e-06 1.43218e-08)
(328.1 2.89156e-05 1.11231e-05)
(318.827 3.12416e-06 -2.2377e-05)
(318.647 2.61917e-06 -2.09335e-05)
(318.64 2.34408e-05 1.70035e-05)
(318.624 2.80871e-05 2.72888e-05)
(318.596 3.01736e-05 3.87502e-05)
(318.558 9.02758e-06 2.36344e-05)
(318.512 -4.09842e-05 -3.23861e-05)
(318.476 -7.33692e-05 -7.02878e-05)
(318.461 -7.30716e-05 -7.40029e-05)
(318.432 -6.72962e-05 -6.93499e-05)
(318.411 -5.40464e-05 -5.19928e-05)
(318.397 -2.07416e-05 -8.13492e-06)
(318.388 2.88056e-05 4.77649e-05)
(318.358 7.19775e-05 9.12507e-05)
(318.323 9.88243e-05 0.000116249)
(318.3 9.44809e-05 0.000107897)
(318.281 3.85387e-05 3.17568e-05)
(318.268 -4.33579e-05 -8.41632e-05)
(318.263 -8.10319e-05 -0.000130015)
(318.269 -7.52868e-05 -0.000108943)
(318.273 -4.68318e-05 -6.06969e-05)
(318.276 -1.38145e-05 -1.28628e-05)
(318.28 0.000107088 0.000150473)
(318.284 0.000160173 0.000202418)
(318.281 0.000120645 0.000133793)
(318.278 2.38282e-05 -2.14284e-05)
(318.277 -1.42434e-05 -7.84723e-05)
(318.279 -9.49342e-05 -0.000181962)
(318.28 -0.000126213 -0.000177343)
(318.282 -7.03409e-05 -6.45224e-05)
(318.291 1.44537e-05 7.77268e-05)
(318.298 5.60072e-05 0.000144535)
(318.307 0.000104853 0.00020955)
(318.316 0.000132435 0.000196103)
(318.324 7.42518e-05 3.9568e-05)
(318.326 -1.70619e-05 -0.000145522)
(318.324 -0.000131695 -0.000350337)
(318.325 -0.0002213 -0.000489634)
(318.325 -0.000249664 -0.000523023)
(318.322 -0.000272251 -0.000511184)
(318.319 -0.000226971 -0.000379298)
(318.32 -0.000152871 -0.00022228)
(318.323 -5.13996e-05 -2.72933e-05)
(318.329 6.663e-05 0.000170648)
(318.335 0.0001372 0.000294812)
(318.339 0.00020148 0.000376092)
(318.343 0.000208162 0.000372171)
(318.346 0.000186702 0.000324685)
(318.345 0.000154405 0.000269156)
(318.341 0.000106761 0.000192365)
(318.335 6.04165e-05 0.000118571)
(318.328 2.40488e-05 6.14364e-05)
(318.323 3.15774e-06 2.84231e-05)
(318.319 -5.42302e-06 1.47701e-05)
(318.316 -1.27349e-05 2.18525e-06)
(318.315 -1.42262e-05 -2.66689e-06)
(318.316 -1.30612e-05 -2.18227e-06)
(318.317 -1.07455e-05 -4.59229e-07)
(318.317 -8.14964e-06 1.6227e-06)
(318.315 -6.16179e-06 3.03787e-06)
(318.31 -5.27915e-06 3.52821e-06)
(318.305 -5.61784e-06 3.21017e-06)
(318.3 -6.14372e-06 2.44422e-06)
(318.299 -5.84381e-06 1.92725e-06)
(318.299 -5.28532e-06 1.35811e-06)
(318.3 -4.19434e-06 7.27623e-07)
(318.305 -2.89578e-06 2.9154e-07)
(318.313 -1.55781e-06 6.05716e-08)
(318.319 1.78358e-07 -3.16326e-08)
(318.324 1.79809e-06 -6.87433e-08)
(318.326 1.95496e-06 -6.51739e-08)
(318.327 1.5474e-06 -6.08554e-08)
(318.327 1.00922e-06 -7.58818e-08)
(318.327 2.64045e-07 -5.6176e-08)
(318.326 -1.32774e-06 5.82601e-08)
(318.325 -3.54304e-06 2.03896e-07)
(318.326 -6.97303e-06 4.04769e-07)
(318.328 -8.26634e-06 4.78243e-07)
(318.327 -8.95511e-06 5.06036e-07)
(318.327 -9.41494e-06 4.8061e-07)
(318.327 -9.10808e-06 3.6539e-07)
(318.327 -7.43012e-06 1.82661e-07)
(318.326 -4.86731e-06 3.28062e-08)
(318.326 -3.28509e-06 -2.45752e-08)
(318.326 6.70831e-07 -1.86453e-07)
(318.327 4.96226e-06 -4.15383e-07)
(318.328 8.9574e-06 -6.32385e-07)
(318.327 1.15219e-05 -7.16913e-07)
(318.326 1.14933e-05 -6.75308e-07)
(318.324 1.05656e-05 -5.89919e-07)
(318.323 8.59819e-06 -4.13863e-07)
(318.321 6.18717e-06 -2.20594e-07)
(318.32 3.31481e-06 -4.96148e-08)
(318.32 3.89768e-07 5.79449e-08)
(318.32 -6.98715e-07 9.4427e-08)
(318.322 -1.38771e-06 1.18496e-07)
(318.322 -2.13846e-06 1.49977e-07)
(318.321 -2.52518e-06 1.78075e-07)
(318.319 -2.5574e-06 1.98625e-07)
(318.317 -2.36373e-06 1.97173e-07)
(318.315 -2.20703e-06 1.90071e-07)
(318.314 -2.29915e-06 1.91841e-07)
(318.314 -1.75351e-06 1.6031e-07)
(318.315 -1.89162e-06 1.4778e-07)
(318.317 -2.13906e-06 1.56884e-07)
(318.319 -1.46476e-06 1.1682e-07)
(318.319 -7.82922e-07 6.65182e-08)
(318.319 -6.10257e-07 5.23726e-08)
(318.32 -3.47649e-07 3.84172e-08)
(318.319 6.03831e-09 3.00366e-08)
(318.319 3.76434e-07 2.40816e-08)
(318.32 6.05521e-07 2.24029e-08)
(318.321 8.45902e-07 2.90874e-08)
(318.324 9.37996e-07 3.47271e-08)
(318.326 8.85229e-07 2.88274e-08)
(318.327 8.70398e-07 1.51463e-08)
(318.327 7.01693e-07 2.14518e-09)
(318.327 3.31039e-07 -1.78623e-09)
(318.326 1.64215e-07 -1.54429e-09)
(318.324 -2.57282e-07 1.04074e-08)
(318.324 -8.20203e-07 3.0759e-08)
(318.324 -8.13342e-07 3.09571e-08)
(318.325 -1.30789e-06 4.37856e-08)
(318.326 -1.35749e-06 5.70996e-08)
(318.325 -7.68003e-07 1.98001e-08)
(318.324 1.09296e-06 -2.85706e-08)
(318.323 1.86691e-06 -6.14646e-08)
(318.322 1.84809e-06 -5.30122e-08)
(318.321 2.91818e-06 -1.30629e-07)
(318.32 4.23117e-07 -1.75133e-08)
(318.321 3.80171e-06 -1.26847e-07)
(318.322 -7.37674e-07 -6.10465e-08)
(318.323 3.25983e-06 -1.4882e-07)
(318.323 -3.58716e-06 1.73917e-07)
(318.322 1.72598e-06 -1.45479e-07)
(318.322 -2.09182e-06 1.91239e-07)
(318.321 4.87811e-06 -2.74416e-07)
(318.32 -5.77151e-06 3.38193e-07)
(318.32 1.54522e-05 -6.49299e-07)
(318.32 -6.6246e-06 2.36109e-07)
(318.322 2.29114e-05 -9.94963e-07)
(318.324 -2.71724e-05 1.11874e-06)
(318.323 3.80883e-05 -1.35432e-06)
(318.324 -5.81478e-05 2.06255e-06)
(318.326 0.000128788 -5.37232e-06)
(318.323 -6.55829e-05 8.9726e-07)
(318.298 -0.000530106 1.93287e-05)
(318.244 -0.000332143 1.39849e-05)
(318.229 0.000904738 -2.07108e-05)
(318.397 0.00384861 -0.000128586)
(318.953 0.00896471 -0.000289353)
(319.882 0.0109515 -0.000433273)
(320.885 0.015504 -0.000626536)
(321.652 -0.00177444 -0.000171367)
(322.031 -0.0179072 0.000497118)
(322.166 -0.0282985 0.0010736)
(322.134 -0.0234937 0.00102456)
(322.079 -0.0120215 0.000697868)
(322.051 0.00376709 0.000160938)
(322.064 0.0229464 -0.000606849)
(322.086 0.0411365 -0.00154572)
(322.1 0.0340819 -0.00144836)
(322.103 0.0161599 -0.00103708)
(322.084 0.0302799 -0.00150405)
(322.055 -0.011 0.000605302)
(322.014 0.108529 -0.00467622)
(321.943 -0.0335956 0.001896)
(321.947 0.0577614 -0.00350662)
(321.791 0.148059 -0.00567841)
(321.807 0.160723 -0.00608633)
(321.595 0.0592199 -0.00236003)
(321.501 0.597704 -0.0212634)
(320.902 0.517016 -0.0252329)
(320.506 0.259935 -0.0161523)
(320.188 0.253796 -0.00790043)
(319.75 0.701601 -0.0291382)
(319.219 0.857221 -0.0418098)
(318.962 0.543427 -0.0258666)
(318.719 0.26664 -0.0101181)
(318.504 0.176634 -0.00598792)
(318.353 0.165857 -0.00622419)
(318.23 0.159907 -0.0070812)
(318.12 0.15145 -0.00664836)
(318.025 0.146492 -0.00462559)
(317.945 0.137094 -0.00241628)
(317.87 0.129867 -0.00232295)
(317.809 0.112327 -0.00378154)
(317.753 0.0801706 -0.00341652)
(317.659 0.0703982 -0.00281099)
(317.587 0.0639413 -0.00162495)
(317.525 0.0610744 -0.000882455)
(317.471 0.0613615 -0.000658222)
(317.429 0.0617184 -0.000846511)
(317.4 0.0582419 -0.00108985)
(317.38 0.0499052 -0.00110895)
(317.382 0.0417352 -0.000951136)
(317.396 0.035968 -0.000817716)
(317.421 0.0279897 -0.000670067)
(317.454 0.0233728 -0.000628633)
(317.496 0.0218297 -0.000645478)
(317.54 0.0206608 -0.000649553)
(317.578 0.0185439 -0.000626491)
(317.608 0.0158934 -0.000580239)
(317.63 0.0132895 -0.000506016)
(317.642 0.0109986 -0.000404275)
(317.649 0.00924228 -0.000301974)
(317.654 0.00784058 -0.000220395)
(317.659 0.00672648 -0.000176485)
(317.668 0.00590055 -0.000173963)
(317.686 0.00507383 -0.000193672)
(317.711 0.00417294 -0.000225381)
(317.735 0.00340072 -0.000270868)
(317.743 0.00297798 -0.00030768)
(317.744 0.00274638 -0.000337748)
(317.739 0.00244421 -0.000385844)
(317.724 0.00209724 -0.000436324)
(317.696 0.00158398 -0.000479961)
(317.658 0.000823134 -0.000509677)
(317.626 -7.42314e-05 -0.000512195)
(317.618 -0.000651468 -0.000506602)
(317.617 -0.000941284 -0.000507197)
(317.624 -0.000952284 -0.000500193)
(317.641 -0.000368325 -0.000436885)
(317.665 0.000552082 -0.000358562)
(317.686 0.00140085 -0.000362133)
(317.694 0.00193433 -0.000437247)
(317.691 0.00208036 -0.000502714)
(317.685 0.00195946 -0.000596167)
(317.672 0.00128125 -0.000666516)
(317.651 6.16726e-05 -0.000641765)
(317.639 -0.00151178 -0.000526023)
(317.642 -0.002635 -0.000433632)
(317.648 -0.00362543 -0.000342161)
(317.662 -0.00438834 -0.000247276)
(317.687 -0.0044469 -0.000198039)
(317.717 -0.00380079 -0.000240872)
(317.736 -0.00255656 -0.000386063)
(317.742 -0.00148287 -0.000510526)
(317.744 -0.000599682 -0.000588823)
(317.739 -0.000234028 -0.000586734)
(317.727 -0.00171866 -0.000483001)
(317.715 -0.00604683 -0.000280262)
(317.712 -0.0129128 -4.90679e-06)
(317.715 -0.024666 0.00039952)
(317.725 -0.044284 0.0010279)
(317.748 -0.0723416 0.00202713)
(317.782 -0.109889 0.00366923)
(317.825 -0.144247 0.00547954)
(317.87 -0.1602 0.00679788)
(317.907 -0.15811 0.00737776)
(317.933 -0.143815 0.00740639)
(317.949 -0.117414 0.00688749)
(317.957 -0.0698439 0.00521914)
(317.957 0.00494122 0.00249313)
(317.941 0.100207 -0.00165469)
(317.899 0.189715 -0.00618172)
(317.859 0.237884 -0.00885884)
(317.82 0.248836 -0.00957431)
(317.783 0.245814 -0.00960697)
(317.753 0.223684 -0.0088003)
(317.71 0.183382 -0.00719037)
(317.674 0.117932 -0.0044275)
(317.65 0.025688 -0.000492203)
(317.64 -0.0602203 0.00327918)
(317.651 -0.1046 0.00541817)
(317.674 -0.112222 0.00604324)
(317.697 -0.108394 0.00611543)
(317.723 -0.0953231 0.00584238)
(317.748 -0.0711479 0.00508514)
(317.771 -0.0385707 0.00364252)
(317.786 -0.00795261 0.0019369)
(317.79 0.00870339 0.000958719)
(317.789 0.0131227 0.000713803)
(317.784 0.010229 0.000782244)
(317.776 0.00316134 0.000908072)
(317.765 -0.00387742 0.00101304)
(317.754 -0.00770799 0.00110222)
(317.748 -0.00776524 0.00107416)
(317.748 -0.00579145 0.000941608)
(317.751 -0.00185868 0.000682417)
(317.756 0.00425604 0.000310593)
(317.76 0.009645 1.5867e-05)
(317.761 0.0114871 -7.05247e-05)
(317.762 0.0112287 -3.2275e-05)
(317.762 0.00848725 9.86342e-05)
(317.759 0.0037181 0.000259399)
(317.753 -0.00129649 0.000390867)
(317.745 -0.00517033 0.000502453)
(317.74 -0.00688815 0.0005506)
(317.741 -0.00674899 0.000536367)
(317.744 -0.00526743 0.000449138)
(317.748 -0.00192384 0.000250771)
(317.755 0.00169692 4.0905e-05)
(317.764 0.00414749 -8.67804e-05)
(317.77 0.004896 -0.00010939)
(317.771 0.00455635 -8.17968e-05)
(317.771 0.00335435 -2.03157e-05)
(317.77 0.000949692 7.6256e-05)
(317.767 -0.00151145 0.000163221)
(317.764 -0.00323849 0.000221008)
(317.762 -0.00384685 0.000233777)
(317.765 -0.00365913 0.000215845)
(317.768 -0.00268001 0.000151068)
(317.772 -0.000855837 4.09184e-05)
(317.78 0.00102381 -6.84555e-05)
(317.79 0.00221862 -0.000140109)
(317.799 0.00243574 -0.000154929)
(317.803 0.00184606 -0.000120611)
(317.803 0.00111203 -7.79694e-05)
(317.803 0.000127719 -2.33685e-05)
(317.801 -0.00120093 4.59053e-05)
(317.796 -0.00234567 0.000103936)
(317.79 -0.00319383 0.000140939)
(317.784 -0.00344023 0.000151613)
(317.779 -0.00306148 0.00013886)
(317.776 -0.00229072 0.000114075)
(317.775 -0.00160029 9.21106e-05)
(317.774 -0.0010815 7.75562e-05)
(317.769 -0.000694199 6.71006e-05)
(317.741 -0.00042485 5.66702e-05)
(317.568 -0.000290549 4.15876e-05)
(316.484 -0.000324655 2.89697e-05)
(309.815 -0.000500754 2.79164e-05)
(273.604 -0.000543974 2.03512e-05)
(149.667 -0.000239685 7.84411e-06)
(17.9479 -2.13483e-05 5.90457e-07)
(0.193474 -1.80652e-07 4.99209e-09)
(0.000139604 -1.22483e-10 7.87253e-12)
(5.271e-09 -7.3984e-12 4.79711e-12)
(-4.43812e-12 -7.84172e-12 3.43246e-12)
(-4.29101e-12 -7.38171e-12 4.0963e-12)
(-3.62303e-12 -7.00894e-12 3.42767e-12)
(-3.62517e-12 -6.27441e-12 4.36474e-12)
(-3.70619e-12 -5.74291e-12 6.95443e-12)
(-2.99558e-12 -4.6982e-12 7.2642e-12)
(-1.62826e-12 -4.20226e-12 8.33819e-12)
(1.55082e-12 -4.69685e-12 6.62108e-12)
(5.17362e-12 -5.19171e-12 3.11472e-12)
(6.68661e-12 -6.63302e-12 7.74917e-13)
(8.13569e-12 -7.26229e-12 3.19061e-12)
(9.90747e-12 -7.62922e-12 5.09934e-12)
(1.1215e-11 -7.42773e-12 3.04778e-12)
(1.20104e-11 -5.60168e-12 1.04567e-12)
(1.02171e-11 -3.97352e-12 -7.86817e-13)
(8.00932e-12 -3.65247e-12 -1.51522e-12)
(7.20583e-12 -2.76053e-12 -1.96272e-12)
(6.20562e-12 -1.63398e-12 -2.36404e-12)
(4.97686e-12 -1.42073e-12 -3.82413e-12)
(2.24041e-12 -1.53596e-12 -2.89061e-12)
(1.84541e-12 -2.6233e-12 -1.53198e-12)
(6.99027e-13 -1.53833e-12 -1.03981e-12)
(-2.81101e-12 -1.73465e-12 -7.0233e-13)
(-3.01904e-12 -2.64202e-12 6.86984e-13)
(-2.63315e-12 -2.12395e-12 1.75224e-12)
(-5.00548e-12 -1.50774e-12 2.57636e-12)
(-7.42973e-12 -2.4246e-12 3.76519e-12)
(-7.2899e-12 -3.32116e-12 6.44455e-12)
(-8.39263e-12 -2.95901e-12 5.61302e-12)
(-9.64694e-12 -3.29153e-12 4.84825e-12)
(-9.73359e-12 -4.24489e-12 5.16355e-12)
(-9.70673e-12 -4.95307e-12 5.82867e-12)
(-9.09723e-12 -4.39305e-12 3.2159e-12)
(-1.07687e-11 -4.36495e-12 2.19797e-12)
(-1.11589e-11 -5.2552e-12 2.17932e-12)
(-9.11506e-12 -6.72592e-12 -7.99761e-13)
(-7.93968e-12 -7.22388e-12 -6.5802e-12)
(-3.95249e-12 -7.0968e-12 -1.25233e-11)
(-1.98249e-12 -5.44104e-12 -1.70501e-11)
(-8.51722e-13 -4.66467e-12 -1.76956e-11)
(-6.16829e-13 -3.3722e-12 -1.74809e-11)
(-1.15066e-12 -3.14279e-12 -1.7339e-11)
(-9.76646e-13 -2.55508e-12 -1.76004e-11)
(-1.26669e-13 -2.26446e-12 -1.69103e-11)
(-6.69468e-13 -1.37186e-12 -1.38233e-11)
(6.95577e-13 -2.29119e-12 -1.05583e-11)
(1.68547e-12 -3.3344e-12 -8.61958e-12)
(9.43483e-13 -3.29436e-12 -1.06694e-11)
(2.72051e-12 -5.14382e-12 -1.22499e-11)
(3.60863e-12 -5.98874e-12 -1.47715e-11)
(3.87865e-12 -6.18822e-12 -1.36541e-11)
(5.39451e-12 -5.09188e-12 -1.37192e-11)
(4.65206e-12 -3.07103e-12 -1.24115e-11)
(2.00375e-12 -2.41279e-12 -1.1741e-11)
(1.70273e-12 -3.29213e-12 -1.18398e-11)
(1.84753e-12 -2.90962e-12 -1.08808e-11)
(-1.10724e-12 -3.9621e-12 -1.0096e-11)
(-1.35699e-12 -5.27969e-12 -5.44461e-12)
(2.99458e-14 -5.87891e-12 -2.55906e-12)
(-2.12843e-13 -5.22283e-12 -1.90558e-12)
(-4.21405e-13 -5.60743e-12 -1.44513e-12)
(5.82853e-13 -4.83836e-12 -6.33347e-14)
(-4.51981e-13 -3.23819e-12 1.86938e-12)
(-1.74648e-12 -3.18527e-12 3.64312e-12)
(-2.09017e-12 -4.43899e-12 4.71628e-12)
(-3.57727e-13 -4.41471e-12 3.32301e-12)
(1.66526e-12 -4.62646e-12 1.29219e-13)
(3.89545e-12 -5.33942e-12 -2.96666e-12)
(5.93481e-12 -5.99813e-12 -3.48619e-12)
(5.75248e-12 -5.15516e-12 -4.12486e-12)
(5.47099e-12 -5.75106e-12 -5.58421e-12)
(5.67477e-12 -5.41345e-12 -7.95064e-12)
(3.99726e-12 -5.85828e-12 -9.49138e-12)
(4.5588e-12 -6.34786e-12 -5.79177e-12)
(6.38833e-12 -6.26149e-12 -2.59003e-12)
(6.13889e-12 -4.9865e-12 -1.13022e-12)
(4.52887e-12 -4.07334e-12 -1.13281e-12)
(4.3037e-12 -4.59381e-12 -1.3478e-12)
(5.45548e-12 -4.41122e-12 -1.2847e-12)
(5.16458e-12 -4.24044e-12 -1.22387e-12)
(5.06366e-12 -3.69375e-12 -1.36883e-12)
(5.68997e-12 -3.73243e-12 -1.3124e-12)
(5.99574e-12 -3.77464e-12 -9.93023e-13)
(4.27325e-12 -3.15539e-12 -9.60254e-13)
(3.21495e-12 -3.35559e-12 -1.17174e-12)
(3.31868e-12 -3.13333e-12 -9.84465e-13)
(2.40883e-12 -2.97551e-12 -1.23854e-12)
(3.14463e-12 -2.83884e-12 -4.89802e-13)
(3.15674e-12 -1.04289e-12 -7.44011e-14)
(7.88024e-13 1.08643e-12 -5.29207e-13)
(-1.38358e-12 3.77872e-12 2.98105e-13)
(-4.87134e-12 4.14912e-12 7.137e-13)
(-6.19554e-12 3.21151e-12 1.58371e-12)
(-7.37279e-12 4.47949e-12 3.53978e-12)
(-9.72013e-12 4.2716e-12 5.19222e-12)
(-1.05346e-11 2.8713e-12 6.12139e-12)
(-1.12948e-11 2.02508e-12 6.27373e-12)
(-1.04816e-11 7.02432e-13 6.20888e-12)
(-8.76307e-12 -8.13405e-13 6.45522e-12)
(-8.13057e-12 -1.44036e-12 5.23944e-12)
(-7.72945e-12 -3.42185e-12 5.00214e-12)
(-5.28577e-12 -4.76936e-12 4.47071e-12)
(-4.32586e-12 -5.04847e-12 2.07503e-12)
(-3.00667e-12 -5.93554e-12 1.41985e-13)
(-3.08693e-13 -6.36642e-12 -9.41603e-13)
(5.37822e-13 -4.6962e-12 -2.17073e-12)
(1.23305e-12 -3.75138e-12 -3.04823e-12)
(2.30821e-12 -3.94947e-12 -3.29393e-12)
(2.94041e-12 -3.81897e-12 -3.77654e-12)
(3.22816e-12 -4.06474e-12 -4.36727e-12)
(4.72089e-12 -5.38743e-12 -3.80399e-12)
(5.97997e-12 -5.59593e-12 -3.18473e-12)
(6.61965e-12 -4.60351e-12 -2.92816e-12)
(7.34013e-12 -4.21806e-12 -2.95945e-12)
(6.42854e-12 -3.32328e-12 -3.03593e-12)
(4.54863e-12 -3.00803e-12 -3.34853e-12)
(4.38742e-12 -3.67038e-12 -3.4941e-12)
(6.33541e-12 -3.23958e-12 -3.29684e-12)
(6.25658e-12 -1.48221e-12 -2.2213e-12)
(3.75702e-12 -5.26707e-13 -8.14063e-13)
(3.26682e-12 4.98861e-13 -1.4951e-12)
(1.47599e-12 3.95715e-13 -1.58744e-12)
(6.09251e-13 -4.16544e-13 -1.18082e-12)
(3.13532e-12 1.62738e-13 -6.05408e-13)
(3.40558e-12 1.26625e-12 1.49037e-13)
(2.30238e-12 1.23763e-12 -5.86892e-14)
(2.28816e-12 1.32813e-12 3.90734e-13)
(2.30906e-12 1.85036e-12 -9.54575e-13)
(1.98026e-12 8.96703e-13 -4.20569e-12)
(7.75651e-13 -1.59811e-12 -6.79491e-12)
(-3.07095e-13 -3.96029e-12 -8.37578e-12)
(4.34218e-13 -5.52503e-12 -8.85828e-12)
(7.54831e-13 -6.21412e-12 -9.47444e-12)
(1.34859e-12 -6.54228e-12 -1.07162e-11)
(1.64108e-12 -5.71528e-12 -1.02277e-11)
(-5.02337e-13 -5.16935e-12 -8.40192e-12)
(7.06514e-13 -4.65935e-12 -6.09295e-12)
(9.15109e-13 -1.96897e-12 -5.58714e-12)
(-5.33542e-13 -3.3512e-13 -5.56781e-12)
(-1.3534e-13 4.07882e-13 -7.46433e-12)
(-1.05832e-12 -1.67229e-13 -1.06653e-11)
(-3.81531e-12 -7.46859e-13 -1.05627e-11)
(-5.59431e-12 -2.30536e-12 -1.37401e-11)
(-5.61302e-12 -2.79712e-12 -1.66775e-11)
(-6.73241e-12 -2.00034e-12 -1.64645e-11)
(-8.01538e-12 -9.07645e-13 -1.34252e-11)
(-8.71786e-12 -1.14655e-12 -1.22276e-11)
(-9.0907e-12 -1.47212e-12 -1.30052e-11)
(-1.08876e-11 -2.35898e-12 -1.20881e-11)
(-1.21208e-11 -4.10099e-12 -1.33316e-11)
(-1.01381e-11 -5.68387e-12 -1.2638e-11)
(-7.5698e-12 -7.26183e-12 -1.50037e-11)
(-7.6612e-12 -7.41271e-12 -1.7779e-11)
(-6.56638e-12 -7.44468e-12 -1.57389e-11)
(-4.90381e-12 -7.68536e-12 -1.33677e-11)
(-3.36925e-12 -5.87945e-12 -1.39693e-11)
(-8.78788e-13 -2.62137e-12 -1.45594e-11)
(-9.23668e-13 -9.51087e-13 -1.54231e-11)
(-3.04103e-12 -4.67089e-13 -1.39451e-11)
(-5.2718e-12 -6.88117e-13 -1.21885e-11)
(-3.78203e-12 -2.60692e-12 -8.50566e-12)
(-1.81639e-12 -5.49566e-12 -6.17197e-12)
(-1.40651e-12 -7.51133e-12 -6.6491e-12)
(-5.78868e-14 -7.92793e-12 -4.78403e-12)
(2.914e-12 -7.57911e-12 -3.70412e-12)
(3.17705e-12 -6.46154e-12 -2.22355e-12)
(1.7338e-12 -6.0974e-12 -6.8745e-13)
(2.99112e-12 -6.3959e-12 -6.6146e-13)
(4.58827e-12 -5.27132e-12 1.21768e-12)
(4.05532e-12 -4.32942e-12 3.18937e-12)
(2.96467e-12 -3.36703e-12 1.68369e-12)
(3.87314e-12 -3.19089e-12 -2.11022e-14)
(2.52639e-12 -1.64999e-12 -1.14469e-12)
(3.59991e-13 -2.77888e-12 -2.5128e-12)
(-9.07052e-13 -3.28241e-12 -5.57575e-12)
(-1.38247e-12 -4.19316e-12 -7.0738e-12)
(-1.32056e-12 -4.29247e-12 -5.84522e-12)
(-2.38186e-12 -4.60133e-12 -5.79869e-12)
(-1.70632e-12 -4.63058e-12 -5.57401e-12)
(-7.52658e-13 -3.87068e-12 -6.67788e-12)
(9.38543e-13 -2.1618e-12 -4.59998e-12)
(1.5818e-12 1.02675e-13 -2.67442e-12)
(-4.77737e-16 7.92641e-13 -1.09244e-12)
(-1.5253e-12 1.1867e-12 -2.36359e-12)
(-3.50736e-12 3.35042e-13 -2.80624e-12)
(-4.00109e-12 -2.01257e-12 -2.51685e-12)
(-3.40658e-12 -4.51827e-12 -2.80426e-12)
(-2.29496e-12 -5.01879e-12 2.35109e-13)
(-2.76074e-12 -6.99972e-12 3.51506e-12)
(-1.70158e-14 -7.99125e-12 5.39414e-12)
(1.72822e-12 -6.03239e-12 6.71782e-12)
(4.03232e-12 -5.43791e-12 7.30897e-12)
(6.41803e-12 -4.95926e-12 8.86106e-12)
(9.01403e-12 -5.08497e-12 1.04283e-11)
(9.35042e-12 -3.35268e-12 1.31682e-11)
(8.72363e-12 -2.34817e-12 1.59353e-11)
(7.62254e-12 -2.47439e-12 1.65186e-11)
(6.84448e-12 -3.4121e-12 1.62904e-11)
(7.1798e-12 -4.33793e-12 1.58473e-11)
(6.86037e-12 -3.66936e-12 1.38666e-11)
(6.69892e-12 -1.57961e-12 1.21042e-11)
(5.32888e-12 1.29066e-12 9.87483e-12)
(1.64224e-12 1.72712e-12 6.73611e-12)
(-1.122e-12 1.36847e-12 5.05132e-12)
(-1.42439e-12 -1.50574e-13 4.65071e-12)
(-2.42158e-12 -2.9517e-13 5.1864e-12)
(-3.0273e-12 -1.01882e-15 6.77023e-12)
(-3.50803e-12 7.0627e-13 4.75732e-12)
(-5.76579e-12 4.56036e-13 3.55451e-12)
(-5.82459e-12 1.48653e-13 2.76128e-12)
(-6.34508e-12 1.6394e-14 2.24755e-12)
(-8.21168e-12 3.34622e-13 3.13144e-12)
(-9.87162e-12 -5.10042e-13 5.36043e-12)
(-9.71979e-12 -6.61821e-13 9.09075e-12)
(-1.09301e-11 -3.61437e-13 7.09788e-12)
(-1.16111e-11 -1.74984e-12 5.35796e-12)
(-9.85383e-12 -1.87766e-12 4.42932e-12)
(-9.83888e-12 -1.20717e-12 3.57092e-12)
(-1.13285e-11 -1.54741e-12 3.08414e-12)
(-1.12294e-11 -3.38514e-12 2.63895e-12)
(-1.02587e-11 -4.32517e-12 2.00836e-12)
(-1.06846e-11 -5.54154e-12 1.47092e-12)
(-9.44907e-12 -6.44906e-12 5.87866e-13)
(-8.6904e-12 -6.37629e-12 -9.58089e-13)
(-8.1484e-12 -6.23176e-12 5.59569e-13)
(-6.65835e-12 -6.04217e-12 2.59594e-13)
(-5.50687e-12 -5.14315e-12 -1.27357e-12)
(-3.32679e-12 -4.9189e-12 -1.01357e-14)
(-5.75618e-13 -5.28281e-12 1.29557e-13)
(1.90656e-12 -4.78952e-12 -5.18439e-13)
(3.09121e-12 -3.80363e-12 -1.8008e-12)
(3.55162e-12 -4.01121e-12 -2.40806e-12)
(4.42322e-12 -4.13221e-12 -2.21836e-12)
(5.35994e-12 -5.01558e-12 -2.73302e-12)
(7.69792e-12 -6.0366e-12 -3.02127e-12)
(1.01102e-11 -5.86078e-12 -3.96683e-12)
(1.05066e-11 -5.16991e-12 -4.53899e-12)
(9.82545e-12 -6.01068e-12 -4.94809e-12)
(9.22696e-12 -7.20028e-12 -4.62457e-12)
(1.07218e-11 -7.34552e-12 -3.87156e-12)
(1.24103e-11 -6.79779e-12 -3.07709e-12)
(1.26623e-11 -4.90999e-12 -4.04061e-12)
(1.2355e-11 -2.39774e-12 -5.96277e-12)
(1.09562e-11 -6.02529e-13 -6.76042e-12)
(8.56173e-12 -1.33407e-12 -5.8709e-12)
(6.65575e-12 -2.0057e-12 -3.39562e-12)
(6.43895e-12 -2.28845e-12 -5.41034e-13)
(6.81114e-12 -3.3108e-12 -1.1884e-12)
(7.33471e-12 -3.41349e-12 -1.10458e-12)
(8.66424e-12 -2.67709e-12 -2.23662e-12)
(9.3456e-12 -1.42159e-12 -5.71108e-12)
(8.25038e-12 -7.15942e-13 -9.30574e-12)
(9.10955e-12 6.02183e-13 -9.95434e-12)
(7.93602e-12 3.05115e-12 -1.13352e-11)
(4.70561e-12 3.75153e-12 -1.30846e-11)
(3.27718e-12 2.69799e-12 -1.35633e-11)
(4.13021e-12 1.17557e-12 -1.33072e-11)
(4.03062e-12 -3.00635e-13 -1.46998e-11)
(3.12811e-12 -4.83133e-13 -1.72379e-11)
(2.61648e-12 -1.18302e-12 -2.00156e-11)
(4.75656e-12 -4.53268e-13 -2.14495e-11)
(4.737e-12 1.96198e-12 -2.17555e-11)
(2.00644e-12 3.3031e-12 -1.97404e-11)
(1.52028e-13 3.33273e-12 -1.32255e-11)
(-3.48965e-12 -2.21413e-14 -8.02385e-12)
(-3.93856e-12 -4.63001e-12 -5.74687e-12)
(-1.50226e-12 -5.98209e-12 -3.38911e-12)
(4.99202e-13 -6.20172e-12 -1.33276e-12)
(1.38021e-12 -4.85959e-12 -5.12453e-13)
(2.07875e-12 -4.28366e-12 -1.3666e-12)
(2.53426e-12 -2.50723e-12 -1.56744e-12)
(1.49275e-12 -1.98412e-12 -1.95069e-13)
(-3.32814e-14 -2.00535e-12 -1.02921e-12)
(-3.25585e-12 -3.38436e-12 -2.1147e-12)
(-4.27605e-12 -7.0352e-12 -1.83419e-12)
(-2.36527e-12 -1.03676e-11 -3.12747e-12)
(1.13995e-12 -1.12997e-11 -3.75539e-12)
(3.64895e-12 -1.05268e-11 -4.71133e-12)
(4.07802e-12 -9.09498e-12 -6.58533e-12)
(5.11034e-12 -7.95931e-12 -8.56112e-12)
(4.93283e-12 -5.82649e-12 -7.16941e-12)
(5.30644e-12 -5.06543e-12 -6.26394e-12)
(5.81411e-12 -4.63175e-12 -7.48869e-12)
(4.95082e-12 -3.61675e-12 -9.47966e-12)
(5.26363e-12 -4.59889e-12 -1.13704e-11)
(4.99387e-12 -3.85407e-12 -1.06185e-11)
(2.60533e-12 -3.90791e-12 -7.62467e-12)
(2.88767e-12 -4.3195e-12 -2.40988e-12)
(2.98484e-12 -3.62039e-12 1.38743e-12)
(1.62113e-12 -4.32824e-12 1.75942e-12)
(1.14775e-12 -4.42566e-12 3.19272e-12)
(-1.56331e-13 -4.33117e-12 1.82928e-12)
(-9.24423e-13 -6.45476e-12 3.21003e-13)
(-1.0068e-12 -7.38626e-12 -1.82127e-12)
(2.22836e-13 -8.48972e-12 -2.48674e-12)
(2.48675e-12 -7.68232e-12 -2.25432e-12)
(2.93578e-12 -6.41181e-12 -3.97453e-12)
(2.05865e-12 -4.72175e-12 -5.48267e-12)
(3.90193e-13 -4.04666e-12 -6.16457e-12)
(6.73226e-13 -3.74494e-12 -5.98913e-12)
(1.25774e-12 -2.40881e-12 -5.50232e-12)
(-1.03924e-12 -1.12528e-12 -5.38238e-12)
(-4.95723e-12 -1.57851e-12 -4.79103e-12)
(-5.94779e-12 -4.42139e-12 -3.33293e-12)
(-3.54502e-12 -5.58948e-12 -1.66331e-12)
(-1.77395e-12 -5.52208e-12 -6.72057e-13)
(-1.62112e-12 -4.48209e-12 -8.50228e-13)
(-4.90092e-13 -3.97963e-12 -1.67724e-13)
(5.23492e-13 -2.66057e-12 -8.75084e-13)
(-1.46979e-12 -1.88559e-12 -2.77727e-12)
(-3.21338e-12 -1.26511e-12 -9.08712e-13)
(-6.05829e-12 -9.66482e-13 1.76305e-13)
(-8.81423e-12 -1.31458e-12 -6.22816e-13)
(-9.69522e-12 -3.0959e-12 -1.94506e-12)
(-8.72747e-12 -5.17124e-12 -4.21966e-12)
(-8.71629e-12 -5.50549e-12 -6.92403e-12)
(-8.01747e-12 -6.29439e-12 -4.98494e-12)
(-5.31087e-12 -5.21574e-12 -3.96977e-12)
(-4.85724e-12 -3.72748e-12 -2.45866e-12)
(-4.14272e-12 -3.35497e-12 -1.90489e-12)
(-4.06376e-12 -4.47736e-12 -2.09238e-12)
(-5.37929e-12 -5.43572e-12 -2.54648e-12)
(-4.64141e-12 -6.4264e-12 -2.93972e-12)
(-4.61857e-12 -6.56326e-12 -4.29334e-12)
(-4.67252e-12 -7.51361e-12 -6.02811e-12)
(-2.91732e-12 -6.84163e-12 -7.24792e-12)
(-3.8794e-12 -6.41716e-12 -6.94479e-12)
(-4.80448e-12 -6.80693e-12 -7.65076e-12)
(-2.61276e-12 -6.87329e-12 -7.57476e-12)
(-1.23161e-12 -6.35769e-12 -5.85968e-12)
(-2.52231e-12 -5.51174e-12 -6.35355e-12)
(-3.04265e-12 -5.40361e-12 -6.82137e-12)
(-2.09692e-12 -4.75121e-12 -6.86406e-12)
(-3.10171e-12 -5.65878e-12 -6.72421e-12)
(-2.68726e-12 -7.64768e-12 -6.80856e-12)
(-9.66639e-13 -8.26823e-12 -7.26605e-12)
(5.37438e-13 -7.95344e-12 -5.34543e-12)
(7.89984e-13 -6.79963e-12 -4.50571e-12)
(1.57607e-12 -7.00736e-12 -5.0564e-12)
(2.66771e-12 -7.2026e-12 -3.73257e-12)
(3.5314e-12 -7.48894e-12 -2.42693e-12)
(4.56242e-12 -6.89511e-12 -4.38521e-12)
(3.68067e-12 -8.39921e-12 -6.30001e-12)
(4.12032e-12 -9.99756e-12 -3.71279e-12)
(7.05415e-12 -1.09263e-11 -2.07456e-12)
(7.87427e-12 -9.41219e-12 1.76609e-12)
(9.24507e-12 -8.79943e-12 3.60739e-12)
(9.01068e-12 -8.67328e-12 3.36314e-12)
(9.20246e-12 -9.24886e-12 3.10259e-12)
(1.101e-11 -8.77743e-12 2.02135e-12)
(1.07307e-11 -7.79881e-12 -1.38391e-12)
(347.059 -3.20038e-11 -2.19818e-11)
(347.059 -2.87092e-11 -2.24474e-11)
(347.059 -2.83194e-11 -2.05372e-11)
(347.059 -1.97429e-11 -2.21944e-11)
(347.059 -1.5993e-11 -2.17386e-11)
(347.059 -3.45912e-12 -2.09839e-11)
(347.059 3.64389e-12 -2.06507e-11)
(347.059 7.69338e-12 -2.0646e-11)
(347.059 1.14348e-11 -1.54697e-11)
(347.059 -9.68772e-12 -1.27907e-10)
(347.059 7.51796e-10 1.9165e-09)
(347.055 -1.57802e-08 -2.4736e-08)
(346.94 2.46183e-07 1.46504e-07)
(344.373 2.90478e-06 1.17277e-07)
(328.1 2.32445e-05 1.14565e-05)
(318.827 1.43286e-05 -2.34357e-05)
(318.647 1.12099e-05 -2.1862e-05)
(318.64 2.02701e-05 1.78945e-05)
(318.624 2.23519e-05 2.86157e-05)
(318.596 2.35311e-05 4.02736e-05)
(318.558 5.20188e-06 2.44905e-05)
(318.512 -4.02596e-05 -3.38705e-05)
(318.476 -6.93479e-05 -7.37205e-05)
(318.461 -6.78764e-05 -7.77081e-05)
(318.432 -6.28409e-05 -7.29053e-05)
(318.411 -5.13084e-05 -5.42014e-05)
(318.397 -2.07054e-05 -7.55799e-06)
(318.388 2.60681e-05 5.14967e-05)
(318.358 6.7448e-05 9.62211e-05)
(318.323 9.30375e-05 0.00012036)
(318.3 8.90864e-05 0.000111013)
(318.281 3.80922e-05 3.16525e-05)
(318.268 -3.68247e-05 -8.94164e-05)
(318.263 -7.12326e-05 -0.000136711)
(318.269 -6.55659e-05 -0.000111346)
(318.273 -3.99225e-05 -5.86648e-05)
(318.276 -1.09582e-05 -8.74908e-06)
(318.28 9.83874e-05 0.000154998)
(318.284 0.000144641 0.000199132)
(318.281 0.000108551 0.000126895)
(318.278 2.23048e-05 -3.21197e-05)
(318.277 -1.20796e-05 -8.93789e-05)
(318.279 -8.44807e-05 -0.000186482)
(318.28 -0.000110451 -0.000165509)
(318.282 -5.83833e-05 -4.61205e-05)
(318.291 1.91829e-05 9.85289e-05)
(318.298 5.72876e-05 0.000165853)
(318.307 0.000102649 0.000227635)
(318.316 0.00012958 0.000197075)
(318.324 7.53508e-05 2.10291e-05)
(318.326 -1.04962e-05 -0.000174959)
(318.324 -0.000118655 -0.000382439)
(318.325 -0.000202064 -0.000516437)
(318.325 -0.000227641 -0.000545106)
(318.322 -0.000246265 -0.000518028)
(318.319 -0.000203962 -0.000369905)
(318.32 -0.000138087 -0.000205688)
(318.323 -4.57656e-05 -7.43023e-06)
(318.329 6.30458e-05 0.00018887)
(318.335 0.000127143 0.000315807)
(318.339 0.000187469 0.000385737)
(318.343 0.000192956 0.000375293)
(318.346 0.000170216 0.000323209)
(318.345 0.000138678 0.000267204)
(318.341 9.53008e-05 0.000191921)
(318.335 5.36546e-05 0.000119612)
(318.328 2.11381e-05 6.24978e-05)
(318.323 2.40017e-06 2.93523e-05)
(318.319 -5.25782e-06 1.56848e-05)
(318.316 -1.15324e-05 3.17766e-06)
(318.315 -1.24351e-05 -1.62559e-06)
(318.316 -1.12865e-05 -1.18429e-06)
(318.317 -9.11421e-06 4.07923e-07)
(318.317 -6.78862e-06 2.2543e-06)
(318.315 -5.20781e-06 3.41937e-06)
(318.31 -4.63797e-06 3.68834e-06)
(318.305 -4.77597e-06 3.22997e-06)
(318.3 -4.93558e-06 2.40274e-06)
(318.299 -4.72249e-06 1.88096e-06)
(318.299 -4.41381e-06 1.31663e-06)
(318.3 -3.87656e-06 7.05771e-07)
(318.305 -3.12373e-06 2.93542e-07)
(318.313 -2.20891e-06 6.65587e-08)
(318.319 -7.19797e-07 -4.39863e-08)
(318.324 1.03068e-06 -8.45277e-08)
(318.326 1.57925e-06 -8.4511e-08)
(318.327 1.54381e-06 -7.49655e-08)
(318.327 1.52349e-06 -9.39911e-08)
(318.327 1.27775e-06 -1.09508e-07)
(318.326 1.34521e-07 -6.18442e-08)
(318.325 -1.90568e-06 6.68949e-08)
(318.326 -5.53969e-06 2.85461e-07)
(318.328 -7.11037e-06 3.75193e-07)
(318.327 -8.14375e-06 4.23123e-07)
(318.327 -9.10833e-06 4.2721e-07)
(318.327 -9.27596e-06 3.4276e-07)
(318.327 -7.93086e-06 1.90881e-07)
(318.326 -5.45466e-06 5.75578e-08)
(318.326 -3.83587e-06 3.77427e-09)
(318.326 1.9435e-07 -1.5622e-07)
(318.327 4.54886e-06 -3.8334e-07)
(318.328 8.5914e-06 -6.05546e-07)