/*--------------------------------*- C++ -*----------------------------------*\
| =========                 |                                                 |
| \\      /  F ield         | OpenFOAM: The Open Source CFD Toolbox           |
|  \\    /   O peration     | Version:  2406                                  |
|   \\  /    A nd           | Website:  www.openfoam.com                      |
|    \\/     M anipulation  |                                                 |
\*---------------------------------------------------------------------------*/
FoamFile
{
    version     2.0;
    format      ascii;
    arch        "LSB;label=32;scalar=64";
    class       volScalarField;
    location    "0.08";
    object      Ma;
}
// * * * * * * * * * * * * * * * * * * * * * * * * * * * * * * * * * * * * * //

dimensions      [0 0 0 0 0 0 0];

internalField   nonuniform List<scalar> 
14020
(
1.0193
1.0193
1.01931
1.01931
1.0193
1.0193
1.01929
1.01928
1.01927
1.01925
1.01924
1.01923
1.01923
1.01922
1.01921
1.0192
1.01918
1.01917
1.01916
1.01915
1.01914
1.01914
1.01914
1.01914
1.01913
1.01912
1.01912
1.01912
1.01912
1.01913
1.01915
1.01915
1.01914
1.01912
1.01911
1.01911
1.0191
1.0191
1.01911
1.01912
1.01911
1.01911
1.01911
1.01911
1.01911
1.01912
1.01913
1.01915
1.01916
1.01917
1.01917
1.01917
1.01917
1.01917
1.01918
1.01918
1.01918
1.01917
1.01916
1.01916
1.01916
1.01916
1.01916
1.01917
1.01917
1.01918
1.01918
1.01919
1.01919
1.01919
1.01919
1.0192
1.0192
1.01921
1.0192
1.0192
1.0192
1.01921
1.01922
1.01922
1.01923
1.01923
1.01922
1.01921
1.01921
1.01921
1.01921
1.01921
1.01922
1.01922
1.01922
1.01922
1.01922
1.01923
1.01925
1.01925
1.01926
1.01926
1.01925
1.01924
1.01923
1.01923
1.01921
1.01918
1.01915
1.01911
1.01904
1.01894
1.01879
1.01861
1.01832
1.01792
1.01734
1.01656
1.01548
1.01401
1.01204
1.00943
1.00603
1.00162
0.996002
0.988932
0.980178
0.969476
0.956634
0.941503
0.924051
0.904394
0.882847
0.859969
0.836707
0.814373
0.794608
0.779732
0.770793
0.766474
0.765715
0.765751
0.765836
0.765971
0.766103
0.766182
0.766221
0.766246
0.766269
0.766294
0.76632
0.766358
0.766438
0.766553
0.76665
0.766675
0.76667
0.766641
0.766577
0.766478
0.766377
0.766329
0.766319
0.766316
0.766337
0.76638
0.766415
0.766431
0.76655
0.766985
0.768207
0.770259
0.772877
0.775826
0.778958
0.7822
0.785515
0.788873
0.792256
0.795647
0.799044
0.802447
0.805866
0.809306
0.812775
0.816273
0.819801
0.823351
0.826916
0.830484
0.834052
0.837612
0.841168
0.844723
0.848287
0.851864
0.855459
0.859074
0.862707
0.866355
0.870011
0.873669
0.877322
0.880976
0.884623
0.888275
0.891929
0.895597
0.89928
0.902977
0.906687
0.910403
0.914133
0.917859
0.92159
0.925313
0.929039
0.932774
0.93652
0.940285
0.944052
0.947836
0.951631
0.955434
0.959236
0.963014
0.966784
0.970533
0.97426
0.977946
0.981585
0.985181
0.988799
0.992836
1.00046
1.0193
1.0193
1.01931
1.01931
1.0193
1.0193
1.01929
1.01928
1.01927
1.01925
1.01924
1.01923
1.01923
1.01922
1.01921
1.0192
1.01918
1.01917
1.01916
1.01915
1.01914
1.01914
1.01914
1.01914
1.01913
1.01912
1.01912
1.01912
1.01912
1.01913
1.01915
1.01915
1.01914
1.01912
1.01911
1.01911
1.0191
1.0191
1.01911
1.01912
1.01911
1.01911
1.01911
1.01911
1.01911
1.01912
1.01913
1.01915
1.01916
1.01917
1.01917
1.01917
1.01917
1.01917
1.01918
1.01918
1.01918
1.01917
1.01916
1.01916
1.01916
1.01916
1.01916
1.01917
1.01917
1.01918
1.01918
1.01919
1.01919
1.01919
1.01919
1.0192
1.0192
1.01921
1.0192
1.0192
1.0192
1.01921
1.01922
1.01923
1.01923
1.01923
1.01922
1.01921
1.01921
1.01921
1.01921
1.01921
1.01922
1.01922
1.01922
1.01922
1.01922
1.01923
1.01925
1.01925
1.01926
1.01926
1.01925
1.01924
1.01923
1.01923
1.01921
1.01918
1.01915
1.01911
1.01904
1.01894
1.0188
1.01862
1.01833
1.01793
1.01736
1.01659
1.01552
1.01407
1.01212
1.00955
1.00618
1.00181
0.996256
0.989254
0.980572
0.969951
0.957194
0.942142
0.924752
0.90513
0.883581
0.86066
0.837307
0.814831
0.794918
0.779914
0.770902
0.766532
0.765732
0.765763
0.765842
0.765974
0.766105
0.766184
0.766223
0.766247
0.76627
0.766295
0.76632
0.766358
0.766438
0.766553
0.76665
0.766675
0.76667
0.766641
0.766576
0.766477
0.766376
0.766329
0.766318
0.766316
0.766337
0.76638
0.766415
0.766431
0.76655
0.766985
0.768206
0.770258
0.772876
0.775825
0.778958
0.782199
0.785514
0.788873
0.792256
0.795647
0.799043
0.802446
0.805865
0.809305
0.812774
0.816272
0.8198
0.823349
0.826914
0.830482
0.834049
0.83761
0.841165
0.84472
0.848284
0.851861
0.855456
0.85907
0.862704
0.866352
0.870008
0.873667
0.877321
0.880974
0.884623
0.888275
0.891929
0.895598
0.899281
0.902978
0.906688
0.910404
0.914133
0.917859
0.921591
0.925313
0.929038
0.932773
0.93652
0.940284
0.94405
0.947834
0.951628
0.955432
0.959234
0.963012
0.966782
0.97053
0.974259
0.977945
0.981584
0.985181
0.988799
0.99284
1.00046
1.0193
1.0193
1.01931
1.01931
1.0193
1.0193
1.01929
1.01928
1.01927
1.01925
1.01924
1.01923
1.01923
1.01922
1.01921
1.0192
1.01918
1.01917
1.01916
1.01915
1.01914
1.01914
1.01914
1.01914
1.01913
1.01912
1.01912
1.01912
1.01912
1.01913
1.01915
1.01915
1.01914
1.01912
1.01911
1.01911
1.0191
1.0191
1.01911
1.01911
1.01911
1.01911
1.01911
1.01911
1.01911
1.01912
1.01913
1.01915
1.01916
1.01917
1.01917
1.01918
1.01917
1.01917
1.01918
1.01918
1.01918
1.01917
1.01916
1.01916
1.01916
1.01916
1.01916
1.01917
1.01918
1.01918
1.01918
1.01919
1.01919
1.01919
1.01919
1.0192
1.0192
1.01921
1.0192
1.0192
1.0192
1.01921
1.01922
1.01923
1.01923
1.01923
1.01922
1.01921
1.01921
1.01921
1.01921
1.01921
1.01922
1.01922
1.01922
1.01922
1.01922
1.01923
1.01924
1.01925
1.01925
1.01926
1.01925
1.01924
1.01923
1.01923
1.01921
1.01918
1.01915
1.01911
1.01904
1.01894
1.0188
1.01862
1.01833
1.01794
1.01738
1.01662
1.01556
1.01413
1.01221
1.00967
1.00635
1.00204
0.996557
0.989636
0.981038
0.970504
0.957832
0.942846
0.92549
0.905844
0.884219
0.861181
0.837691
0.815074
0.795043
0.77996
0.770922
0.766563
0.765759
0.765785
0.76586
0.765986
0.766114
0.766191
0.766228
0.76625
0.766271
0.766295
0.766319
0.766357
0.766437
0.766552
0.766649
0.766674
0.766669
0.76664
0.766575
0.766476
0.766375
0.766328
0.766318
0.766316
0.766337
0.76638
0.766414
0.76643
0.766549
0.766984
0.768205
0.770258
0.772876
0.775825
0.778958
0.782199
0.785514
0.788872
0.792255
0.795646
0.799043
0.802446
0.805865
0.809305
0.812774
0.816272
0.819799
0.823349
0.826914
0.830482
0.834049
0.837609
0.841164
0.844719
0.848283
0.851859
0.855454
0.859069
0.862703
0.866351
0.870008
0.873667
0.877321
0.880975
0.884623
0.888276
0.891931
0.895599
0.899282
0.90298
0.90669
0.910406
0.914135
0.917861
0.921593
0.925314
0.929039
0.932772
0.936519
0.940284
0.944049
0.947832
0.951626
0.955431
0.959233
0.96301
0.966779
0.970528
0.974259
0.977945
0.981583
0.98518
0.9888
0.992846
1.00045
1.0193
1.0193
1.01931
1.01931
1.0193
1.0193
1.01929
1.01928
1.01927
1.01925
1.01924
1.01923
1.01923
1.01922
1.01921
1.0192
1.01918
1.01917
1.01916
1.01915
1.01914
1.01914
1.01914
1.01914
1.01913
1.01912
1.01912
1.01912
1.01912
1.01913
1.01915
1.01915
1.01914
1.01912
1.01911
1.01911
1.0191
1.0191
1.01911
1.01911
1.01911
1.01911
1.01911
1.01911
1.01911
1.01912
1.01913
1.01915
1.01916
1.01917
1.01917
1.01918
1.01917
1.01917
1.01918
1.01918
1.01918
1.01917
1.01916
1.01916
1.01916
1.01916
1.01916
1.01917
1.01918
1.01918
1.01918
1.01919
1.01919
1.01919
1.01919
1.0192
1.0192
1.01921
1.0192
1.0192
1.0192
1.01921
1.01922
1.01923
1.01923
1.01923
1.01922
1.01921
1.01921
1.01921
1.01922
1.01922
1.01922
1.01922
1.01922
1.01922
1.01922
1.01923
1.01924
1.01925
1.01925
1.01926
1.01925
1.01924
1.01923
1.01923
1.01921
1.01918
1.01915
1.01911
1.01904
1.01894
1.0188
1.01862
1.01834
1.01795
1.01739
1.01664
1.0156
1.01419
1.0123
1.0098
1.00653
1.00229
0.996876
0.990037
0.981516
0.971055
0.958431
0.943455
0.926071
0.906342
0.884582
0.861389
0.837784
0.815121
0.795103
0.780025
0.770978
0.766608
0.76579
0.765814
0.765883
0.766004
0.766126
0.766201
0.766235
0.766255
0.766274
0.766296
0.766318
0.766355
0.766435
0.76655
0.766647
0.766672
0.766667
0.766638
0.766573
0.766474
0.766374
0.766327
0.766317
0.766315
0.766336
0.76638
0.766414
0.76643
0.766549
0.766983
0.768205
0.770257
0.772875
0.775825
0.778957
0.782199
0.785514
0.788872
0.792255
0.795646
0.799043
0.802445
0.805865
0.809305
0.812774
0.816272
0.819799
0.823349
0.826914
0.830481
0.834048
0.837608
0.841163
0.844718
0.848281
0.851858
0.855453
0.859068
0.862702
0.86635
0.870007
0.873667
0.877322
0.880975
0.884625
0.888278
0.891933
0.895603
0.899286
0.902985
0.906695
0.910411
0.914139
0.917866
0.921598
0.925317
0.929041
0.932773
0.93652
0.940284
0.944049
0.947831
0.951624
0.955431
0.959233
0.963009
0.966777
0.970525
0.974259
0.977944
0.981583
0.985179
0.988802
0.992853
1.00043
1.0193
1.0193
1.01931
1.01931
1.0193
1.0193
1.01929
1.01928
1.01926
1.01925
1.01924
1.01923
1.01923
1.01922
1.01921
1.0192
1.01918
1.01917
1.01916
1.01915
1.01914
1.01914
1.01914
1.01914
1.01913
1.01912
1.01912
1.01912
1.01912
1.01913
1.01915
1.01915
1.01914
1.01912
1.01911
1.01911
1.0191
1.0191
1.01911
1.01911
1.01911
1.01911
1.01911
1.01911
1.01911
1.01912
1.01913
1.01915
1.01916
1.01917
1.01917
1.01918
1.01917
1.01917
1.01918
1.01918
1.01918
1.01917
1.01916
1.01916
1.01916
1.01916
1.01916
1.01917
1.01918
1.01918
1.01918
1.01919
1.01919
1.01919
1.01919
1.0192
1.0192
1.0192
1.0192
1.0192
1.0192
1.01921
1.01922
1.01923
1.01923
1.01923
1.01922
1.01921
1.01921
1.01922
1.01922
1.01922
1.01922
1.01922
1.01922
1.01921
1.01922
1.01923
1.01924
1.01924
1.01925
1.01926
1.01926
1.01925
1.01924
1.01922
1.01921
1.01918
1.01915
1.01911
1.01904
1.01894
1.0188
1.01862
1.01834
1.01795
1.0174
1.01666
1.01563
1.01424
1.01238
1.0099
1.00668
1.00249
0.99714
0.99036
0.981889
0.971465
0.958845
0.943834
0.926375
0.90653
0.884657
0.861374
0.837706
0.815032
0.795034
0.779995
0.770971
0.766618
0.765806
0.765831
0.7659
0.76602
0.766141
0.766213
0.766244
0.766261
0.766278
0.766297
0.766318
0.766353
0.766433
0.766549
0.766645
0.76667
0.766665
0.766636
0.766571
0.766471
0.766371
0.766326
0.766315
0.766313
0.766335
0.766379
0.766413
0.766429
0.766548
0.766983
0.768204
0.770256
0.772874
0.775824
0.778957
0.782199
0.785514
0.788872
0.792255
0.795646
0.799042
0.802445
0.805864
0.809305
0.812774
0.816271
0.819799
0.823348
0.826913
0.83048
0.834047
0.837606
0.841161
0.844716
0.848279
0.851856
0.855451
0.859066
0.862701
0.866349
0.870007
0.873666
0.877323
0.880976
0.884627
0.888282
0.891938
0.895609
0.899292
0.902993
0.906703
0.91042
0.914147
0.917875
0.921605
0.925323
0.929046
0.932774
0.936522
0.940285
0.944049
0.947829
0.951621
0.95543
0.959231
0.963008
0.966774
0.970522
0.974261
0.977944
0.981582
0.985177
0.988803
0.99286
1.00042
1.0193
1.0193
1.01931
1.01931
1.0193
1.0193
1.01929
1.01928
1.01926
1.01925
1.01924
1.01923
1.01923
1.01922
1.01921
1.0192
1.01918
1.01917
1.01916
1.01915
1.01914
1.01914
1.01914
1.01914
1.01913
1.01912
1.01912
1.01912
1.01912
1.01913
1.01915
1.01915
1.01913
1.01912
1.01911
1.01911
1.0191
1.0191
1.01911
1.01911
1.01911
1.01911
1.01911
1.01911
1.01911
1.01912
1.01913
1.01915
1.01916
1.01917
1.01917
1.01918
1.01917
1.01917
1.01918
1.01918
1.01918
1.01917
1.01916
1.01916
1.01916
1.01916
1.01916
1.01917
1.01918
1.01918
1.01918
1.01918
1.01919
1.01919
1.0192
1.0192
1.0192
1.0192
1.0192
1.0192
1.0192
1.01921
1.01922
1.01923
1.01923
1.01923
1.01921
1.01921
1.01921
1.01922
1.01922
1.01922
1.01922
1.01922
1.01922
1.01921
1.01922
1.01923
1.01924
1.01924
1.01925
1.01926
1.01926
1.01925
1.01924
1.01922
1.0192
1.01919
1.01915
1.01911
1.01904
1.01894
1.0188
1.01862
1.01834
1.01796
1.01741
1.01668
1.01566
1.01428
1.01243
1.00998
1.0068
1.00263
0.997327
0.990569
0.982113
0.971691
0.959037
0.943959
0.926412
0.906484
0.884583
0.861302
0.837676
0.815037
0.795055
0.780021
0.770996
0.766638
0.765817
0.765842
0.765912
0.766032
0.766153
0.766224
0.766252
0.766267
0.766281
0.766298
0.766317
0.766351
0.766431
0.766547
0.766643
0.766667
0.766663
0.766633
0.766568
0.766469
0.766369
0.766324
0.766314
0.766312
0.766334
0.766379
0.766413
0.766429
0.766547
0.766982
0.768202
0.770254
0.772873
0.775823
0.778956
0.782198
0.785513
0.788871
0.792254
0.795645
0.799041
0.802444
0.805864
0.809304
0.812773
0.816271
0.819798
0.823347
0.826912
0.830479
0.834045
0.837604
0.841159
0.844713
0.848277
0.851853
0.855449
0.859064
0.862699
0.866347
0.870006
0.873666
0.877324
0.880977
0.88463
0.888286
0.891945
0.895616
0.8993
0.903002
0.906712
0.91043
0.914157
0.917885
0.921613
0.92533
0.929051
0.932776
0.936525
0.940286
0.944049
0.947827
0.951619
0.955429
0.95923
0.963008
0.96677
0.97052
0.974262
0.977943
0.98158
0.985175
0.988805
0.992866
1.0004
1.0193
1.0193
1.01931
1.01931
1.0193
1.0193
1.01929
1.01928
1.01926
1.01925
1.01924
1.01923
1.01923
1.01922
1.01921
1.0192
1.01918
1.01917
1.01916
1.01915
1.01914
1.01914
1.01914
1.01914
1.01913
1.01912
1.01912
1.01912
1.01912
1.01913
1.01915
1.01915
1.01913
1.01912
1.01911
1.01911
1.0191
1.0191
1.01911
1.01911
1.01911
1.01911
1.01911
1.01911
1.01911
1.01912
1.01913
1.01915
1.01916
1.01917
1.01917
1.01918
1.01917
1.01917
1.01918
1.01918
1.01918
1.01917
1.01916
1.01916
1.01916
1.01915
1.01916
1.01917
1.01918
1.01918
1.01918
1.01918
1.01919
1.01919
1.0192
1.0192
1.0192
1.0192
1.0192
1.0192
1.0192
1.01921
1.01922
1.01923
1.01924
1.01923
1.01921
1.01921
1.01921
1.01922
1.01922
1.01922
1.01923
1.01922
1.01922
1.01921
1.01922
1.01923
1.01924
1.01924
1.01925
1.01927
1.01927
1.01925
1.01924
1.01922
1.0192
1.01919
1.01915
1.01911
1.01904
1.01894
1.0188
1.01862
1.01834
1.01796
1.01741
1.01668
1.01567
1.01429
1.01245
1.01001
1.00684
1.00269
0.9974
0.990627
0.982166
0.971734
0.959037
0.943945
0.926335
0.906343
0.884431
0.861184
0.837605
0.814984
0.795019
0.779993
0.770988
0.766635
0.765814
0.76584
0.76591
0.766031
0.766154
0.766226
0.766254
0.766268
0.766281
0.766297
0.766315
0.76635
0.76643
0.766546
0.766641
0.766665
0.766661
0.766631
0.766566
0.766466
0.766367
0.766322
0.766312
0.766311
0.766333
0.766378
0.766412
0.766428
0.766547
0.766981
0.768201
0.770253
0.772872
0.775822
0.778955
0.782197
0.785513
0.788871
0.792253
0.795644
0.799041
0.802444
0.805863
0.809304
0.812773
0.81627
0.819798
0.823347
0.826911
0.830478
0.834043
0.837602
0.841156
0.844711
0.848274
0.851851
0.855446
0.859061
0.862697
0.866345
0.870004
0.873666
0.877325
0.880979
0.884633
0.88829
0.891951
0.895622
0.899307
0.903012
0.906722
0.910441
0.914166
0.917894
0.921621
0.925338
0.929055
0.932779
0.936527
0.940286
0.944049
0.947825
0.951617
0.955428
0.959229
0.963008
0.966767
0.970519
0.974263
0.977942
0.98158
0.985173
0.988807
0.992872
1.00038
1.0193
1.0193
1.01931
1.01931
1.0193
1.0193
1.01929
1.01928
1.01926
1.01925
1.01924
1.01923
1.01923
1.01922
1.01921
1.0192
1.01918
1.01917
1.01916
1.01915
1.01914
1.01914
1.01914
1.01914
1.01913
1.01912
1.01912
1.01912
1.01912
1.01913
1.01915
1.01915
1.01913
1.01912
1.01911
1.01911
1.0191
1.0191
1.01911
1.01911
1.01911
1.01911
1.01911
1.01911
1.01911
1.01912
1.01913
1.01915
1.01916
1.01917
1.01917
1.01918
1.01917
1.01917
1.01918
1.01918
1.01918
1.01917
1.01916
1.01916
1.01916
1.01915
1.01916
1.01917
1.01918
1.01918
1.01918
1.01918
1.01919
1.01919
1.0192
1.0192
1.0192
1.0192
1.0192
1.0192
1.0192
1.01921
1.01922
1.01923
1.01924
1.01923
1.01921
1.01921
1.01921
1.01922
1.01922
1.01922
1.01923
1.01922
1.01922
1.01921
1.01922
1.01923
1.01924
1.01924
1.01925
1.01927
1.01927
1.01926
1.01924
1.01922
1.0192
1.01919
1.01915
1.01911
1.01904
1.01894
1.0188
1.01862
1.01833
1.01795
1.0174
1.01667
1.01566
1.01427
1.01242
1.00999
1.0068
1.00266
0.997363
0.990561
0.982085
0.971665
0.958952
0.9439
0.926316
0.906288
0.88441
0.861207
0.837651
0.814966
0.795
0.779995
0.770996
0.766638
0.765815
0.765841
0.765913
0.766036
0.766161
0.766233
0.76626
0.766272
0.766283
0.766297
0.766314
0.766349
0.766429
0.766546
0.76664
0.766664
0.766659
0.76663
0.766564
0.766465
0.766365
0.766321
0.766311
0.76631
0.766333
0.766378
0.766412
0.766427
0.766546
0.76698
0.768201
0.770253
0.772871
0.775821
0.778954
0.782197
0.785512
0.78887
0.792253
0.795644
0.79904
0.802443
0.805863
0.809304
0.812772
0.81627
0.819797
0.823346
0.826911
0.830477
0.834042
0.837601
0.841155
0.844708
0.848272
0.851849
0.855444
0.859059
0.862695
0.866344
0.870003
0.873665
0.877326
0.880978
0.884634
0.888293
0.891955
0.895625
0.899312
0.903018
0.90673
0.910449
0.914173
0.917901
0.921627
0.925342
0.929057
0.932781
0.936528
0.940287
0.94405
0.947823
0.951615
0.955426
0.959229
0.963007
0.966764
0.970519
0.974262
0.977943
0.981578
0.985173
0.98881
0.992875
1.00037
1.0193
1.0193
1.01931
1.01931
1.0193
1.0193
1.01929
1.01928
1.01926
1.01925
1.01924
1.01923
1.01923
1.01922
1.01921
1.0192
1.01918
1.01917
1.01916
1.01915
1.01914
1.01914
1.01914
1.01914
1.01913
1.01912
1.01912
1.01912
1.01912
1.01913
1.01915
1.01915
1.01913
1.01912
1.01911
1.01911
1.0191
1.0191
1.01911
1.01911
1.01911
1.01911
1.01911
1.01911
1.01911
1.01912
1.01913
1.01915
1.01916
1.01917
1.01917
1.01918
1.01917
1.01917
1.01918
1.01918
1.01918
1.01917
1.01916
1.01916
1.01916
1.01915
1.01916
1.01917
1.01918
1.01918
1.01918
1.01918
1.01919
1.0192
1.0192
1.0192
1.0192
1.0192
1.0192
1.0192
1.0192
1.01921
1.01922
1.01923
1.01924
1.01923
1.01921
1.01921
1.01921
1.01922
1.01922
1.01922
1.01923
1.01922
1.01922
1.01921
1.01922
1.01923
1.01924
1.01924
1.01925
1.01927
1.01927
1.01926
1.01924
1.01922
1.0192
1.01919
1.01915
1.01911
1.01904
1.01894
1.0188
1.01862
1.01833
1.01795
1.0174
1.01667
1.01567
1.01425
1.01242
1.01
1.00678
1.00266
0.997348
0.990547
0.982037
0.971636
0.958923
0.943923
0.926324
0.906276
0.884412
0.86118
0.837636
0.814919
0.794966
0.779971
0.770987
0.766634
0.765811
0.765839
0.765912
0.766036
0.766161
0.766236
0.766262
0.766273
0.766283
0.766296
0.766312
0.766348
0.766429
0.766545
0.76664
0.766663
0.766659
0.766629
0.766564
0.766464
0.766365
0.76632
0.766311
0.766309
0.766332
0.766378
0.766412
0.766427
0.766546
0.76698
0.768201
0.770252
0.77287
0.77582
0.778954
0.782196
0.785512
0.78887
0.792253
0.795644
0.79904
0.802443
0.805863
0.809304
0.812772
0.81627
0.819797
0.823346
0.82691
0.830476
0.834041
0.837601
0.841154
0.844707
0.848271
0.85185
0.855443
0.859058
0.862696
0.866345
0.870003
0.873665
0.877326
0.880979
0.884636
0.888294
0.891956
0.895627
0.899315
0.903022
0.906736
0.91045
0.914174
0.917904
0.921629
0.925342
0.929056
0.932781
0.936528
0.940287
0.944048
0.947822
0.951614
0.955427
0.959232
0.963005
0.966762
0.970517
0.974262
0.977946
0.981576
0.985172
0.988811
0.992876
1.00036
4.21467e-14
3.17188e-14
2.8251e-14
2.58451e-14
2.03531e-14
2.72845e-14
3.09559e-14
3.47494e-14
2.99622e-14
2.56962e-14
2.85797e-14
2.47661e-14
2.12146e-14
1.47295e-14
9.70921e-15
1.7215e-14
1.70402e-14
2.23808e-14
1.61153e-14
1.92576e-14
1.79752e-14
1.36736e-14
1.80582e-14
4.23286e-14
1.05318e-10
8.75464e-08
1.04332e-05
0.000254051
0.00188021
0.00624152
0.0127507
0.0197882
0.0263572
0.0322108
0.0374279
0.0421295
0.0464087
0.050382
0.0542492
0.0583003
0.0628795
0.0683183
0.0748534
0.0826422
0.0919192
0.103179
0.117307
0.135603
0.159536
0.190192
0.228054
0.273523
0.326997
0.390656
0.483918
0.62429
0.812497
1.01296
1.15424
1.2972
1.44238
1.45772
1.33265
1.17005
1.02073
0.896109
0.808492
0.751798
0.716257
0.694294
0.687716
0.700238
0.735002
0.777561
0.814589
0.8376
0.844048
0.835369
0.808356
0.77029
0.727102
0.688367
0.657656
0.640068
0.641353
0.663144
0.697337
0.738595
0.781053
0.82307
0.858051
0.879639
0.885363
0.862728
0.820765
0.760798
0.685568
0.596037
0.486267
0.332223
5.37109e-14
4.00792e-14
2.73713e-14
2.85599e-14
2.49614e-14
2.18933e-14
2.97179e-14
3.42387e-14
3.75263e-14
3.20546e-14
2.54816e-14
2.37949e-14
1.88542e-14
1.18222e-14
8.57423e-15
8.95428e-15
1.10566e-14
1.25233e-14
2.0766e-14
2.37807e-14
1.60214e-14
2.08557e-14
1.97442e-14
1.56423e-14
3.01889e-14
6.11231e-11
5.83985e-08
7.84018e-06
0.000209917
0.00166369
0.00577218
0.0121023
0.0190582
0.0255922
0.0314201
0.0366104
0.0412869
0.0455437
0.0494876
0.0532997
0.0572485
0.0616587
0.0668524
0.0730741
0.080492
0.0893259
0.100011
0.11332
0.130413
0.152702
0.181411
0.21726
0.260774
0.312578
0.376236
0.472592
0.612498
0.787678
0.970259
1.08551
1.2262
1.37989
1.38949
1.24157
1.06909
0.907622
0.760515
0.643067
0.561304
0.503568
0.461694
0.435832
0.428115
0.437195
0.456244
0.47516
0.488638
0.495785
0.494029
0.480836
0.461656
0.439606
0.418791
0.40204
0.39196
0.392378
0.404329
0.422634
0.444392
0.465259
0.48334
0.496472
0.501301
0.491626
0.462149
0.420489
0.366649
0.304797
0.236941
0.168162
5.57521e-14
4.31049e-14
3.21931e-14
3.10924e-14
2.41548e-14
2.40864e-14
3.10219e-14
3.43504e-14
3.63455e-14
3.39397e-14
2.75251e-14
2.6319e-14
1.46491e-14
1.37069e-14
1.01928e-14
7.94925e-15
1.11839e-14
1.24961e-14
1.63229e-14
2.4462e-14
1.62379e-14
1.2319e-14
1.75404e-14
2.54637e-14
3.38911e-14
3.23962e-11
3.64154e-08
5.61485e-06
0.000167895
0.00144155
0.00526814
0.01139
0.0182502
0.0247456
0.0305469
0.0357086
0.0403569
0.0445876
0.0484986
0.0522518
0.0560936
0.0603285
0.0652664
0.0711538
0.0781632
0.0865013
0.096556
0.109003
0.124853
0.145394
0.171887
0.205263
0.246236
0.295717
0.358048
0.453501
0.588854
0.746692
0.909707
1.01219
1.14579
1.32302
1.31182
1.12914
0.945549
0.775163
0.645858
0.532544
0.438217
0.36487
0.311922
0.272321
0.246142
0.231485
0.225883
0.225455
0.228463
0.23209
0.232524
0.230254
0.2273
0.221658
0.21579
0.2105
0.206942
0.207859
0.213549
0.221239
0.229934
0.236721
0.24106
5.66255e-14
6.07265e-14
4.55104e-14
3.37788e-14
2.68823e-14
2.16208e-14
2.66767e-14
3.39289e-14
3.2291e-14
3.24152e-14
3.11293e-14
2.36859e-14
1.64484e-14
9.00839e-15
9.74342e-15
1.22561e-14
1.00156e-14
1.18651e-14
1.72793e-14
1.51365e-14
2.42683e-14
2.69869e-14
2.28647e-14
2.68006e-14
3.56918e-14
4.3465e-14
1.55676e-11
2.10573e-08
3.80513e-06
0.000129258
0.00121831
0.00473289
0.0106118
0.0173571
0.0238068
0.0295788
0.0347084
0.0393234
0.0435224
0.0473949
0.0510835
0.0548118
0.0588637
0.063536
0.069073
0.0756447
0.0834387
0.0928001
0.104325
0.118889
0.137614
0.161689
0.192151
0.229932
0.276326
0.335838
0.425497
0.547454
0.681306
5.1676e-14
5.0168e-14
4.13604e-14
3.79029e-14
2.84716e-14
2.99846e-14
3.18393e-14
3.76574e-14
4.00724e-14
3.37515e-14
3.37517e-14
3.13378e-14
2.60926e-14
1.81517e-14
2.09477e-14
2.13541e-14
2.14857e-14
2.09377e-14
2.16514e-14
2.05382e-14
2.78277e-14
3.74421e-14
3.25392e-14
3.59193e-14
4.50089e-14
5.11126e-14
6.68627e-12
1.11543e-08
2.41684e-06
9.5109e-05
0.000999408
0.00417244
0.00976847
0.0163753
0.0227712
0.0285113
0.0336061
0.0381835
0.0423459
0.0461757
0.0497957
0.0534051
0.057267
0.0616647
0.0668395
0.0729552
0.0801716
0.0887848
0.0993203
0.112544
0.12941
0.150963
0.178215
0.21225
0.254568
0.308825
0.386436
3.9257e-14
4.3387e-14
3.78801e-14
3.31385e-14
3.17375e-14
3.05278e-14
3.16145e-14
3.45995e-14
3.54141e-14
3.07611e-14
3.20695e-14
3.21001e-14
3.47843e-14
2.54666e-14
2.04861e-14
1.60475e-14
1.76742e-14
1.63337e-14
2.3153e-14
2.40705e-14
3.45961e-14
3.53657e-14
3.83708e-14
3.37848e-14
4.35235e-14
4.35796e-14
2.51454e-12
5.33046e-09
1.42178e-06
6.62995e-05
0.00079093
0.00359543
0.00886329
0.0153025
0.0216339
0.027339
0.0323956
0.0369297
0.0410489
0.0448307
0.0483778
0.051863
0.0555269
0.0596393
0.0644401
0.0700886
0.0767111
0.0845409
0.0940281
0.105847
0.12082
0.139815
0.163702
0.193542
0.230816
0.278193
4.02037e-14
4.20758e-14
4.28758e-14
3.72347e-14
3.81105e-14
3.9186e-14
4.02673e-14
4.46269e-14
4.65594e-14
4.72216e-14
4.58442e-14
4.32672e-14
4.27204e-14
4.33134e-14
3.23667e-14
2.53058e-14
2.8099e-14
2.6392e-14
3.36796e-14
4.19474e-14
4.26656e-14
4.18957e-14
4.23706e-14
4.25219e-14
4.75148e-14
5.12291e-14
8.10951e-13
2.25676e-09
7.63589e-07
4.33128e-05
0.000599293
0.00301338
0.00790241
0.0141375
0.0203906
0.0260578
0.0310741
0.0355595
0.039629
0.0433578
0.0468299
0.0501892
0.05365
0.0574668
0.0618803
0.0670533
0.0730818
0.080124
0.0885355
0.0989014
0.111946
0.128392
0.148899
0.17429
0.205754
0.244933
2.95856e-14
2.87718e-14
3.09382e-14
3.57171e-14
3.53594e-14
3.72766e-14
3.79701e-14
4.23361e-14
4.85016e-14
5.21715e-14
5.51191e-14
4.87333e-14
4.03392e-14
4.27977e-14
3.3508e-14
2.53672e-14
2.56344e-14
3.03378e-14
2.77296e-14
3.31311e-14
2.58541e-14
2.84485e-14
2.8858e-14
4.07878e-14
4.66008e-14
5.23786e-14
2.39996e-13
8.2804e-10
3.678e-07
2.61637e-05
0.000430603
0.00244086
0.00689615
0.0128817
0.0190379
0.0246636
0.0296384
0.0340704
0.038082
0.0417514
0.0451469
0.0483817
0.0516388
0.0551528
0.0591634
0.0638476
0.0692871
0.0755651
0.0829225
0.0918326
0.102935
0.11685
0.134049
0.154956
0.180381
0.211427
1.37924e-14
2.21524e-14
2.81984e-14
2.53323e-14
2.21808e-14
2.95969e-14
3.28283e-14
3.6218e-14
3.55013e-14
3.17795e-14
3.21764e-14
2.67994e-14
2.12809e-14
2.98074e-14
2.53437e-14
1.42176e-14
1.53499e-14
1.72199e-14
2.11318e-14
1.10537e-14
1.71512e-14
1.64504e-14
2.08735e-14
3.22325e-14
3.12448e-14
3.83908e-14
6.435e-14
2.56361e-10
1.55472e-07
1.43699e-05
0.000289835
0.00189526
0.00586016
0.0115398
0.0175731
0.0231525
0.0280864
0.032462
0.0364079
0.04001
0.0433267
0.0464421
0.0495029
0.0527161
0.0563136
0.0604904
0.0653397
0.0708895
0.0772604
0.0847828
0.0939872
0.105417
0.119443
0.136109
0.155905
0.179767
2.38395e-14
2.57274e-14
3.45025e-14
3.30155e-14
3.53201e-14
4.07235e-14
4.13464e-14
4.47666e-14
4.25328e-14
3.32222e-14
2.8494e-14
2.58117e-14
2.29769e-14
2.09753e-14
2.59736e-14
2.01379e-14
2.33238e-14
2.8513e-14
2.87778e-14
1.65055e-14
1.8972e-14
2.43844e-14
2.6067e-14
3.20327e-14
4.81219e-14
5.60285e-14
6.1403e-14
6.47893e-11
5.61419e-08
7.02514e-06
0.000179918
0.00139572
0.00481659
0.0101217
0.0159961
0.0215211
0.0264163
0.0307355
0.0346092
0.0381343
0.0413675
0.044369
0.0472471
0.0501733
0.0533612
0.0570164
0.0612628
0.0661093
0.0715716
0.0778373
0.0853064
0.0943922
0.105437
0.118221
0.133568
0.150628
3.72266e-14
4.02138e-14
4.43554e-14
4.41677e-14
4.87074e-14
5.27676e-14
5.48168e-14
5.4868e-14
5.21905e-14
4.43858e-14
3.55272e-14
3.45896e-14
3.0692e-14
3.1777e-14
3.58906e-14
3.68849e-14
3.9936e-14
3.95356e-14
3.68853e-14
2.83284e-14
3.01327e-14
3.40324e-14
4.17984e-14
6.28429e-14
7.71389e-14
8.24582e-14
7.78926e-14
1.28387e-11
1.67455e-08
2.9754e-06
0.000100943
0.000961252
0.00379482
0.00864482
0.0143104
0.0197666
0.0246258
0.0288926
0.0326917
0.0361311
0.0392733
0.0421639
0.0448759
0.0475398
0.0503412
0.0534822
0.0571138
0.0612606
0.0658683
0.0710475
0.0770256
0.0840541
0.092399
0.10206
0.113191
0.125179
5.62972e-14
5.81604e-14
6.10901e-14
6.38706e-14
6.39904e-14
6.10797e-14
6.67539e-14
6.53621e-14
6.40394e-14
6.09221e-14
5.23312e-14
4.80211e-14
4.20519e-14
4.90149e-14
4.98996e-14
5.08814e-14
4.52152e-14
4.68193e-14
4.53083e-14
4.31447e-14
4.98275e-14
5.35751e-14
6.73727e-14
9.39039e-14
1.06833e-13
1.07369e-13
9.47324e-14
1.8909e-12
3.95506e-09
1.05507e-06
4.98568e-05
0.000607675
0.00283127
0.0071361
0.0125252
0.0178885
0.0227126
0.0269347
0.0306621
0.0340108
0.0370539
0.0398328
0.0423937
0.044825
0.0472777
0.0499406
0.0529672
0.0563911
0.0602195
0.0644336
0.0691462
0.0745436
0.0807212
0.0876869
0.0953431
0.103488
7.29787e-14
7.47213e-14
7.65301e-14
8.33862e-14
8.37934e-14
8.18338e-14
8.51968e-14
8.39042e-14
8.20915e-14
7.64003e-14
6.67486e-14
6.69254e-14
6.81231e-14
6.64e-14
6.40029e-14
6.23176e-14
5.63286e-14
6.09397e-14
6.12022e-14
6.20043e-14
6.86184e-14
7.40201e-14
7.97211e-14
1.06129e-13
1.23648e-13
1.17722e-13
9.9535e-14
2.27573e-13
7.01557e-10
2.99759e-07
2.09382e-05
0.000343874
0.00196719
0.00563491
0.010659
0.0158901
0.020675
0.0248617
0.0285263
0.0317862
0.0347255
0.0373897
0.0398103
0.0420398
0.0441865
0.0464269
0.0489113
0.0516663
0.0546793
0.0579867
0.0616783
0.0658243
0.0703741
0.0752178
0.0802649
0.0854969
7.78393e-14
7.70928e-14
7.64456e-14
8.07814e-14
7.89199e-14
8.14785e-14
8.17416e-14
8.28387e-14
8.02349e-14
7.56676e-14
6.84804e-14
6.34501e-14
6.06192e-14
5.45604e-14
4.69046e-14
4.25378e-14
4.48788e-14
4.33368e-14
4.8493e-14
5.20254e-14
5.16376e-14
6.186e-14
7.69082e-14
9.19891e-14
1.03952e-13
9.77661e-14
8.73391e-14
6.86545e-14
8.74866e-11
6.44969e-08
7.14537e-06
0.000168369
0.00124356
0.00419453
0.00874259
0.0137816
0.0185139
0.0226733
0.0262882
0.0294684
0.0323065
0.0348551
0.0371402
0.0391887
0.0410746
0.0429984
0.0450163
0.0471524
0.0493967
0.0518261
0.0546088
0.0577729
0.0611597
0.0645374
0.0677768
0.0709264
6.15631e-14
6.17999e-14
6.17969e-14
6.82574e-14
7.1575e-14
7.36954e-14
7.90284e-14
8.4327e-14
8.58647e-14
8.14797e-14
7.52467e-14
6.32657e-14
5.56877e-14
4.34184e-14
3.68141e-14
3.36788e-14
3.16948e-14
3.48731e-14
3.65546e-14
3.83718e-14
4.33769e-14
5.28976e-14
6.25956e-14
7.13976e-14
7.36493e-14
7.17777e-14
6.41258e-14
5.62692e-14
7.0666e-12
9.78008e-09
1.86664e-06
6.8089e-05
0.000692185
0.00288191
0.00682373
0.0115828
0.0162344
0.0203706
0.0239502
0.0270653
0.0298124
0.0322513
0.0344077
0.0362962
0.0379723
0.0396359
0.0412997
0.042928
0.0444914
0.0461105
0.0480438
0.0503592
0.0528702
0.0552887
0.0574127
0.0592443
4.75337e-14
6.43706e-14
6.50132e-14
7.50157e-14
7.85001e-14
8.63414e-14
9.07118e-14
9.62168e-14
9.59251e-14
9.42997e-14
9.19608e-14
8.98261e-14
7.7162e-14
5.75432e-14
5.14321e-14
4.01996e-14
3.99664e-14
4.41625e-14
4.92295e-14
4.23979e-14
4.77661e-14
4.54398e-14
4.33667e-14
4.89271e-14
5.46061e-14
5.69993e-14
5.66052e-14
4.99219e-14
3.16167e-13
9.54934e-10
3.4525e-07
2.13583e-05
0.000323901
0.00177184
0.00497266
0.00932811
0.0138483
0.0179581
0.0215161
0.0245826
0.0272541
0.0295974
0.0316413
0.0333961
0.0349031
0.036347
0.0377446
0.039001
0.0400401
0.0409763
0.0421288
0.0436512
0.0454142
0.0471531
0.0486235
0.0497349
3.9412e-14
5.30632e-14
6.17443e-14
6.66072e-14
7.08626e-14
8.09948e-14
8.8407e-14
8.92386e-14
9.56975e-14
9.62765e-14
9.87564e-14
1.04721e-13
9.28967e-14
6.65729e-14
5.52762e-14
3.86746e-14
3.79926e-14
3.83062e-14
4.19227e-14
3.34852e-14
3.06809e-14
2.84131e-14
2.27196e-14
2.45931e-14
3.09318e-14
3.85675e-14
4.56464e-14
4.29236e-14
4.35506e-14
5.38183e-11
4.09012e-08
4.77637e-06
0.000119337
0.000931259
0.00328619
0.00707411
0.0113761
0.0154435
0.0189925
0.0220274
0.0246396
0.0269053
0.0288601
0.0305133
0.0318934
0.0331476
0.0343467
0.035352
0.0360423
0.0364733
0.0369715
0.0377728
0.0388394
0.0399916
0.041011
0.0417513
4.38702e-14
5.45825e-14
5.89095e-14
6.04305e-14
6.45283e-14
7.53623e-14
7.99198e-14
8.87388e-14
9.5467e-14
9.46269e-14
9.63411e-14
9.61621e-14
9.4208e-14
8.26119e-14