/*--------------------------------*- C++ -*----------------------------------*\
| =========                 |                                                 |
| \\      /  F ield         | OpenFOAM: The Open Source CFD Toolbox           |
|  \\    /   O peration     | Version:  2406                                  |
|   \\  /    A nd           | Website:  www.openfoam.com                      |
|    \\/     M anipulation  |                                                 |
\*---------------------------------------------------------------------------*/
FoamFile
{
    version     2.0;
    format      ascii;
    arch        "LSB;label=32;scalar=64";
    class       volScalarField;
    location    "0.08";
    object      p;
}
// * * * * * * * * * * * * * * * * * * * * * * * * * * * * * * * * * * * * * //

dimensions      [1 -1 -2 0 0 0 0];

internalField   nonuniform List<scalar> 
14020
(
330011
330011
330013
330016
330018
330020
330023
330028
330033
330036
330038
330041
330042
330042
330042
330046
330052
330056
330059
330063
330067
330069
330070
330073
330079
330086
330090
330091
330089
330084
330079
330079
330081
330085
330086
330085
330083
330080
330076
330074
330076
330078
330079
330078
330078
330078
330077
330075
330074
330072
330069
330068
330069
330069
330066
330061
330059
330060
330059
330056
330053
330054
330053
330051
330048
330047
330047
330046
330047
330050
330053
330053
330052
330051
330053
330052
330051
330047
330044
330038
330033
330030
330031
330032
330032
330032
330032
330032
330031
330031
330033
330038
330037
330035
330030
330029
330027
330027
330027
330030
330030
330026
330026
330025
330024
330019
330018
330018
330021
330013
330013
330012
330017
330014
330016
330019
330024
330025
330024
330028
330029
330032
330034
330045
330062
330086
330115
330148
330181
330210
330230
330216
330095
330128
330164
329805
329846
329914
329972
330040
330097
330110
330082
330035
329983
329938
329909
329906
329938
329995
330051
330070
330072
330064
330037
329993
329948
329935
329946
329968
330005
330051
330081
330082
330029
329835
329313
328457
327386
326206
324980
323733
322474
321204
319917
318613
317294
315965
314633
313303
311980
310667
309363
308068
306776
305484
304189
302890
301587
300285
298985
297692
296408
295136
293872
292615
291363
290112
288859
287606
286351
285099
283850
282609
281375
280149
278931
277718
276510
275302
274097
272891
271688
270488
269292
268104
266921
265749
264584
263425
262274
261125
259984
258846
257715
256599
255497
254419
253340
252151
249909
330011
330011
330013
330016
330018
330020
330023
330028
330032
330036
330038
330041
330042
330042
330042
330046
330052
330056
330059
330063
330067
330069
330070
330073
330079
330086
330090
330091
330089
330084
330079
330079
330081
330085
330086
330085
330083
330080
330076
330074
330076
330078
330079
330078
330078
330078
330077
330075
330074
330072
330069
330068
330069
330069
330066
330061
330059
330060
330059
330056
330053
330054
330053
330051
330048
330047
330047
330046
330048
330050
330053
330053
330052
330051
330053
330052
330051
330048
330044
330038
330033
330030
330031
330032
330032
330032
330032
330032
330030
330030
330033
330038
330037
330035
330031
330029
330027
330027
330027
330030
330029
330025
330025
330025
330024
330019
330018
330018
330021
330013
330014
330013
330018
330015
330016
330019
330024
330025
330023
330027
330027
330029
330030
330042
330058
330081
330110
330144
330179
330211
330231
330219
330102
330138
330175
329817
329848
329915
329973
330041
330097
330110
330082
330035
329983
329938
329909
329906
329938
329995
330051
330069
330072
330064
330037
329992
329948
329935
329946
329968
330005
330051
330081
330082
330029
329835
329313
328456
327386
326206
324980
323733
322475
321204
319917
318613
317294
315965
314633
313303
311980
310667
309363
308068
306776
305485
304189
302890
301588
300285
298985
297692
296409
295136
293872
292615
291363
290112
288859
287606
286351
285099
283850
282609
281374
280149
278931
277718
276510
275302
274097
272891
271688
270489
269292
268104
266921
265750
264584
263425
262274
261125
259984
258846
257715
256599
255497
254419
253340
252150
249911
330011
330011
330013
330016
330018
330020
330023
330028
330033
330036
330038
330041
330042
330042
330042
330046
330052
330056
330059
330063
330067
330069
330070
330073
330079
330086
330090
330091
330089
330084
330079
330079
330081
330086
330087
330085
330082
330080
330076
330074
330076
330078
330079
330078
330078
330078
330077
330075
330074
330072
330069
330068
330069
330069
330066
330061
330059
330060
330059
330056
330053
330054
330053
330051
330048
330047
330047
330046
330048
330050
330053
330053
330052
330051
330053
330052
330051
330048
330044
330038
330033
330030
330031
330032
330032
330032
330032
330032
330030
330030
330033
330038
330038
330036
330031
330030
330028
330026
330027
330029
330028
330025
330025
330025
330024
330019
330019
330019
330021
330014
330016
330014
330018
330015
330016
330019
330022
330024
330022
330026
330025
330028
330031
330044
330061
330083
330108
330142
330179
330210
330229
330219
330104
330133
330171
329819
329848
329916
329974
330041
330097
330110
330083
330036
329984
329938
329909
329906
329938
329996
330051
330069
330072
330063
330036
329992
329947
329935
329946
329969
330005
330052
330081
330082
330029
329835
329313
328456
327386
326206
324980
323733
322475
321204
319917
318613
317294
315965
314633
313303
311980
310667
309363
308068
306776
305485
304190
302890
301588
300285
298985
297692
296409
295135
293872
292615
291363
290112
288859
287606
286351
285099
283850
282609
281374
280149
278931
277718
276510
275302
274097
272891
271688
270489
269292
268104
266921
265750
264584
263425
262273
261125
259984
258846
257715
256599
255497
254419
253339
252148
249915
330011
330011
330013
330016
330018
330020
330023
330028
330033
330036
330038
330041
330042
330042
330042
330046
330051
330056
330059
330063
330067
330069
330070
330073
330079
330086
330090
330091
330089
330084
330079
330078
330081
330086
330087
330085
330082
330080
330076
330075
330077
330078
330078
330078
330078
330078
330077
330075
330074
330072
330069
330068
330069
330069
330066
330061
330059
330060
330059
330056
330053
330054
330054
330051
330047
330046
330047
330047
330048
330050
330053
330053
330052
330051
330053
330052
330051
330048
330044
330037
330032
330030
330032
330033
330032
330032
330032
330032
330030
330030
330033
330038
330038
330036
330032
330031
330028
330025
330025
330027
330027
330026
330026
330024
330024
330019
330020
330019
330021
330016
330017
330015
330019
330016
330017
330018
330021
330023
330021
330025
330023
330025
330029
330040
330055
330080
330106
330141
330176
330213
330240
330236
330117
330141
330180
329826
329849
329917
329974
330041
330097
330110
330083
330036
329984
329939
329909
329906
329938
329996
330051
330070
330072
330063
330036
329991
329947
329935
329946
329968
330005
330052
330082
330082
330029
329834
329313
328456
327386
326206
324980
323733
322475
321204
319917
318613
317294
315965
314633
313303
311980
310667
309364
308068
306776
305485
304190
302890
301588
300285
298985
297692
296408
295135
293872
292615
291363
290112
288859
287606
286351
285099
283850
282609
281374
280149
278930
277718
276510
275302
274097
272891
271688
270488
269292
268104
266921
265750
264584
263426
262273
261125
259984
258845
257716
256599
255497
254419
253338
252146
249920
330011
330011
330013
330016
330018
330020
330023
330028
330033
330036
330038
330041
330042
330042
330042
330046
330051
330056
330060
330063
330067
330069
330070
330073
330079
330086
330090
330091
330089
330084
330079
330078
330081
330086
330087
330084
330082
330079
330076
330075
330077
330078
330078
330078
330078
330078
330077
330075
330074
330072
330068
330068
330069
330069
330066
330061
330059
330060
330058
330056
330054
330054
330054
330051
330047
330046
330047
330047
330048
330050
330052
330053
330052
330051
330053
330052
330051
330048
330044
330037
330032
330030
330032
330033
330032
330031
330031
330032
330029
330030
330034
330039
330038
330036
330033
330032
330028
330024
330024
330026
330027
330026
330026
330024
330024
330020
330021
330021
330022
330017
330019
330016
330020
330016
330016
330017
330020
330024
330020
330025
330022
330026
330033
330042
330057
330079
330099
330137
330178
330216
330235
330222
330105
330128
330174
329825
329849
329916
329973
330039
330096
330110
330083
330037
329985
329939
329910
329906
329938
329997
330052
330070
330072
330063
330036
329991
329946
329935
329946
329968
330005
330053
330082
330083
330029
329834
329313
328456
327386
326206
324979
323733
322475
321204
319917
318613
317294
315965
314632
313303
311980
310667
309364
308068
306776
305485
304190
302890
301588
300285
298985
297692
296408
295135
293872
292615
291363
290112
288859
287606
286351
285099
283850
282609
281374
280149
278930
277718
276510
275302
274097
272891
271689
270488
269292
268103
266921
265750
264584
263426
262273
261125
259984
258845
257716
256598
255497
254419
253337
252145
249926
330011
330011
330013
330016
330018
330020
330023
330028
330033
330036
330038
330040
330042
330042
330042
330046
330051
330056
330060
330063
330067
330069
330070
330073
330079
330086
330090
330091
330089
330084
330078
330078
330082
330086
330087
330084
330082
330079
330076
330075
330077
330078
330078
330078
330078
330078
330077
330075
330074
330071
330068
330068
330069
330070
330066
330061
330059
330060
330058
330056
330054
330055
330054
330051
330047
330046
330047
330047
330048
330050
330052
330053
330052
330052
330054
330052
330051
330048
330044
330036
330031
330031
330033
330034
330032
330031
330031
330031
330029
330030
330034
330039
330038
330037
330033
330033
330027
330022
330022
330024
330027
330027
330027
330024
330024
330021
330022
330022
330024
330019
330021
330018
330020
330016
330015
330015
330019
330024
330019
330025
330021
330027
330033
330040
330054
330075
330101
330150
330186
330220
330241
330232
330115
330135
330183
329832
329851
329918
329974
330039
330097
330112
330085
330038
329986
329940
329910
329906
329939
329997
330052
330070
330072
330063
330035
329990
329946
329934
329946
329968
330006
330053
330082
330083
330029
329835
329313
328456
327385
326206
324979
323733
322475
321204
319917
318613
317293
315965
314632
313303
311980
310668
309364
308069
306776
305485
304190
302890
301588
300284
298985
297692
296408
295135
293872
292615
291363
290112
288859
287606
286351
285099
283850
282609
281374
280149
278930
277718
276510
275302
274097
272891
271689
270488
269293
268103
266921
265750
264583
263427
262272
261125
259984
258845
257716
256598
255498
254419
253337
252143
249931
330011
330011
330013
330016
330018
330020
330023
330028
330033
330036
330038
330040
330042
330042
330042
330046
330051
330056
330060
330063
330067
330069
330070
330073
330079
330086
330090
330091
330089
330084
330078
330078
330082
330087
330087
330084
330082
330079
330076
330075
330077
330078
330078
330077
330078
330078
330077
330075
330074
330071
330068
330068
330069
330070
330066
330061
330059
330060
330058
330056
330054
330055
330054
330051
330046
330046
330047
330048
330048
330049
330052
330053
330052
330052
330054
330052
330051
330048
330043
330036
330031
330031
330034
330034
330032
330031
330031
330031
330028
330030
330034
330039
330038
330037
330034
330034
330027
330020
330020
330023
330027
330029
330028
330024
330024
330021
330022
330023
330025
330020
330022
330019
330020
330015
330012
330015
330021
330023
330020
330022
330016
330028
330032
330034
330054
330067
330101
330155
330187
330215
330225
330219
330103
330133
330182
329827
329846
329913
329969
330036
330096
330112
330086
330039
329986
329939
329909
329906
329940
329998
330053
330070
330072
330063
330035
329990
329945
329934
329946
329968
330006
330053
330083
330083
330029
329835
329313
328456
327385
326206
324979
323733
322475
321204
319917
318613
317293
315965
314632
313303
311980
310668
309364
308069
306777
305485
304190
302890
301587
300284
298985
297692
296408
295135
293872
292615
291363
290112
288859
287606
286351
285098
283850
282608
281374
280149
278930
277718
276509
275303
274097
272891
271689
270488
269293
268102
266921
265750
264583
263427
262271
261125
259983
258845
257717
256597
255498
254419
253336
252142
249936
330011
330011
330013
330016
330018
330020
330023
330028
330033
330036
330038
330040
330042
330042
330042
330046
330051
330056
330060
330063
330067
330069
330070
330073
330079
330086
330091
330091
330089
330084
330078
330078
330082
330087
330087
330084
330081
330079
330076
330075
330077
330078
330078
330077
330078
330078
330077
330075
330074
330071
330068
330068
330070
330070
330066
330061
330059
330060
330058
330056
330054
330055
330054
330051
330046
330046
330047
330048
330048
330049
330052
330053
330052
330052
330054
330052
330051
330048
330043
330035
330030
330031
330035
330034
330032
330030
330031
330031
330028
330031
330035
330040
330039
330037
330034
330034
330027
330019
330019
330022
330027
330030
330029
330024
330024
330021
330023
330025
330026
330020
330023
330019
330021
330014
330009
330017
330021
330021
330024
330020
330010
330024
330025
330021
330051
330064
330101
330175
330202
330218
330207
330216
330107
330141
330190
329829
329844
329911
329968
330037
330098
330116
330089
330041
329987
329939
329909
329906
329940
329999
330054
330070
330072
330063
330035
329989
329945
329934
329945
329968
330006
330053
330083
330083
330029
329835
329313
328456
327385
326206
324979
323733
322475
321204
319917
318613
317293
315965
314632
313303
311980
310668
309364
308069
306777
305485
304190
302890
301587
300284
298984
297692
296408
295135
293872
292615
291363
290112
288859
287605
286351
285098
283850
282608
281374
280149
278930
277718
276509
275303
274097
272891
271689
270488
269293
268102
266922
265750
264584
263428
262270
261126
259983
258846
257716
256596
255499
254419
253336
252141
249940
330011
330011
330013
330016
330018
330020
330023
330028
330033
330036
330038
330040
330042
330042
330042
330046
330051
330056
330060
330063
330067
330069
330070
330073
330079
330086
330091
330091
330089
330084
330078
330078
330082
330087
330087
330084
330081
330079
330077
330076
330077
330078
330078
330077
330078
330078
330077
330075
330074
330071
330068
330068
330070
330070
330066
330061
330059
330060
330058
330056
330054
330055
330054
330050
330046
330046
330047
330048
330048
330049
330052
330053
330052
330052
330054
330052
330051
330048
330043
330035
330030
330031
330035
330034
330032
330030
330031
330031
330028
330031
330035
330040
330039
330037
330035
330034
330026
330018
330019
330022
330027
330030
330029
330024
330024
330021
330024
330026
330027
330019
330025
330019
330025
330012
330007
330023
330021
330028
330034
330022
330001
330004
330010
330003
330054
330060
330107
330186
330191
330205
330182
330206
330096
330139
330192
329826
329841
329908
329964
330033
330097
330117
330089
330040
329986
329938
329908
329906
329940
330000
330054
330071
330073
330063
330035
329989
329945
329934
329945
329968
330006
330054
330083
330084
330029
329835
329313
328456
327385
326206
324979
323733
322475
321204
319917
318613
317293
315965
314632
313303
311980
310668
309364
308069
306777
305485
304190
302890
301587
300284
298984
297691
296408
295136
293872
292616
291363
290112
288859
287606
286352
285098
283850
282608
281375
280149
278929
277718
276509
275304
274096
272891
271688
270488
269293
268102
266922
265749
264585
263427
262270
261127
259982
258846
257717
256596
255499
254420
253336
252141
249942
102946
102946
102946
102946
102946
102946
102946
102946
102946
102946
102946
102946
102946
102946
102946
102946
102946
102946
102946
102946
102946
102946
102946
102946
102946
102946
102947
102982
103214
103836
104760
105748
106647
107414
108053
108579
109001
109329
109591
109823
110069
110368
110739
111184
111711
112363
113232
114465
116214
118545
121352
124458
127714
130932
133305
131750
124718
113470
98729.6
75354
61941
62206.4
69178.5
81144.2
91269.6
99284.8
105222
107690
108121
107021
104863
102209
100351
98326.8
96869.8
95991.2
95855.4
96232.5
96991.5
98091.4
99148.5
100555
101924
102957
103549
103948
103955
103709
103229
102590
102075
101594
101185
101205
101404
101665
101957
102238
102681
104384
102946
102946
102946
102946
102946
102946
102946
102946
102946
102946
102946
102946
102946
102946
102946
102946
102946
102946
102946
102946
102946
102946
102946
102946
102946
102946
102946
102947
102976
103184
103769
104668
105646
106543
107309
107949
108477
108902
109234
109497
109724
109957
110233
110573
110983
111470
112066
112848
113939
115481
117562
120121
123005
126033
128940
130667
128225
120376
108025
91639.3
69306.9
57881.4
58481
66420.2
79767.5
90213.1
98787.9
105251
107976
108464
107374
105071
102588
100100
98299.4
97012.4
96318.7
96086.9
96620.4
97345.4
98438.8
99460.2
100655
101563
102592
102914
103316
103326
103200
102981
102766
102444
102216
101880
101733
101743
101739
101875
102105
102502
102946
102946
102946
102946
102946
102946
102946
102946
102946
102946
102946
102946
102946
102946
102946
102946
102946
102946
102946
102946
102946
102946
102946
102946
102946
102946
102946
102947
102970
103152
103697
104567
105532
106426
107192
107833
108362
108790
109126
109390
109613
109833
110086
110396
110767
111207
111743
112436
113388
114721
116529
118791
121386
124102
126615
127774
124781
116515
102857
84640.7
62957.2
52831.6
53839.3
63295.2
77286.8
88229.8
98064.4
104319
107413
108122
107248
105283
103001
100853
99086.5
97714.8
96960.5
96697.9
96912.7
97466.1
98359.9
99264.7
100315
101251
102112
102594
103174
103434
103490
103365
103129
102946
102946
102946
102946
102946
102946
102946
102946
102946
102946
102946
102946
102946
102946
102946
102946
102946
102946
102946
102946
102946
102946
102946
102946
102946
102946
102946
102946
102947
102964
103120
103621
104457
105407
106296
107062
107703
108234
108665
109005
109271
109489
109697
109928
110206
110537
110926
111397
111999
112814
113942
115467
117394
119635
121981
124052
124759
121593
113522
102946
102946
102946
102946
102946
102946
102946
102946
102946
102946
102946
102946
102946
102946
102946
102946
102946
102946
102946
102946
102946
102946
102946
102946
102946
102946
102946
102946
102946
102960
103089
103541
104337
105269
106153
106918
107560
108092
108526
108870
109137
109352
109547
109757
110003
110293
110631
111031
111538
112218
113149
114395
115971
117810
119724
121303
121682
102946
102946
102946
102946
102946
102946
102946
102946
102946
102946
102946
102946
102946
102946
102946
102946
102946
102946
102946
102946
102946
102946
102946
102946
102946
102946
102946
102946
102946
102955
103059
103459
104208
105118
105996
106760
107402
107935
108372
108720
108989
109200
109384
109571
109787
110038
110324
110654
111063
111607
112348
113330
114560
115978
117428
118511
102946
102946
102946
102946
102946
102946
102946
102946
102946
102946
102946
102946
102946
102946
102946
102946
102946
102946
102946
102946
102946
102946
102946
102946
102946
102946
102946
102946
102946
102952
103032
103376
104072
104953
105823
106587
107229
107763
108202
108553
108825
109033
109205
109372
109557
109770
110007
110270
110582
110990
111548
112286
113194
114205
115184
115816
102946
102946
102946
102946
102946
102946
102946
102946
102946
102946
102946
102946
102946
102946
102946
102946
102946
102946
102946
102946
102946
102946
102946
102946
102946
102946
102946
102946
102946
102950
103008
103294
103929
104776
105635
106397
107040
107574
108015
108369
108644
108851
109013
109158
109312
109488
109682
109885
110108
110386
110768
111280
111899
112543
113090
113389
102946
102946
102946
102946
102946
102946
102946
102946
102946
102946
102946
102946
102946
102946
102946
102946
102946
102946
102946
102946
102946
102946
102946
102946
102946
102946
102946
102946
102946
102948
102987
103217
103781
104586
105431
106191
106834
107369
107810
108168
108446
108653
108808
108933
109056
109194
109345
109498
109645
109809
110029
110333
110696
111045
111260
111236
102946
102946
102946
102946
102946
102946
102946
102946
102946
102946
102946
102946
102946
102946
102946
102946
102946
102946
102946
102946
102946
102946
102946
102946
102946
102946
102946
102946
102946
102947
102972
103145
103633
104385
105210
105968
106612
107147
107589
107948
108229
108439
108588
108697
108790
108889
108999
109107
109195
109267
109351
109472
109613
109729
109718
109432
102946
102946
102946
102946
102946
102946
102946
102946
102946
102946
102946
102946
102946
102946
102946
102946
102946
102946
102946
102946
102946
102946
102946
102946
102946
102946
102946
102946
102946
102946
102960
103083
103487
104176
104974
105726
106372
106908
107350
107710
107994
108207
108354
108451
108519
108580
108648
108713
108753
108759
108741
108715
108687
108621
108425
108005
102946
102946
102946
102946
102946
102946
102946
102946
102946
102946
102946
102946
102946
102946
102946
102946
102946
102946
102946
102946
102946
102946
102946
102946
102946
102946
102946
102946
102946
102946
102953
103033
103350
103962
104723
105467
106115
106653
107095
107455
107742
107957
108105
108195
108243
108272
108300
108322
108322
108277
108185
108069
107930
107724
107398
106913
102946
102946
102946
102946
102946
102946
102946
102946
102946
102946
102946
102946
102946
102946
102946
102946
102946
102946
102946
102946
102946
102946
102946
102946
102946
102946
102946
102946
102946
102946
102949
102995
103227
103749
104459
105189
105838
106381
106825
107185
107472
107690
107841
107928
107963
107969
107966
107950
107901
107803
107670
107516
107321
107035
106630
106116
102946
102946
102946
102946
102946
102946
102946
102946
102946
102946
102946
102946
102946
102946
102946
102946
102946
102946
102946
102946
102946
102946
102946
102946
102946
102946
102946
102946
102946
102946
102947
102970
103124
103544
104188
104895
105543
106090
106538
106901
107189
107409
107561
107648
107678
107675
107652
107600
107500
107355
107193
107025
106815
106510
106087
105574
102946
102946
102946
102946
102946
102946
102946
102946
102946
102946
102946
102946
102946
102946
102946
102946
102946
102946
102946
102946
102946
102946
102946
102946
102946
102946
102946
102946
102946
102946
102946
102956
103045
103357
103917
104587
105230
105782
106236
106602
106892
107114
107270
107359
107390
107385
107353
107275
107137
106950
106756
106574
106369
106089
105702
105228
102946
102946
102946
102946
102946
102946
102946
102946
102946
102946
102946
102946
102946
102946
102946
102946
102946
102946
102946
102946
102946
102946
102946
102946
102946
102946
102946
102946
102946
102946
102946
102949
102992
103199
103654
104269
104899
105456
105917
106288
106583
106809
106969
107064
107099
107096
107064
106978
106819
106600
106373
106167
105965
105720
105396
104995
102946
102946
102946
102946
102946
102946
102946
102946
102946
102946
102946
102946
102946
102946
102946
102946
102946
102946
102946
102946
102946
102946
102946
102946
102946
102946
102946
102946
102946
102946
102946
102947
102963
103079
103414
103951
104555
105113
105582
105961
106261
106493
106660
106763
106807
106810
106782
106702
106543
106310
106056
105822
105608
105383
105117
104798
102946
102946
102946
102946
102946
102946
102946
102946
102946
102946
102946
102946
102946
102946
102946
102946
102946
102946
102946
102946
102946
102946
102946
102946
102946
102946
102946
102946
102946
102946
102946
102946
102951
103002
103215
103645
104201
104754
105232
105621
105929
106167
106343
106458
106514
106525
106505
106441
106300
106074
105808
105551
105317
105091
104857
104601
102946
102946
102946
102946
102946
102946
102946
102946
102946
102946
102946
102946
102946
102946
102946
102946
102946
102946
102946
102946
102946
102946
102946
102946
102946
102946
102946
102946
102946
102946
102946
102946
102947
102963
103071
103372
103848
104381
104868
105269
105587
105833
106017
106145
106217
106241
106233
106189
106079
105881
105621
105353
105103
104868
104640
104414
102946
102946
102946
102946
102946
102946
102946
102946
102946
102946
102946
102946
102946
102946
102946
102946
102946
102946
102946
102946
102946
102946
102946
102946
102946
102946
102946
102946
102946
102946
102946
102946
102946
102949
102988
103158
103517
103999
104486
104905
105238
105494
105686
105825
105914
105954
105961
105938
105867
105715
105482
105219
104963
104722
104492
104273
102946
102946
102946
102946
102946
102946
102946
102946
102946
102946
102946
102946
102946
102946
102946
102946
102946
102946
102946
102946
102946
102946
102946
102946
102946
102946
102946
102946
102946
102946
102946
102946
102946
102946
102955
103023
103241
103626
104087
104522
104880
105154
105356
105503
105604
105662
105683
105679
105646
105552
105371
105133
104884
104644
104415
104196
102946
102946
102946
102946
102946
102946
102946
102946
102946
102946
102946
102946
102946
102946
102946
102946
102946
102946
102946
102946
102946
102946
102946
102946
102946
102946
102946
102946
102946
102946
102946
102946
102946
102946
102947
102963
103057
103303
103686
104114
104500
104806
105030
105188
105297
105365
105401
105411
105403
105363
105255
105071
104848
104620
104398
104186
102946
102946
102946
102946
102946
102946
102946
102946
102946
102946
102946
102946
102946
102946
102946
102946
102946
102946
102946
102946
102946
102946
102946
102946
102946
102946
102946
102946
102946
102946
102946
102946
102946
102946
102946
102948
102971
103079
103330
103695
104087
104431
104695
104880
105003
105080
105122
105140
105144
105134
105089
104984
104819
104623
104420
104220
102946
102946
102946
102946
102946
102946
102946
102946
102946
102946
102946
102946
102946
102946
102946
102946
102946
102946
102946
102946
102946
102946
102946
102946
102946
102946
102946
102946
102946
102946
102946
102946
102946
102946
102946
102946
102949
102975
103084
103320
103655
104012
104323
104558
104716
104813
104865
104886
104891
104889
104871
104827
104744
104610
104442
104269
102946
102946
102946
102946
102946
102946
102946
102946
102946
102946
102946
102946
102946
102946
102946
102946
102946
102946
102946
102946
102946
102946
102946
102946
102946
102946
102946
102946
102946
102946
102946
102946
102946
102946
102946
102946
102946
102949
102973
103069
103276
103574
103898
104184
104400
104543
104625
104661
104669
104663
104645
104619
104585
104526
104423
104291
102946
102946
102946
102946
102946
102946
102946
102946
102946
102946
102946
102946
102946
102946
102946
102946
102946
102946
102946
102946
102946
102946
102946
102946
102946
102946
102946
102946
102946
102946
102946
102946
102946
102946
102946
102946
102946
102946
102948
102967
103041
103209
103461
103750
104017
104225
104364
104442
104473
104476
104459
104426
104393
104362
104319
104247
102946
102946
102946
102946
102946
102946
102946
102946
102946
102946
102946
102946
102946
102946
102946
102946
102946
102946
102946
102946
102946
102946
102946
102946
102946
102946
102946
102946
102946
102946
102946
102946
102946
102946
102946
102946
102946
102946
102946
102947
102959
103009
103130
103330
103578
103825
104030
104176
104262
104299
104304
104284
104243
104202
104166
104128
102946
102946
102946
102946
102946
102946
102946
102946
102946
102946
102946
102946
102946
102946
102946
102946
102946
102946
102946
102946
102946
102946
102946
102946
102946
102946
102946
102946
102946
102946
102946
102946
102946
102946
102946
102946
102946
102946
102946
102946
102947
102952
102980
103056
103199
103396
103615
103815
103972
104075
104129
104144
104132
104097
104052
104009
102946
102946
102946
102946
102946
102946
102946
102946
102946
102946
102946
102946
102946
102946
102946
102946
102946
102946
102946
102946
102946
102946
102946
102946
102946
102946
102946
102946
102946
102946
102946
102946
102946
102946
102946
102946
102946
102946
102946
102946
102946
102946
102948
102960
103000
103087
103226
103402
103585
103748
103871
103949
103985
103990
103973
103936
102946
102946
102946
102946
102946
102946
102946
102946
102946
102946
102946
102946
102946
102946
102946
102946
102946
102946
102946
102946
102946
102946
102946
102946
102946
102946
102946
102946
102946
102946
102946
102946
102946
102946
102946
102946
102946
102946
102946
102946
102946
102946
102946
102947
102950
102966
103009
103090
103211
103358
103509
103642
103744
103810
103841
103845
102946
102946
102946
102946
102946
102946
102946
102946
102946
102946
102946
102946
102946
102946
102946
102946
102946
102946
102946
102946
102946
102946
102946
102946
102946
102946
102946
102946
102946
102946
102946
102946
102946
102946
102946
102946
102946
102946
102946
102946
102946
102946
102946
102946
102946
102947
102952
102967
103003
103069
103164
103281
103403
103514
103603
103665
102946
102946
102946
102946
102946
102946
102946
102946
102946
102946
102946
102946
102946
102946
102946
102946
102946
102946
102946
102946
102946
102946
102946
102946
102946
102946
102946
102946
102946
102946
102946
102946
102946
102946
102946
102946
102946
102946
102946
102946
102946
102946
102946
102946
102946
102946
102946
102947
102951
102962
102988
103034
103102
103188
103282
103374
102946
102946
102946
102946
102946
102946
102946
102946
102946
102946
102946
102946
102946
102946
102946
102946
102946
102946
102946
102946
102946
102946
102946
102946
102946
102946
102946
102946
102946
102946
102946
102946
102946
102946
102946
102946
102946
102946
102946
102946
102946
102946
102946
102946
102946
102946
102946
102946
102946
102947
102949
102955
102970
102998
103040
103097
102946
102946
102946
102946
102946
102946
102946
102946
102946
102946
102946
102946
102946
102946
102946
102946
102946
102946
102946
102946
102946
102946
102946
102946
102946
102946
102946
102946
102946
102946
102946
102946
102946
102946
102946
102946
102946
102946
102946
102946
102946
102946
102946
102946
102946
102946
102946
102946
102946
102946
102946
102946
102947
102950
102957
102970
102946
102946
102946
102946
102946
102946
102946
102946
102946
102946
102946
102946
102946
102946
102946
102946
102946
102946
102946
102946
102946
102946
102946
102946
102946
102946
102946
102946
102946
102946
102946
102946
102946
102946
102946
102946
102946
102946
102946
102946
102946