/*--------------------------------*- C++ -*----------------------------------*\
| =========                 |                                                 |
| \\      /  F ield         | OpenFOAM: The Open Source CFD Toolbox           |
|  \\    /   O peration     | Version:  2406                                  |
|   \\  /    A nd           | Website:  www.openfoam.com                      |
|    \\/     M anipulation  |                                                 |
\*---------------------------------------------------------------------------*/
FoamFile
{
    version     2.0;
    format      ascii;
    arch        "LSB;label=32;scalar=64";
    class       volScalarField;
    location    "0.08";
    object      rho;
}
// * * * * * * * * * * * * * * * * * * * * * * * * * * * * * * * * * * * * * //

dimensions      [1 -3 0 0 0 0 0];

internalField   nonuniform List<scalar> 
14020
(
4.73928
4.73929
4.73931
4.73934
4.73936
4.73938
4.73941
4.73945
4.7395
4.73952
4.73955
4.73957
4.73958
4.73958
4.73959
4.73962
4.73968
4.73973
4.73976
4.7398
4.73984
4.73985
4.73986
4.7399
4.73996
4.74003
4.74008
4.74008
4.74006
4.74002
4.73997
4.73996
4.73999
4.74003
4.74004
4.74002
4.74
4.73997
4.73993
4.73991
4.73993
4.73995
4.73996
4.73995
4.73995
4.73995
4.73994
4.73992
4.73991
4.73988
4.73985
4.73984
4.73985
4.73985
4.73982
4.73977
4.73975
4.73976
4.73975
4.73972
4.73969
4.73969
4.73969
4.73966
4.73963
4.73962
4.73962
4.73961
4.73962
4.73965
4.73968
4.73968
4.73967
4.73966
4.73968
4.73967
4.73966
4.73963
4.73959
4.73953
4.73948
4.73945
4.73945
4.73946
4.73946
4.73946
4.73946
4.73946
4.73944
4.73944
4.73946
4.7395
4.73949
4.73947
4.73941
4.73939
4.73935
4.73933
4.73932
4.73932
4.73927
4.73916
4.73904
4.73885
4.73855
4.73808
4.73743
4.7365
4.73514
4.73308
4.73024
4.72621
4.72064
4.71284
4.70225
4.68796
4.66892
4.64383
4.61122
4.56953
4.51688
4.45148
4.37148
4.27541
4.16214
4.03129
3.88351
3.72083
3.54688
3.36718
3.18936
3.0232
2.88019
2.774
2.71087
2.68322
2.67783
2.67757
2.67791
2.67851
2.67913
2.67968
2.68019
2.68071
2.68126
2.68177
2.68218
2.68247
2.68279
2.6832
2.6835
2.68353
2.68345
2.68328
2.68298
2.68257
2.68218
2.68201
2.682
2.68208
2.68227
2.68254
2.68274
2.68275
2.68247
2.68138
2.67839
2.67346
2.66726
2.66041
2.65326
2.64598
2.63862
2.63117
2.62362
2.61596
2.6082
2.60038
2.59253
2.5847
2.5769
2.56916
2.56146
2.55382
2.54618
2.53855
2.53088
2.52317
2.51543
2.50767
2.49992
2.4922
2.48452
2.47689
2.4693
2.46175
2.45421
2.44668
2.43912
2.43156
2.42398
2.41641
2.40886
2.40134
2.39386
2.38643
2.37905
2.3717
2.36438
2.35706
2.34977
2.34248
2.33522
2.32799
2.32079
2.31366
2.30657
2.29954
2.29255
2.28558
2.27862
2.27164
2.26467
2.25767
2.25066
2.24371
2.23681
2.23003
2.22322
2.21571
2.20158
4.73928
4.73929
4.73931
4.73934
4.73937
4.73938
4.73941
4.73945
4.73949
4.73952
4.73955
4.73957
4.73958
4.73958
4.73959
4.73962
4.73968
4.73973
4.73976
4.7398
4.73984
4.73985
4.73986
4.7399
4.73996
4.74003
4.74008
4.74008
4.74006
4.74002
4.73997
4.73996
4.73998
4.74003
4.74004
4.74002
4.74
4.73997
4.73993
4.73991
4.73993
4.73995
4.73996
4.73995
4.73995
4.73995
4.73994
4.73992
4.73991
4.73988
4.73985
4.73984
4.73985
4.73985
4.73982
4.73977
4.73975
4.73976
4.73975
4.73972
4.73969
4.73969
4.73969
4.73966
4.73963
4.73962
4.73962
4.73961
4.73963
4.73965
4.73968
4.73968
4.73967
4.73966
4.73968
4.73967
4.73966
4.73963
4.73959
4.73953
4.73948
4.73945
4.73945
4.73946
4.73947
4.73946
4.73946
4.73946
4.73944
4.73943
4.73946
4.7395
4.73949
4.73947
4.73941
4.73939
4.73936
4.73934
4.73932
4.73932
4.73926
4.73915
4.73903
4.73884
4.73855
4.73807
4.73743
4.7365
4.73514
4.73309
4.73025
4.72622
4.72065
4.71286
4.70227
4.68798
4.66895
4.64388
4.6113
4.56965
4.51706
4.45173
4.37183
4.27589
4.16274
4.03201
3.88432
3.72168
3.54771
3.36793
3.18995
3.02362
2.88045
2.77415
2.71096
2.6833
2.67783
2.67758
2.67792
2.67851
2.67914
2.67969
2.68019
2.68072
2.68126
2.68177
2.68218
2.68247
2.68279
2.6832
2.68349
2.68353
2.68345
2.68328
2.68298
2.68257
2.68218
2.68201
2.68201
2.68208
2.68227
2.68254
2.68274
2.68275
2.68247
2.68138
2.67839
2.67346
2.66726
2.66041
2.65326
2.64598
2.63862
2.63117
2.62362
2.61596
2.6082
2.60038
2.59253
2.5847
2.5769
2.56916
2.56146
2.55382
2.54618
2.53855
2.53088
2.52317
2.51543
2.50767
2.49992
2.4922
2.48452
2.47689
2.4693
2.46175
2.45421
2.44668
2.43912
2.43156
2.42398
2.41641
2.40885
2.40134
2.39386
2.38643
2.37905
2.3717
2.36438
2.35706
2.34977
2.34248
2.33522
2.32799
2.32079
2.31366
2.30657
2.29954
2.29255
2.28558
2.27862
2.27164
2.26467
2.25767
2.25066
2.24371
2.23681
2.23003
2.22322
2.2157
2.20159
4.73928
4.73929
4.73931
4.73934
4.73937
4.73938
4.73941
4.73945
4.7395
4.73952
4.73955
4.73957
4.73958
4.73958
4.73959
4.73962
4.73968
4.73973
4.73976
4.7398
4.73984
4.73985
4.73986
4.7399
4.73996
4.74003
4.74008
4.74009
4.74006
4.74002
4.73996
4.73996
4.73999
4.74003
4.74004
4.74002
4.74
4.73997
4.73993
4.73991
4.73993
4.73995
4.73996
4.73995
4.73995
4.73995
4.73994
4.73992
4.73991
4.73988
4.73985
4.73984
4.73985
4.73986
4.73982
4.73977
4.73975
4.73976
4.73974
4.73972
4.73969
4.73969
4.73969
4.73966
4.73963
4.73962
4.73962
4.73961
4.73963
4.73965
4.73968
4.73968
4.73967
4.73967
4.73968
4.73967
4.73966
4.73963
4.73959
4.73953
4.73948
4.73945
4.73946
4.73947
4.73947
4.73946
4.73946
4.73946
4.73943
4.73943
4.73946
4.73951
4.7395
4.73947
4.73942
4.7394
4.73936
4.73933
4.73931
4.7393
4.73925
4.73915
4.73903
4.73884
4.73855
4.73808
4.73744
4.7365
4.73515
4.7331
4.73027
4.72624
4.72067
4.71289
4.70231
4.68805
4.66905
4.64404
4.61156
4.57005
4.51763
4.45254
4.37294
4.27732
4.16447
4.03399
3.88642
3.72379
3.54966
3.36955
3.19116
3.02441
2.88089
2.77429
2.71098
2.68331
2.67783
2.67758
2.67792
2.67851
2.67913
2.67969
2.68019
2.68072
2.68126
2.68177
2.68218
2.68248
2.68279
2.6832
2.6835
2.68353
2.68345
2.68328
2.68297
2.68257
2.68218
2.68201
2.68201
2.68208
2.68227
2.68254
2.68274
2.68275
2.68247
2.68138
2.67839
2.67346
2.66726
2.6604
2.65326
2.64598
2.63862
2.63117
2.62362
2.61596
2.6082
2.60038
2.59253
2.5847
2.5769
2.56916
2.56147
2.55382
2.54618
2.53855
2.53088
2.52317
2.51543
2.50767
2.49992
2.4922
2.48452
2.47689
2.4693
2.46175
2.45421
2.44668
2.43912
2.43156
2.42398
2.41641
2.40885
2.40134
2.39386
2.38644
2.37905
2.3717
2.36438
2.35706
2.34977
2.34248
2.33522
2.32799
2.32079
2.31366
2.30657
2.29954
2.29255
2.28558
2.27862
2.27164
2.26467
2.25767
2.25066
2.24371
2.23681
2.23003
2.22321
2.21569
2.20161
4.73928
4.73929
4.73931
4.73934
4.73937
4.73938
4.73941
4.73945
4.7395
4.73952
4.73955
4.73957
4.73958
4.73958
4.73959
4.73962
4.73968
4.73973
4.73976
4.7398
4.73984
4.73985
4.73986
4.7399
4.73996
4.74003
4.74008
4.74009
4.74006
4.74002
4.73996
4.73996
4.73999
4.74003
4.74004
4.74002
4.73999
4.73997
4.73993
4.73992
4.73994
4.73995
4.73996
4.73995
4.73995
4.73995
4.73994
4.73992
4.73991
4.73988
4.73985
4.73984
4.73985
4.73986
4.73982
4.73977
4.73975
4.73976
4.73974
4.73972
4.73969
4.7397
4.73969
4.73966
4.73962
4.73962
4.73962
4.73962
4.73963
4.73965
4.73968
4.73968
4.73967
4.73967
4.73969
4.73967
4.73966
4.73963
4.73959
4.73952
4.73947
4.73945
4.73946
4.73947
4.73947
4.73946
4.73946
4.73946
4.73943
4.73943
4.73946
4.73951
4.7395
4.73947
4.73942
4.73941
4.73936
4.73932
4.7393
4.73929
4.73925
4.73915
4.73903
4.73884
4.73856
4.73808
4.73745
4.73651
4.73516
4.73312
4.7303
4.72627
4.72071
4.71294
4.70238
4.68816
4.66923
4.64434
4.61202
4.57073
4.5186
4.45386
4.37468
4.27947
4.16699
4.03679
3.88931
3.72652
3.55201
3.37142
3.19252
3.02532
2.8814
2.77452
2.71109
2.68336
2.67783
2.67758
2.67793
2.6785
2.67913
2.67969
2.68019
2.68072
2.68127
2.68177
2.68218
2.68248
2.68279
2.6832
2.6835
2.68353
2.68345
2.68328
2.68297
2.68256
2.68218
2.68201
2.682
2.68208
2.68227
2.68254
2.68274
2.68275
2.68247
2.68138
2.67839
2.67345
2.66726
2.6604
2.65326
2.64598
2.63862
2.63117
2.62362
2.61596
2.6082
2.60038
2.59253
2.58469
2.5769
2.56916
2.56147
2.55382
2.54619
2.53855
2.53088
2.52317
2.51543
2.50767
2.49992
2.4922
2.48452
2.47689
2.4693
2.46175
2.45422
2.44668
2.43912
2.43156
2.42398
2.41641
2.40885
2.40134
2.39386
2.38644
2.37905
2.3717
2.36438
2.35706
2.34977
2.34248
2.33522
2.32799
2.32079
2.31366
2.30657
2.29955
2.29255
2.28558
2.27862
2.27164
2.26467
2.25766
2.25067
2.24371
2.23681
2.23003
2.22321
2.21568
2.20164
4.73928
4.73929
4.73931
4.73934
4.73937
4.73938
4.73941
4.73945
4.7395
4.73953
4.73955
4.73957
4.73958
4.73958
4.73959
4.73962
4.73968
4.73973
4.73976
4.7398
4.73984
4.73985
4.73987
4.7399
4.73996
4.74003
4.74008
4.74009
4.74007
4.74001
4.73996
4.73996
4.73999
4.74004
4.74004
4.74002
4.73999
4.73997
4.73993
4.73992
4.73994
4.73995
4.73995
4.73995
4.73995
4.73995
4.73994
4.73992
4.73991
4.73988
4.73985
4.73984
4.73986
4.73986
4.73982
4.73977
4.73975
4.73976
4.73974
4.73971
4.73969
4.7397
4.73969
4.73966
4.73962
4.73961
4.73962
4.73962
4.73963
4.73965
4.73968
4.73968
4.73967
4.73967
4.73969
4.73967
4.73966
4.73963
4.73959
4.73952
4.73946
4.73945
4.73947
4.73948
4.73947
4.73946
4.73945
4.73945
4.73943
4.73943
4.73947
4.73951
4.7395
4.73948
4.73943
4.73941
4.73936
4.7393
4.73928
4.73927
4.73924
4.73916
4.73904
4.73884
4.73856
4.73809
4.73746
4.73653
4.73517
4.73314
4.73033
4.72631
4.72076
4.713
4.70248
4.68831
4.66948
4.64476
4.61261
4.57161
4.5198
4.45547
4.37673
4.28189
4.16972
4.0396
3.89197
3.72888
3.55393
3.37279
3.19334
3.02571
2.88156
2.77455
2.71108
2.68336
2.67783
2.67758
2.67792
2.6785
2.67912
2.67968
2.68019
2.68072
2.68127
2.68178
2.68218
2.68248
2.6828
2.6832
2.6835
2.68353
2.68345
2.68328
2.68297
2.68256
2.68217
2.68201
2.682
2.68208
2.68227
2.68255
2.68274
2.68275
2.68247
2.68138
2.67839
2.67345
2.66726
2.6604
2.65326
2.64598
2.63862
2.63117
2.62362
2.61596
2.6082
2.60038
2.59253
2.58469
2.5769
2.56916
2.56147
2.55382
2.54619
2.53855
2.53088
2.52317
2.51543
2.50767
2.49992
2.4922
2.48452
2.47689
2.4693
2.46175
2.45422
2.44668
2.43912
2.43156
2.42398
2.41641
2.40885
2.40134
2.39386
2.38644
2.37905
2.3717
2.36438
2.35706
2.34977
2.34248
2.33522
2.32799
2.3208
2.31366
2.30657
2.29955
2.29255
2.28558
2.27862
2.27164
2.26468
2.25766
2.25067
2.2437
2.23681
2.23003
2.22321
2.21567
2.20168
4.73928
4.73929
4.73931
4.73934
4.73937
4.73938
4.73941
4.73945
4.7395
4.73953
4.73955
4.73957
4.73958
4.73958
4.73959
4.73962
4.73968
4.73973
4.73976
4.7398
4.73984
4.73985
4.73987
4.7399
4.73996
4.74003
4.74008
4.74009
4.74007
4.74001
4.73996
4.73996
4.73999
4.74004
4.74004
4.74002
4.73999
4.73996
4.73993
4.73992
4.73994
4.73995
4.73995
4.73995
4.73995
4.73995
4.73994
4.73992
4.73991
4.73988
4.73985
4.73984
4.73986
4.73986
4.73982
4.73977
4.73975
4.73976
4.73974
4.73971
4.73969
4.7397
4.73969
4.73966
4.73962
4.73961
4.73962
4.73963
4.73963
4.73965
4.73967
4.73968
4.73967
4.73967
4.73969
4.73968
4.73966
4.73963
4.73959
4.73951
4.73946
4.73945
4.73948
4.73948
4.73946
4.73945
4.73945
4.73945
4.73942
4.73944
4.73947
4.73952
4.7395
4.73948
4.73944
4.73942
4.73936
4.73928
4.73926
4.73926
4.73923
4.73917
4.73905
4.73884
4.73856
4.7381
4.73748
4.73654
4.73519
4.73317
4.73037
4.72635
4.72081
4.71307
4.70258
4.68848
4.66976
4.64518
4.61321
4.57247
4.52095
4.45696
4.37854
4.28394
4.17188
4.04172
3.8939
3.73053
3.55509
3.3735
3.19375
3.02596
2.88172
2.77463
2.71116
2.68341
2.67785
2.67759
2.67792
2.6785
2.67913
2.67969
2.6802
2.68073
2.68127
2.68178
2.68218
2.68248
2.6828
2.68321
2.6835
2.68353
2.68345
2.68327
2.68297
2.68256
2.68217
2.68201
2.682
2.68208
2.68227
2.68255
2.68274
2.68276
2.68247
2.68138
2.67839
2.67345
2.66726
2.6604
2.65326
2.64598
2.63862
2.63117
2.62362
2.61596
2.6082
2.60038
2.59253
2.58469
2.5769
2.56916
2.56147
2.55382
2.54619
2.53855
2.53088
2.52317
2.51543
2.50767
2.49992
2.4922
2.48452
2.47689
2.4693
2.46175
2.45422
2.44668
2.43912
2.43156
2.42398
2.41641
2.40885
2.40134
2.39386
2.38644
2.37905
2.3717
2.36438
2.35707
2.34977
2.34248
2.33522
2.32799
2.3208
2.31366
2.30657
2.29955
2.29255
2.28559
2.27862
2.27165
2.26468
2.25766
2.25067
2.2437
2.23681
2.23003
2.2232
2.21566
2.20171
4.73928
4.73929
4.73931
4.73934
4.73937
4.73938
4.73941
4.73945
4.7395
4.73953
4.73955
4.73957
4.73958
4.73958
4.73959
4.73962
4.73968
4.73973
4.73976
4.7398
4.73984
4.73985
4.73987
4.7399
4.73996
4.74003
4.74008
4.74009
4.74007
4.74001
4.73996
4.73996
4.73999
4.74004
4.74004
4.74001
4.73999
4.73996
4.73993
4.73992
4.73994
4.73995
4.73995
4.73995
4.73995
4.73995
4.73994
4.73992
4.73991
4.73988
4.73985
4.73984
4.73986
4.73986
4.73982
4.73977
4.73975
4.73976
4.73974
4.73971
4.7397
4.73971
4.73969
4.73966
4.73961
4.73961
4.73962
4.73963
4.73963
4.73964
4.73967
4.73968
4.73967
4.73967
4.73969
4.73968
4.73966
4.73963
4.73958
4.73951
4.73945
4.73945
4.73949
4.73949
4.73946
4.73945
4.73945
4.73945
4.73942
4.73944
4.73948
4.73952
4.73951
4.73948
4.73944
4.73943
4.73935
4.73926
4.73924
4.73924
4.73923
4.73918
4.73906
4.73884
4.73856
4.73811
4.73749
4.73656
4.73522
4.73319
4.73039
4.72638
4.72084
4.71312
4.70265
4.68862
4.67
4.64551
4.6137
4.5731
4.52177
4.45807
4.37981
4.28529
4.17329
4.04296
3.89498
3.73135
3.55556
3.37369
3.19372
3.0259
2.88166
2.77464
2.71117
2.68339
2.67782
2.67756
2.67789
2.67848
2.67912
2.6797
2.68021
2.68074
2.68127
2.68178
2.68218
2.68248
2.6828
2.68321
2.68351
2.68354
2.68346
2.68327
2.68297
2.68255
2.68217
2.68201
2.682
2.68207
2.68227
2.68255
2.68274
2.68276
2.68247
2.68138
2.67839
2.67345
2.66725
2.6604
2.65326
2.64598
2.63862
2.63117
2.62362
2.61596
2.6082
2.60038
2.59253
2.58469
2.5769
2.56916
2.56147
2.55382
2.54619
2.53855
2.53088
2.52317
2.51543
2.50767
2.49992
2.4922
2.48452
2.47689
2.4693
2.46175
2.45422
2.44668
2.43912
2.43156
2.42398
2.41641
2.40885
2.40134
2.39386
2.38644
2.37905
2.3717
2.36438
2.35707
2.34977
2.34248
2.33522
2.32799
2.3208
2.31365
2.30657
2.29955
2.29255
2.28559
2.27861
2.27165
2.26467
2.25767
2.25068
2.2437
2.23682
2.23003
2.2232
2.21566
2.20174
4.73928
4.73929
4.73931
4.73934
4.73937
4.73938
4.73941
4.73945
4.7395
4.73953
4.73955
4.73957
4.73958
4.73958
4.73959
4.73962
4.73968
4.73973
4.73976
4.7398
4.73984
4.73985
4.73987
4.7399
4.73996
4.74003
4.74008
4.74009
4.74007
4.74001
4.73996
4.73996
4.73999
4.74004
4.74004
4.74001
4.73999
4.73996
4.73994
4.73993
4.73994
4.73995
4.73995
4.73995
4.73995
4.73995
4.73994
4.73992
4.73991
4.73988
4.73985
4.73984
4.73986
4.73986
4.73982
4.73977
4.73975
4.73976
4.73974
4.73971
4.7397
4.73971
4.7397
4.73966
4.73961
4.73961
4.73962
4.73963
4.73963
4.73964
4.73967
4.73968
4.73967
4.73967
4.73969
4.73968
4.73966
4.73963
4.73958
4.7395
4.73945
4.73946
4.73949
4.73949
4.73946
4.73944
4.73945
4.73944
4.73942
4.73944
4.73948
4.73952
4.73951
4.73949
4.73945
4.73943
4.73935
4.73925
4.73923
4.73923
4.73923
4.73919
4.73907
4.73884
4.73856
4.73811
4.7375
4.73658
4.73523
4.7332
4.73041
4.7264
4.72087
4.71315
4.70267
4.68874
4.67015
4.6457
4.61404
4.57349
4.52222
4.45865
4.38046
4.28593
4.17402
4.0436
3.8955
3.73184
3.55584
3.37377
3.19362
3.02588
2.88168
2.77469
2.71122
2.68341
2.67782
2.67755
2.67788
2.67848
2.67914
2.67971
2.68022
2.68075
2.68128
2.68178
2.68218
2.68248
2.68281
2.68322
2.68351
2.68354
2.68346
2.68327
2.68296
2.68255
2.68216
2.682
2.682
2.68207
2.68227
2.68255
2.68275
2.68276
2.68247
2.68138
2.67839
2.67345
2.66725
2.6604
2.65326
2.64598
2.63862
2.63117
2.62362
2.61596
2.6082
2.60038
2.59253
2.58469
2.5769
2.56916
2.56147
2.55382
2.54619
2.53855
2.53088
2.52317
2.51542
2.50767
2.49992
2.4922
2.48452
2.47689
2.4693
2.46175
2.45422
2.44668
2.43912
2.43156
2.42398
2.41641
2.40885
2.40134
2.39386
2.38644
2.37905
2.3717
2.36438
2.35707
2.34977
2.34248
2.33522
2.32799
2.3208
2.31365
2.30657
2.29955
2.29255
2.2856
2.27861
2.27166
2.26467
2.25767
2.25068
2.2437
2.23682
2.23003
2.2232
2.21565
2.20177
4.73928
4.73929
4.73931
4.73934
4.73937
4.73938
4.73941
4.73945
4.7395
4.73953
4.73955
4.73957
4.73958
4.73958
4.73959
4.73962
4.73968
4.73973
4.73976
4.7398
4.73984
4.73985
4.73987
4.7399
4.73996
4.74003
4.74008
4.74009
4.74007
4.74001
4.73996
4.73995
4.73999
4.74004
4.74004
4.74001
4.73999
4.73997
4.73994
4.73993
4.73994
4.73995
4.73995
4.73994
4.73995
4.73995
4.73994
4.73992
4.73991
4.73988
4.73985
4.73984
4.73986
4.73986
4.73982
4.73977
4.73975
4.73976
4.73974
4.73971
4.7397
4.73971
4.73969
4.73966
4.73961
4.73961
4.73962
4.73963
4.73963
4.73964
4.73967
4.73968
4.73967
4.73967
4.73969
4.73968
4.73966
4.73963
4.73958
4.7395
4.73945
4.73946
4.7395
4.73949
4.73946
4.73944
4.73945
4.73944
4.73941
4.73944
4.73948
4.73952
4.73951
4.73949
4.73945
4.73944
4.73934
4.73924
4.73923
4.73923
4.73923
4.73919
4.73907
4.73884
4.73856
4.73811
4.7375
4.7366
4.73525
4.73319
4.73044
4.72641
4.72093
4.71314
4.70269
4.68884
4.67021
4.64586
4.61428
4.57367
4.52234
4.4587
4.38059
4.28607
4.17434
4.04383
3.89575
3.73205
3.55581
3.37368
3.19343
3.0258
2.8816
2.77468
2.71124
2.6834
2.6778
2.67753
2.67786
2.67846
2.67913
2.67972
2.68023
2.68074
2.68127
2.68177
2.68218
2.68248
2.68281
2.68322
2.68351
2.68354
2.68346
2.68327
2.68296
2.68255
2.68216
2.682
2.682
2.68207
2.68227
2.68255
2.68275
2.68276
2.68247
2.68138
2.67839
2.67345
2.66725
2.6604
2.65326
2.64598
2.63862
2.63117
2.62362
2.61596
2.6082
2.60038
2.59253
2.58469
2.5769
2.56916
2.56147
2.55382
2.54619
2.53855
2.53088
2.52317
2.51542
2.50767
2.49992
2.49219
2.48452
2.47689
2.4693
2.46175
2.45422
2.44668
2.43912
2.43156
2.42398
2.41641
2.40886
2.40134
2.39387
2.38644
2.37904
2.3717
2.36438
2.35707
2.34976
2.34248
2.33522
2.32799
2.3208
2.31365
2.30657
2.29954
2.29256
2.28559
2.27861
2.27166
2.26467
2.25768
2.25068
2.2437
2.23683
2.23003
2.2232
2.21565
2.20178
1.22125
1.22125
1.22125
1.22125
1.22125
1.22125
1.22125
1.22125
1.22125
1.22125
1.22125
1.22125
1.22125
1.22125
1.22125
1.22125
1.22125
1.22125
1.22125
1.22125
1.22125
1.22125
1.22125
1.22125
1.22125
1.22125
1.22126
1.22156
1.22352
1.22877
1.23657
1.24488
1.25243
1.25885
1.26419
1.26858
1.27209
1.27483
1.277
1.27893
1.28098
1.28346
1.28654
1.29022
1.29459
1.29998
1.30716
1.31731
1.33159
1.35039
1.37315
1.39965
1.42852
1.45054
1.44862
1.39116
1.29053
1.17113
1.05235
0.885562
0.772313
0.775384
0.840166
0.942158
1.02429
1.08464
1.12257
1.13304
1.12983
1.11459
1.09126
1.06594
1.04751
1.02977
1.01796
1.01121
1.01045
1.01438
1.0218
1.03201
1.04229
1.05532
1.06771
1.07589
1.07931
1.07987
1.07698
1.07287
1.06691
1.05965
1.05396
1.04928
1.04571
1.04553
1.04727
1.04985
1.05308
1.05777
1.0678
1.10085
1.22125
1.22125
1.22125
1.22125
1.22125
1.22125
1.22125
1.22125
1.22125
1.22125
1.22125
1.22125
1.22125
1.22125
1.22125
1.22125
1.22125
1.22125
1.22125
1.22125
1.22125
1.22125
1.22125
1.22125
1.22125
1.22125
1.22125
1.22126
1.22151
1.22326
1.22821
1.2358
1.24403
1.25155
1.25797
1.26332
1.26773
1.27127
1.27404
1.27622
1.27811
1.28005
1.28234
1.28517
1.28857
1.29259
1.29753
1.30399
1.31298
1.32559
1.34241
1.36323
1.38797
1.41492
1.43434
1.42789
1.36377
1.2569
1.12672
0.995034
0.827351
0.72713
0.733229
0.811835
0.932119
1.02429
1.09868
1.14967
1.16678
1.16551
1.15028
1.12415
1.09609
1.06818
1.04757
1.03365
1.02707
1.02546
1.03117
1.04009
1.05349
1.06671
1.08079
1.09149
1.09934
1.09921
1.0984
1.09415
1.08882
1.08324
1.07909
1.07476
1.07173
1.06907
1.06905
1.07205
1.07756
1.08815
1.10457
1.12784
1.22125
1.22125
1.22125
1.22125
1.22125
1.22125
1.22125
1.22125
1.22125
1.22125
1.22125
1.22125
1.22125
1.22125
1.22125
1.22125
1.22125
1.22125
1.22125
1.22125
1.22125
1.22125
1.22125
1.22125
1.22125
1.22125
1.22125
1.22126
1.22145
1.22299
1.2276
1.23494
1.24307
1.25057
1.25699
1.26235
1.26677
1.27034
1.27314
1.27534
1.27719
1.27902
1.28112
1.28369
1.28677
1.29042
1.29485
1.30059
1.30845
1.31937
1.33401
1.35245
1.37477
1.39906
1.41602
1.40736
1.34093
1.2301
1.08534
0.929816
0.753352
0.660733
0.667645
0.763952
0.898196
1.00416
1.0987
1.15942
1.18899
1.19574
1.18713
1.16662
1.14119
1.1154
1.09281
1.07534
1.06588
1.06294
1.06579
1.07364
1.0862
1.09946
1.11314
1.12438
1.1319
1.1336
1.13423
1.13166
1.12754
1.12291
1.11889
1.22125
1.22125
1.22125
1.22125
1.22125
1.22125
1.22125
1.22125
1.22125
1.22125
1.22125
1.22125
1.22125
1.22125
1.22125
1.22125
1.22125
1.22125
1.22125
1.22125
1.22125
1.22125
1.22125
1.22125
1.22125
1.22125
1.22125
1.22125
1.22126
1.22141
1.22272
1.22696
1.23401
1.24201
1.24949
1.2559
1.26127
1.2657
1.2693
1.27213
1.27434
1.27616
1.27789
1.27981
1.28211
1.28486
1.28809
1.29199
1.29698
1.30372
1.31298
1.32536
1.34109
1.36033
1.38138
1.39603
1.38815
1.32549
1.21486
1.22125
1.22125
1.22125
1.22125
1.22125
1.22125
1.22125
1.22125
1.22125
1.22125
1.22125
1.22125
1.22125
1.22125
1.22125
1.22125
1.22125
1.22125
1.22125
1.22125
1.22125
1.22125
1.22125
1.22125
1.22125
1.22125
1.22125
1.22125
1.22125
1.22137
1.22246
1.22629
1.233
1.24085
1.24829
1.2547
1.26007
1.26452
1.26814
1.27101
1.27323
1.27502
1.27664
1.27838
1.28043
1.28284
1.28564
1.28896
1.29317
1.29879
1.30645
1.31662
1.32949
1.34516
1.3623
1.37427
1.36931
1.22125
1.22125
1.22125
1.22125
1.22125
1.22125
1.22125
1.22125
1.22125
1.22125
1.22125
1.22125
1.22125
1.22125
1.22125
1.22125
1.22125
1.22125
1.22125
1.22125
1.22125
1.22125
1.22125
1.22125
1.22125
1.22125
1.22125
1.22125
1.22125
1.22133
1.22221
1.22559
1.23192
1.23958
1.24696
1.25337
1.25875
1.26321
1.26685
1.26975
1.27199
1.27375
1.27528
1.27684
1.27863
1.28072
1.2831
1.28584
1.28923
1.29374
1.29985
1.3079
1.31797
1.32991
1.34271
1.35148
1.22125
1.22125
1.22125
1.22125
1.22125
1.22125
1.22125
1.22125
1.22125
1.22125
1.22125
1.22125
1.22125
1.22125
1.22125
1.22125
1.22125
1.22125
1.22125
1.22125
1.22125
1.22125
1.22125
1.22125
1.22125
1.22125
1.22125
1.22125
1.22125
1.2213
1.22198
1.22489
1.23077
1.2382
1.24551
1.25192
1.2573
1.26177
1.26543
1.26836
1.27063
1.27236
1.2738
1.27518
1.27672
1.27849
1.28047
1.28265
1.28524
1.28863
1.29325
1.29933
1.30679
1.31518
1.32356
1.32899
1.22125
1.22125
1.22125
1.22125
1.22125
1.22125
1.22125
1.22125
1.22125
1.22125
1.22125
1.22125
1.22125
1.22125
1.22125
1.22125
1.22125
1.22125
1.22125
1.22125
1.22125
1.22125
1.22125
1.22125
1.22125
1.22125
1.22125
1.22125
1.22125
1.22128
1.22177
1.2242
1.22956
1.2367
1.24393
1.25033
1.25572
1.26019
1.26387
1.26683
1.26912
1.27085
1.2722
1.27341
1.27469
1.27615
1.27776
1.27945
1.2813
1.28362
1.28678
1.29103
1.29613
1.30145
1.30604
1.30862
1.22125
1.22125
1.22125
1.22125
1.22125
1.22125
1.22125
1.22125
1.22125
1.22125
1.22125
1.22125
1.22125
1.22125
1.22125
1.22125
1.22125
1.22125
1.22125
1.22125
1.22125
1.22125
1.22125
1.22125
1.22125
1.22125
1.22125
1.22125
1.22125
1.22127
1.2216
1.22354
1.22831
1.23511
1.24222
1.2486
1.254
1.25847
1.26216
1.26515
1.26747
1.2692
1.27048
1.27153
1.27255
1.2737
1.27496
1.27623
1.27746
1.27882
1.28065
1.28318
1.28619
1.28907
1.29085
1.29066
1.22125
1.22125
1.22125
1.22125
1.22125
1.22125
1.22125
1.22125
1.22125
1.22125
1.22125
1.22125
1.22125
1.22125
1.22125
1.22125
1.22125
1.22125
1.22125
1.22125
1.22125
1.22125
1.22125
1.22125
1.22125
1.22125
1.22125
1.22125
1.22125
1.22126
1.22147
1.22294
1.22706
1.23341
1.24036
1.24673
1.25213
1.25661
1.26031
1.26331
1.26566
1.26741
1.26865
1.26956
1.27034
1.27117
1.27208
1.27298
1.27371
1.27431
1.27501
1.27602
1.2772
1.27816
1.27806
1.27566
1.22125
1.22125
1.22125
1.22125
1.22125
1.22125
1.22125
1.22125
1.22125
1.22125
1.22125
1.22125
1.22125
1.22125
1.22125
1.22125
1.22125
1.22125
1.22125
1.22125
1.22125
1.22125
1.22125
1.22125
1.22125
1.22125
1.22125
1.22125
1.22125
1.22126
1.22137
1.22241
1.22583
1.23165
1.23837
1.2447
1.25012
1.25462
1.25831
1.26132
1.2637
1.26547
1.2667
1.26751
1.26808
1.26859
1.26916
1.2697
1.27003
1.27009
1.26993
1.26972
1.26948
1.26893
1.26729
1.26378
1.22125
1.22125
1.22125
1.22125
1.22125
1.22125
1.22125
1.22125
1.22125
1.22125
1.22125
1.22125
1.22125
1.22125
1.22125
1.22125
1.22125
1.22125
1.22125
1.22125
1.22125
1.22125
1.22125
1.22125
1.22125
1.22125
1.22125
1.22125
1.22125
1.22125
1.22131
1.22199
1.22467
1.22984
1.23625
1.24252
1.24796
1.25248
1.25618
1.2592
1.26159
1.26339
1.26462
1.26537
1.26578
1.26602
1.26625
1.26644
1.26643
1.26606
1.26529
1.26433
1.26316
1.26145
1.25872
1.25465
1.22125
1.22125
1.22125
1.22125
1.22125
1.22125
1.22125
1.22125
1.22125
1.22125
1.22125
1.22125
1.22125
1.22125
1.22125
1.22125
1.22125
1.22125
1.22125
1.22125
1.22125
1.22125
1.22125
1.22125
1.22125
1.22125
1.22125
1.22125
1.22125
1.22125
1.22128
1.22167
1.22363
1.22804
1.23404
1.24018
1.24564
1.25019
1.25392
1.25694
1.25934
1.26116
1.26242
1.26314
1.26344
1.26349
1.26346
1.26333
1.26292
1.2621
1.26099
1.25971
1.25807
1.25568
1.25228
1.24797
1.22125
1.22125
1.22125
1.22125
1.22125
1.22125
1.22125
1.22125
1.22125
1.22125
1.22125
1.22125
1.22125
1.22125
1.22125
1.22125
1.22125
1.22125
1.22125
1.22125
1.22125
1.22125
1.22125
1.22125
1.22125
1.22125
1.22125
1.22125
1.22125
1.22125
1.22126
1.22146
1.22275
1.22631
1.23175
1.23771
1.24316
1.24776
1.25152
1.25455
1.25697
1.25881
1.26008
1.26081
1.26106
1.26103
1.26084
1.2604
1.25957
1.25836
1.25701
1.25559
1.25383
1.25128
1.24773
1.24342
1.22125
1.22125
1.22125
1.22125
1.22125
1.22125
1.22125
1.22125
1.22125
1.22125
1.22125
1.22125
1.22125
1.22125
1.22125
1.22125
1.22125
1.22125
1.22125
1.22125
1.22125
1.22125
1.22125
1.22125
1.22125
1.22125
1.22125
1.22125
1.22125
1.22125
1.22125
1.22133
1.22209
1.22473
1.22946
1.23511
1.24052
1.24517
1.24898
1.25205
1.25448
1.25634
1.25764
1.25839
1.25865
1.25861
1.25834
1.25769
1.25653
1.25496
1.25334
1.25181
1.2501
1.24775
1.2445
1.24051
1.22125
1.22125
1.22125
1.22125
1.22125
1.22125
1.22125
1.22125
1.22125
1.22125
1.22125
1.22125
1.22125
1.22125
1.22125
1.22125
1.22125
1.22125
1.22125
1.22125
1.22125
1.22125
1.22125
1.22125
1.22125
1.22125
1.22125
1.22125
1.22125
1.22125
1.22125
1.22128
1.22164
1.22339
1.22724
1.23244
1.23774
1.24243
1.2463
1.24942
1.25189
1.25378
1.25513
1.25592
1.25621
1.25619
1.25592
1.2552
1.25387
1.25203
1.25013
1.24841
1.2467
1.24464
1.24192
1.23855
1.22125
1.22125
1.22125
1.22125
1.22125
1.22125
1.22125
1.22125
1.22125
1.22125
1.22125
1.22125
1.22125
1.22125
1.22125
1.22125
1.22125
1.22125
1.22125
1.22125
1.22125
1.22125
1.22125
1.22125
1.22125
1.22125
1.22125
1.22125
1.22125
1.22125
1.22125
1.22126
1.2214
1.22238
1.22521
1.22975
1.23484
1.23954
1.24349
1.24667
1.24919
1.25114
1.25254
1.2534
1.25377
1.25379
1.25356
1.25289
1.25156
1.2496
1.24747
1.24551
1.2437
1.24181
1.23958
1.23689
1.22125
1.22125
1.22125
1.22125
1.22125
1.22125
1.22125
1.22125
1.22125
1.22125
1.22125
1.22125
1.22125
1.22125
1.22125
1.22125
1.22125
1.22125
1.22125
1.22125
1.22125
1.22125
1.22125
1.22125
1.22125
1.22125
1.22125
1.22125
1.22125
1.22125
1.22125
1.22125
1.22129
1.22172
1.22352
1.22717
1.23186
1.23652
1.24055
1.24382
1.2464
1.2484
1.24988
1.25084
1.25131
1.2514
1.25124
1.2507
1.24952
1.24762
1.24539
1.24323
1.24126
1.23936
1.23739
1.23523
1.22125
1.22125
1.22125
1.22125
1.22125
1.22125
1.22125
1.22125
1.22125
1.22125
1.22125
1.22125
1.22125
1.22125
1.22125
1.22125
1.22125
1.22125
1.22125
1.22125
1.22125
1.22125
1.22125
1.22125
1.22125
1.22125
1.22125
1.22125
1.22125
1.22125
1.22125
1.22125
1.22126
1.2214
1.22231
1.22486
1.22888
1.23337
1.23748
1.24086
1.24353
1.24559
1.24715
1.24822
1.24883
1.24902
1.24896
1.24859
1.24767
1.246
1.24381
1.24157
1.23946
1.23748
1.23556
1.23366
1.22125
1.22125
1.22125
1.22125
1.22125
1.22125
1.22125
1.22125
1.22125
1.22125
1.22125
1.22125
1.22125
1.22125
1.22125
1.22125
1.22125
1.22125
1.22125
1.22125
1.22125
1.22125
1.22125
1.22125
1.22125
1.22125
1.22125
1.22125
1.22125
1.22125
1.22125
1.22125
1.22125
1.22128
1.22161
1.22304
1.22608
1.23015
1.23426
1.23779
1.2406
1.24275
1.24437
1.24553
1.24628
1.24662
1.24667
1.24648
1.24588
1.2446
1.24264
1.24043
1.23828
1.23625
1.23432
1.23246
1.22125
1.22125
1.22125
1.22125
1.22125
1.22125
1.22125
1.22125
1.22125
1.22125
1.22125
1.22125
1.22125
1.22125
1.22125
1.22125
1.22125
1.22125
1.22125
1.22125
1.22125
1.22125
1.22125
1.22125
1.22125
1.22125
1.22125
1.22125
1.22125
1.22125
1.22125
1.22125
1.22125
1.22125
1.22133
1.2219
1.22375
1.227
1.23089
1.23457
1.23758
1.23989
1.24159
1.24283
1.24367
1.24416
1.24434
1.24431
1.24403
1.24324
1.24172
1.23971
1.23762
1.23559
1.23367
1.23182
1.22125
1.22125
1.22125
1.22125
1.22125
1.22125
1.22125
1.22125
1.22125
1.22125
1.22125
1.22125
1.22125
1.22125
1.22125
1.22125
1.22125
1.22125
1.22125
1.22125
1.22125
1.22125
1.22125
1.22125
1.22125
1.22125
1.22125
1.22125
1.22125
1.22125
1.22125
1.22125
1.22125
1.22125
1.22126
1.2214
1.22219
1.22427
1.22751
1.23112
1.23438
1.23696
1.23884
1.24018
1.24109
1.24167
1.24196
1.24205
1.24198
1.24164
1.24074
1.23919
1.23731
1.23539
1.23352
1.23173
1.22125
1.22125
1.22125
1.22125
1.22125
1.22125
1.22125
1.22125
1.22125
1.22125
1.22125
1.22125
1.22125
1.22125
1.22125
1.22125
1.22125
1.22125
1.22125
1.22125
1.22125
1.22125
1.22125
1.22125
1.22125
1.22125
1.22125
1.22125
1.22125
1.22125
1.22125
1.22125
1.22125
1.22125
1.22125
1.22127
1.22147
1.22238
1.2245
1.22758
1.23089
1.2338
1.23602
1.23758
1.23862
1.23926
1.23962
1.23977
1.23981
1.23972
1.23934
1.23846
1.23707
1.23542
1.2337
1.23202
1.22125
1.22125
1.22125
1.22125
1.22125
1.22125
1.22125
1.22125
1.22125
1.22125
1.22125
1.22125
1.22125
1.22125
1.22125
1.22125
1.22125
1.22125
1.22125
1.22125
1.22125
1.22125
1.22125
1.22125
1.22125
1.22125
1.22125
1.22125
1.22125
1.22125
1.22125
1.22125
1.22125
1.22125
1.22125
1.22125
1.22127
1.2215
1.22242
1.22441
1.22725
1.23026
1.23289
1.23487
1.2362
1.23702
1.23745
1.23764
1.23768
1.23765
1.23751
1.23714
1.23644
1.23531
1.23389
1.23244
1.22125
1.22125
1.22125
1.22125
1.22125
1.22125
1.22125
1.22125
1.22125
1.22125
1.22125
1.22125
1.22125
1.22125
1.22125
1.22125
1.22125
1.22125
1.22125
1.22125
1.22125
1.22125
1.22125
1.22125
1.22125
1.22125
1.22125
1.22125
1.22125
1.22125
1.22125
1.22125
1.22125
1.22125
1.22125
1.22125
1.22125
1.22128
1.22148
1.2223
1.22405
1.22656
1.2293
1.23171
1.23354
1.23474
1.23543
1.23574
1.23581
1.23576
1.23561
1.23538
1.2351
1.2346
1.23373
1.23261
1.22125
1.22125
1.22125
1.22125
1.22125
1.22125
1.22125
1.22125
1.22125
1.22125
1.22125
1.22125
1.22125
1.22125
1.22125
1.22125
1.22125
1.22125
1.22125
1.22125
1.22125
1.22125
1.22125
1.22125
1.22125
1.22125
1.22125
1.22125
1.22125
1.22125
1.22125
1.22125
1.22125
1.22125
1.22125
1.22125
1.22125
1.22125
1.22127
1.22143
1.22206
1.22347
1.22561
1.22805
1.2303
1.23206
1.23324
1.23389
1.23415
1.23418
1.23404
1.23376
1.23348
1.23322
1.23285
1.23224
1.22125
1.22125
1.22125
1.22125
1.22125
1.22125
1.22125