/*--------------------------------*- C++ -*----------------------------------*\
| =========                 |                                                 |
| \\      /  F ield         | OpenFOAM: The Open Source CFD Toolbox           |
|  \\    /   O peration     | Version:  2406                                  |
|   \\  /    A nd           | Website:  www.openfoam.com                      |
|    \\/     M anipulation  |                                                 |
\*---------------------------------------------------------------------------*/
FoamFile
{
    version     2.0;
    format      ascii;
    arch        "LSB;label=32;scalar=64";
    class       volScalarField;
    location    "0.08";
    object      T;
}
// * * * * * * * * * * * * * * * * * * * * * * * * * * * * * * * * * * * * * //

dimensions      [0 0 0 1 0 0 0];

internalField   nonuniform List<scalar> 
14020
(
242.036
242.036
242.036
242.036
242.037
242.037
242.038
242.039
242.04
242.041
242.042
242.042
242.043
242.043
242.043
242.044
242.045
242.046
242.047
242.048
242.048
242.049
242.049
242.05
242.051
242.052
242.053
242.053
242.053
242.052
242.051
242.051
242.051
242.052
242.052
242.052
242.052
242.051
242.05
242.05
242.05
242.051
242.051
242.05
242.051
242.051
242.05
242.05
242.05
242.049
242.049
242.049
242.049
242.049
242.048
242.047
242.047
242.047
242.047
242.046
242.046
242.046
242.046
242.045
242.045
242.045
242.045
242.044
242.045
242.045
242.046
242.046
242.046
242.045
242.046
242.046
242.045
242.045
242.044
242.043
242.042
242.041
242.041
242.042
242.042
242.042
242.042
242.042
242.042
242.042
242.043
242.044
242.044
242.044
242.043
242.043
242.044
242.044
242.046
242.048
242.05
242.053
242.059
242.068
242.082
242.103
242.135
242.183
242.254
242.354
242.5
242.706
242.996
243.396
243.945
244.691
245.693
247.021
248.767
251.04
253.966
257.701
262.418
268.323
275.64
284.607
295.463
308.412
323.57
340.869
359.895
379.659
398.366
413.656
423.334
427.232
428.147
428.275
428.295
428.29
428.263
428.192
428.075
427.93
427.776
427.636
427.533
427.482
427.473
427.483
427.507
427.526
427.541
427.558
427.572
427.579
427.583
427.593
427.609
427.626
427.643
427.66
427.667
427.666
427.642
427.564
427.364
427.04
426.637
426.195
425.736
425.269
424.798
424.321
423.838
423.347
422.848
422.344
421.836
421.326
420.817
420.309
419.801
419.295
418.788
418.28
417.769
417.256
416.74
416.223
415.706
415.191
414.679
414.169
413.663
413.158
412.653
412.147
411.638
411.128
410.614
410.099
409.583
409.068
408.553
408.039
407.526
407.012
406.497
405.977
405.455
404.927
404.396
403.86
403.32
402.779
402.235
401.693
401.151
400.613
400.079
399.55
399.029
398.515
398.009
397.514
397.028
396.554
396.081
395.559
394.557
242.036
242.036
242.036
242.036
242.037
242.037
242.038
242.039
242.04
242.041
242.042
242.042
242.043
242.043
242.043
242.044
242.045
242.046
242.047
242.048
242.048
242.049
242.049
242.05
242.051
242.052
242.053
242.053
242.053
242.052
242.051
242.051
242.051
242.052
242.052
242.052
242.051
242.051
242.05
242.05
242.05
242.051
242.051
242.05
242.051
242.051
242.05
242.05
242.05
242.049
242.049
242.049
242.049
242.049
242.048
242.047
242.047
242.047
242.047
242.046
242.046
242.046
242.046
242.045
242.045
242.045
242.045
242.045
242.045
242.045
242.046
242.046
242.046
242.045
242.046
242.046
242.045
242.045
242.044
242.043
242.042
242.041
242.041
242.042
242.042
242.042
242.042
242.042
242.042
242.042
242.043
242.044
242.044
242.044
242.043
242.044
242.044
242.044
242.046
242.048
242.05
242.053
242.059
242.068
242.082
242.103
242.135
242.183
242.254
242.354
242.5
242.706
242.996
243.395
243.945
244.69
245.691
247.018
248.762
251.032
253.955
257.683
262.394
268.291
275.597
284.553
295.398
308.338
323.492
340.794
359.83
379.61
398.338
413.646
423.335
427.236
428.147
428.276
428.296
428.29
428.263
428.192
428.075
427.93
427.776
427.636
427.533
427.482
427.473
427.483
427.507
427.525
427.541
427.558
427.572
427.579
427.583
427.593
427.609
427.626
427.643
427.66
427.667
427.666
427.642
427.564
427.364
427.039
426.637
426.195
425.736
425.269
424.798
424.321
423.838
423.347
422.848
422.344
421.836
421.326
420.817
420.309
419.801
419.295
418.788
418.28
417.769
417.256
416.74
416.223
415.706
415.191
414.679
414.169
413.663
413.158
412.653
412.147
411.638
411.128
410.614
410.099
409.583
409.068
408.553
408.039
407.526
407.012
406.497
405.977
405.455
404.927
404.396
403.86
403.32
402.779
402.235
401.693
401.151
400.613
400.079
399.55
399.029
398.515
398.009
397.514
397.028
396.554
396.081
395.559
394.559
242.036
242.036
242.036
242.036
242.037
242.037
242.038
242.039
242.04
242.041
242.042
242.042
242.043
242.043
242.043
242.044
242.045
242.046
242.047
242.048
242.048
242.049
242.049
242.05
242.051
242.052
242.053
242.053
242.053
242.052
242.05
242.051
242.051
242.052
242.052
242.052
242.051
242.051
242.05
242.05
242.05
242.051
242.051
242.05
242.051
242.051
242.05
242.05
242.05
242.049
242.049
242.049
242.049
242.049
242.048
242.047
242.047
242.047
242.047
242.046
242.046
242.046
242.046
242.045
242.045
242.045
242.045
242.045
242.045
242.045
242.046
242.046
242.046
242.045
242.046
242.046
242.045
242.045
242.044
242.043
242.042
242.041
242.041
242.042
242.042
242.042
242.042
242.042
242.042
242.042
242.043
242.044
242.044
242.044
242.043
242.044
242.044
242.044
242.045
242.047
242.05
242.053
242.059
242.068
242.082
242.103
242.135
242.183
242.254
242.354
242.5
242.705
242.995
243.394
243.943
244.687
245.685
247.009
248.747
251.01
253.921
257.636
262.328
268.203
275.484
284.414
295.236
308.162
323.314
340.629
359.692
379.51
398.279
413.618
423.326
427.236
428.148
428.277
428.296
428.29
428.263
428.192
428.075
427.93
427.776
427.636
427.533
427.482
427.473
427.483
427.507
427.525
427.541
427.558
427.572
427.579
427.583
427.593
427.609
427.626
427.643
427.66
427.667
427.666
427.642
427.564
427.364
427.039
426.637
426.195
425.736
425.269
424.798
424.321
423.838
423.347
422.848
422.344
421.836
421.326
420.817
420.309
419.801
419.295
418.788
418.28
417.77
417.256
416.74
416.223
415.706
415.191
414.679
414.169
413.663
413.158
412.653
412.147
411.638
411.128
410.614
410.099
409.583
409.068
408.553
408.039
407.526
407.012
406.497
405.977
405.455
404.927
404.396
403.86
403.32
402.779
402.235
401.693
401.151
400.613
400.079
399.55
399.029
398.515
398.009
397.513
397.028
396.554
396.081
395.558
394.562
242.036
242.036
242.036
242.036
242.037
242.037
242.038
242.039
242.04
242.041
242.042
242.042
242.043
242.043
242.043
242.044
242.045
242.046
242.047
242.048
242.048
242.049
242.049
242.05
242.051
242.052
242.053
242.053
242.053
242.052
242.05
242.051
242.051
242.052
242.052
242.052
242.051
242.051
242.05
242.05
242.05
242.051
242.051
242.05
242.051
242.051
242.05
242.05
242.05
242.049
242.049
242.049
242.049
242.049
242.048
242.047
242.047
242.047
242.047
242.046
242.046
242.046
242.046
242.045
242.045
242.045
242.045
242.045
242.045
242.045
242.046
242.046
242.046
242.045
242.046
242.046
242.045
242.045
242.044
242.043
242.041
242.041
242.041
242.042
242.042
242.042
242.042
242.042
242.042
242.042
242.043
242.044
242.044
242.044
242.044
242.044
242.044
242.044
242.045
242.047
242.049
242.053
242.059
242.068
242.082
242.103
242.135
242.183
242.254
242.354
242.5
242.705
242.994
243.392
243.939
244.68
245.674
246.992
248.722
250.971
253.865
257.557
262.222
268.065
275.313
284.215
295.015
307.935
323.099
340.444
359.551
379.417
398.225
413.594
423.322
427.238
428.148
428.277
428.296
428.29
428.263
428.192
428.076
427.93
427.776
427.636
427.533
427.482
427.473
427.483
427.507
427.526
427.541
427.558
427.572
427.579
427.583
427.593
427.609
427.626
427.643
427.66
427.668
427.666
427.642
427.564
427.364
427.039
426.637
426.195
425.736
425.269
424.798
424.321
423.838
423.347
422.848
422.344
421.836
421.326
420.817
420.309
419.801
419.295
418.788
418.28
417.77
417.256
416.74
416.223
415.706
415.191
414.679
414.169
413.663
413.158
412.653
412.147
411.638
411.127
410.614
410.099
409.583
409.068
408.553
408.039
407.526
407.012
406.497
405.977
405.455
404.927
404.396
403.86
403.32
402.779
402.235
401.693
401.151
400.613
400.079
399.55
399.029
398.514
398.009
397.513
397.028
396.554
396.08
395.557
394.564
242.036
242.036
242.036
242.036
242.037
242.037
242.038
242.039
242.04
242.041
242.042
242.042
242.043
242.043
242.043
242.044
242.045
242.046
242.047
242.048
242.048
242.049
242.049
242.05
242.051
242.052
242.053
242.053
242.053
242.052
242.05
242.05
242.051
242.052
242.052
242.052
242.051
242.051
242.05
242.05
242.05
242.05
242.051
242.05
242.051
242.051
242.05
242.05
242.05
242.049
242.049
242.049
242.049
242.049
242.048
242.047
242.047
242.047
242.047
242.046
242.046
242.046
242.046
242.045
242.045
242.044
242.045
242.045
242.045
242.045
242.046
242.046
242.046
242.046
242.046
242.046
242.045
242.045
242.044
242.042
242.041
242.041
242.042
242.042
242.042
242.042
242.042
242.042
242.042
242.042
242.043
242.044
242.044
242.044
242.044
242.044
242.044
242.044
242.045
242.047
242.049
242.053
242.059
242.068
242.082
242.103
242.136
242.183
242.254
242.354
242.499
242.704
242.992
243.389
243.933
244.671
245.66
246.971
248.689
250.923
253.797
257.465
262.102
267.914
275.135
284.016
294.807
307.736
322.926
340.308
359.453
379.352
398.188
413.574
423.314
427.236
428.148
428.277
428.296
428.29
428.263
428.192
428.076
427.931
427.777
427.636
427.533
427.481
427.473
427.483
427.507
427.526
427.541
427.558
427.571
427.578
427.583
427.593
427.609
427.626
427.643
427.661
427.668
427.666
427.642
427.564
427.364
427.039
426.637
426.195
425.736
425.269
424.798
424.321
423.838
423.347
422.848
422.343
421.836
421.326
420.817
420.309
419.801
419.295
418.789
418.28
417.77
417.256
416.74
416.223
415.706
415.191
414.679
414.169
413.663
413.158
412.653
412.147
411.638
411.127
410.614
410.099
409.583
409.068
408.553
408.039
407.526
407.012
406.496
405.977
405.455
404.927
404.396
403.86
403.32
402.779
402.235
401.693
401.151
400.613
400.078
399.549
399.029
398.514
398.009
397.513
397.027
396.554
396.08
395.556
394.567
242.036
242.036
242.036
242.036
242.037
242.037
242.038
242.039
242.04
242.041
242.042
242.042
242.043
242.043
242.043
242.044
242.045
242.046
242.047
242.048
242.048
242.049
242.049
242.05
242.051
242.052
242.053
242.053
242.053
242.052
242.05
242.05
242.051
242.052
242.052
242.052
242.051
242.051
242.05
242.05
242.05
242.05
242.051
242.05
242.051
242.051
242.05
242.05
242.05
242.049
242.049
242.049
242.049
242.049
242.048
242.047
242.047
242.047
242.047
242.046
242.046
242.046
242.046
242.045
242.045
242.044
242.045
242.045
242.045
242.045
242.046
242.046
242.046
242.046
242.046
242.046
242.045
242.045
242.044
242.042
242.041
242.041
242.042
242.042
242.042
242.042
242.042
242.042
242.041
242.042
242.043
242.044
242.044
242.044
242.044
242.045
242.044
242.044
242.045
242.047
242.049
242.053
242.059
242.068
242.082
242.103
242.136
242.183
242.254
242.354
242.499
242.703
242.99
243.385
243.927
244.661
245.645
246.949
248.656
250.877
253.732
257.379
261.994
267.785
274.99
283.863
294.662
307.612
322.828
340.24
359.413
379.332
398.178
413.57
423.314
427.238
428.149
428.278
428.297
428.29
428.263
428.193
428.077
427.932
427.777
427.637
427.533
427.481
427.473
427.483
427.507
427.526
427.541
427.558
427.571
427.578
427.582
427.593
427.609
427.626
427.644
427.661
427.668
427.666
427.642
427.564
427.364
427.039
426.637
426.195
425.735
425.269
424.798
424.321
423.838
423.347
422.848
422.343
421.836
421.326
420.817
420.309
419.802
419.295
418.789
418.28
417.77
417.256
416.74
416.223
415.706
415.191
414.679
414.169
413.663
413.158
412.653
412.147
411.638
411.127
410.614
410.098
409.583
409.068
408.553
408.039
407.526
407.012
406.496
405.977
405.455
404.927
404.396
403.86
403.32
402.778
402.235
401.693
401.151
400.613
400.078
399.549
399.029
398.514
398.009
397.512
397.027
396.554
396.08
395.555
394.57
242.036
242.036
242.036
242.036
242.037
242.037
242.038
242.039
242.04
242.041
242.042
242.042
242.043
242.043
242.043
242.044
242.045
242.046
242.047
242.048
242.048
242.049
242.049
242.05
242.051
242.052
242.053
242.053
242.053
242.052
242.05
242.05
242.051
242.052
242.052
242.052
242.051
242.051
242.05
242.05
242.05
242.05
242.05
242.05
242.051
242.051
242.05
242.05
242.05
242.049
242.049
242.049
242.049
242.049
242.048
242.047
242.047
242.047
242.047
242.046
242.046
242.046
242.046
242.045
242.044
242.044
242.045
242.045
242.045
242.045
242.046
242.046
242.046
242.046
242.046
242.046
242.045
242.045
242.044
242.042
242.041
242.041
242.042
242.042
242.042
242.041
242.042
242.042
242.041
242.042
242.043
242.044
242.044
242.044
242.044
242.045
242.044
242.043
242.044
242.046
242.049
242.054
242.06
242.068
242.082
242.103
242.136
242.183
242.254
242.353
242.498
242.702
242.988
243.382
243.922
244.653
245.634
246.93
248.63
250.839
253.682
257.316
261.917
267.696
274.896
283.77
294.581
307.55
322.787
340.216
359.398
379.324
398.172
413.566
423.312
427.235
428.147
428.276
428.295
428.289
428.263
428.193
428.077
427.932
427.777
427.636
427.533
427.481
427.473
427.484
427.508
427.526
427.541
427.558
427.571
427.578
427.582
427.593
427.609
427.626
427.644
427.661
427.668
427.667
427.642
427.564
427.364
427.039
426.637
426.194
425.735
425.269
424.798
424.321
423.838
423.347
422.848
422.343
421.835
421.326
420.817
420.309
419.802
419.295
418.789
418.281
417.77
417.256
416.74
416.223
415.706
415.191
414.678
414.169
413.663
413.158
412.653
412.147
411.638
411.127
410.614
410.098
409.583
409.067
408.553
408.039
407.526
407.012
406.496
405.977
405.455
404.927
404.396
403.86
403.321
402.778
402.235
401.693
401.15
400.613
400.077
399.549
399.028
398.514
398.009
397.512
397.027
396.554
396.079
395.555
394.572
242.036
242.036
242.036
242.036
242.037
242.037
242.038
242.039
242.04
242.041
242.042
242.042
242.043
242.043
242.043
242.044
242.045
242.046
242.047
242.048
242.048
242.049
242.049
242.05
242.051
242.052
242.053
242.053
242.053
242.052
242.05
242.05
242.051
242.052
242.052
242.052
242.051
242.051
242.05
242.05
242.05
242.05
242.05
242.05
242.051
242.051
242.05
242.05
242.05
242.049
242.049
242.049
242.049
242.049
242.048
242.047
242.047
242.047
242.047
242.046
242.046
242.046
242.046
242.045
242.044
242.044
242.045
242.045
242.045
242.045
242.046
242.046
242.046
242.046
242.046
242.046
242.045
242.045
242.044
242.042
242.041
242.041
242.042
242.042
242.042
242.041
242.042
242.042
242.041
242.042
242.043
242.044
242.044
242.044
242.044
242.045
242.044
242.043
242.044
242.046
242.05
242.054
242.06
242.068
242.082
242.103
242.136
242.184
242.254
242.353
242.498
242.701
242.987
243.38
243.918
244.649
245.626
246.919
248.615
250.817
253.652
257.279
261.873
267.646
274.847
283.723
294.542
307.528
322.776
340.211
359.391
379.324
398.174
413.569
423.313
427.234
428.146
428.276
428.295
428.289
428.264
428.194
428.078
427.933
427.777
427.636
427.533
427.481
427.473
427.484
427.508
427.526
427.541
427.558
427.571
427.578
427.582
427.593
427.609
427.626
427.644
427.661
427.668
427.667
427.642
427.564
427.364
427.039
426.636
426.194
425.735
425.269
424.798
424.321
423.838
423.347
422.848
422.343
421.835
421.326
420.817
420.309
419.802
419.295
418.789
418.281
417.77
417.256
416.74
416.223
415.706
415.191
414.678
414.169
413.663
413.158
412.653
412.147
411.638
411.127
410.614
410.098
409.583
409.067
408.553
408.039
407.526
407.012
406.496
405.978
405.455
404.927
404.396
403.86
403.321
402.778
402.235
401.692
401.15
400.613
400.076
399.549
399.027
398.514
398.008
397.512
397.028
396.554
396.079
395.554
394.573
242.036
242.036
242.036
242.036
242.037
242.037
242.038
242.039
242.04
242.041
242.042
242.042
242.043
242.043
242.043
242.044
242.045
242.046
242.047
242.048
242.048
242.049
242.049
242.05
242.051
242.052
242.053
242.053
242.053
242.052
242.05
242.05
242.051
242.052
242.052
242.052
242.051
242.051
242.05
242.05
242.05
242.05
242.05
242.05
242.051
242.051
242.051
242.05
242.05
242.049
242.049
242.049
242.049
242.049
242.048
242.047
242.047
242.047
242.047
242.046
242.046
242.046
242.046
242.045
242.044
242.044
242.045
242.045
242.045
242.045
242.046
242.046
242.046
242.046
242.046
242.046
242.045
242.045
242.044
242.042
242.041
242.041
242.042
242.042
242.042
242.041
242.042
242.042
242.041
242.042
242.043
242.044
242.044
242.044
242.044
242.045
242.044
242.043
242.044
242.047
242.05
242.054
242.06
242.068
242.082
242.103
242.136
242.184
242.254
242.353
242.498
242.701
242.987
243.378
243.916
244.648
245.623
246.915
248.61
250.808
253.638
257.261
261.853
267.622
274.827
283.703
294.528
307.521
322.768
340.206
359.384
379.322
398.171
413.568
423.314
427.232
428.144
428.274
428.294
428.288
428.263
428.195
428.078
427.932
427.777
427.636
427.532
427.481
427.473
427.484
427.508
427.526
427.541
427.558
427.571
427.578
427.582
427.593
427.609
427.626
427.644
427.661
427.668
427.667
427.643
427.564
427.364
427.039
426.636
426.194
425.735
425.269
424.798
424.321
423.838
423.347
422.848
422.343
421.835
421.326
420.817
420.309
419.802
419.296
418.789
418.281
417.77
417.256
416.74
416.223
415.706
415.191
414.678
414.169
413.663
413.158
412.653
412.147
411.638
411.127
410.614
410.098
409.583
409.067
408.553
408.039
407.525
407.012
406.496
405.978
405.454
404.927
404.396
403.86
403.321
402.778
402.235
401.692
401.151
400.612
400.076
399.55
399.027
398.514
398.008
397.511
397.028
396.554
396.079
395.554
394.574
293
293
293
293
293
293
293
293
293
293
293
293
293
293
293
293
293
293
293
293
293
293
293
293
293
293
293.001
293.03
293.219
293.723
294.47
295.262
295.979
296.586
297.091
297.504
297.834
298.091
298.295
298.475
298.667
298.898
299.186
299.529
299.936
300.435
301.097
302.03
303.356
305.132
307.18
309.077
310.754
313.746
319.855
329.182
335.911
336.774
326.1
295.768
278.771
278.857
286.2
299.362
309.719
318.17
325.805
330.366
332.632
333.749
334.008
333.289
332.988
331.892
330.765
329.954
329.736
329.748
329.936
330.376
330.644
331.195
331.807
332.623
333.476
334.585
335.509
335.997
336.307
336.516
336.637
336.541
336.331
336.456
336.557
336.594
336.525
335.959
334.245
329.584
293
293
293
293
293
293
293
293
293
293
293
293
293
293
293
293
293
293
293
293
293
293
293
293
293
293
293
293.001
293.024
293.194
293.669
294.396
295.18
295.895
296.503
297.008
297.423
297.756
298.016
298.221
298.398
298.579
298.794
299.058
299.375
299.75
300.208
300.804
301.631
302.806
304.402
306.278
308.039
309.61
312.462
318.081
326.808
332.892
333.249
320.116
291.172
276.688
277.229
284.378
297.452
306.133
312.533
318.212
321.664
323.471
324.456
324.878
325.322
325.725
326.161
326.225
325.966
325.693
325.688
325.319
324.788
324.089
323.71
323.429
324.372
325.428
326.941
328.242
329.447
330.442
331.021
331.31
331.513
331.242
330.77
329.879
328.179
325.417
321.306
315.898
293
293
293
293
293
293
293
293
293
293
293
293
293
293
293
293
293
293
293
293
293
293
293
293
293
293
293
293.001
293.02
293.168
293.611
294.314
295.09
295.802
296.41
296.917
297.333
297.669
297.932
298.138
298.312
298.483
298.68
298.92
299.207
299.547
299.96
300.49
301.214
302.232
303.626
305.299
306.903
308.324
310.798
315.574
323.449
329.232
329.407
316.407
290.476
277.927
280.296
287.984
299.087
305.405
310.237
312.743
314.008
314.296
314.018
313.683
313.723
314.283
315.162
315.847
316.192
316.209
316.061
315.544
314.754
313.819
313.241
313.003
313.567
314.575
316.177
317.697
319.028
319.955
320.373
293
293
293
293
293
293
293
293
293
293
293
293
293
293
293
293
293
293
293
293
293
293
293
293
293
293
293
293
293
293.015
293.142
293.549
294.225
294.989
295.699
296.308
296.814
297.233
297.571
297.837
298.045
298.215
298.377
298.557
298.772
299.029
299.33
299.693
300.155
300.777
301.641
302.821
304.265
305.689
306.933
308.866
312.391
318.855
324.799
293
293
293
293
293
293
293
293
293
293
293
293
293
293
293
293
293
293
293
293
293
293
293
293
293
293
293
293
293
293.011
293.116
293.484
294.128
294.878
295.585
296.194
296.701
297.121
297.462
297.732
297.94
298.108
298.26
298.423
298.615
298.84
299.102
299.411
299.801
300.322
301.036
302.003
303.199
304.419
305.473
306.806
308.879
293
293
293
293
293
293
293
293
293
293
293
293
293
293
293
293
293
293
293
293
293
293
293
293
293
293
293
293
293
293.008
293.092
293.417
294.024
294.757
295.46
296.068
296.577
296.997
297.341
297.614
297.824
297.989
298.133
298.279
298.447
298.642
298.864
299.12
299.435
299.853
300.423
301.184
302.129
303.121
303.986
304.798
293
293
293
293
293
293
293
293
293
293
293
293
293
293
293
293
293
293
293
293
293
293
293
293
293
293
293
293
293
293.005
293.07
293.35
293.914
294.625
295.322
295.93
296.44
296.861
297.207
297.483
297.696
297.859
297.994
298.123
298.267
298.433
298.618
298.822
299.064
299.379
299.808
300.379
301.081
301.829
302.491
302.907
293
293
293
293
293
293
293
293
293
293
293
293
293
293
293
293
293
293
293
293
293
293
293
293
293
293
293
293
293
293.003
293.05
293.284
293.798
294.482
295.171
295.78
296.29
296.712
297.06
297.339
297.554
297.717
297.843
297.957
298.077
298.214
298.365
298.523
298.696
298.912
299.207
299.602
300.082
300.576
300.977
301.176
293
293
293
293
293
293
293
293
293
293
293
293
293
293
293
293
293
293
293
293
293
293
293
293
293
293
293
293
293
293.002
293.034
293.22
293.679
294.329
295.008
295.615
296.127
296.55
296.899
297.18
297.399
297.562
297.682
297.78
297.877
297.984
298.103
298.221
298.336
298.463
298.634
298.87
299.151
299.423
299.591
299.569
293
293
293
293
293
293
293
293
293
293
293
293
293
293
293
293
293
293
293
293
293
293
293
293
293
293
293
293
293
293.001
293.021
293.162
293.558
294.167
294.831
295.437
295.95
296.375
296.724
297.007
297.229
297.393
297.51
297.595
297.669
297.746
297.832
297.916
297.985
298.041
298.107
298.2
298.31
298.401
298.395
298.177
293
293
293
293
293
293
293
293
293
293
293
293
293
293
293
293
293
293
293
293
293
293
293
293
293
293
293
293
293
293
293.012
293.112
293.44
293.998
294.641
295.244
295.76
296.186
296.535
296.82
297.044
297.211
297.326
297.403
297.456
297.504
297.557
297.608
297.639
297.644
297.629
297.609
297.586
297.535
297.382
297.055
293
293
293
293
293
293
293
293
293
293
293
293
293
293
293
293
293
293
293
293
293
293
293
293
293
293
293
293
293
293
293.006
293.071
293.329
293.825
294.439
295.036
295.554
295.983
296.334
296.619
296.844
297.014
297.131
297.201
297.239
297.262
297.284
297.301
297.301
297.265
297.193
297.102
296.992
296.83
296.573
296.19
293
293
293
293
293
293
293
293
293
293
293
293
293
293
293
293
293
293
293
293
293
293
293
293
293
293
293
293
293
293
293.002
293.04
293.229
293.652
294.227
294.814
295.334
295.766
296.119
296.405
296.632
296.804
296.922
296.991
297.019
297.024
297.021
297.009
296.97
296.893
296.788
296.666
296.512
296.286
295.964
295.556
293
293
293
293
293
293
293
293
293
293
293
293
293
293
293
293
293
293
293
293
293
293
293
293
293
293
293
293
293
293
293.001
293.02
293.145
293.486
294.008
294.578
295.098
295.535
295.891
296.179
296.408
296.581
296.702
296.771
296.794
296.791
296.774
296.732
296.653
296.539
296.411
296.277
296.111
295.869
295.533
295.123
293
293
293
293
293
293
293
293
293
293
293
293
293
293
293
293
293
293
293
293
293
293
293
293
293
293
293
293
293
293
293
293.008
293.081
293.335
293.789
294.33
294.846
295.289
295.651
295.942
296.172
296.348
296.472
296.542
296.566
296.563
296.537
296.476
296.366
296.218
296.065
295.919
295.757
295.534
295.225
294.846
293
293
293
293
293
293
293
293
293
293
293
293
293
293
293
293
293
293
293
293
293
293
293
293
293
293
293
293
293
293
293
293.002
293.038
293.206
293.576
294.074
294.581
295.028
295.396
295.692
295.927
296.106
296.233
296.308
296.336
296.334
296.308
296.241
296.115
295.94
295.76
295.596
295.435
295.239
294.98
294.658
293
293
293
293
293
293
293
293
293
293
293
293
293
293
293
293
293
293
293
293
293
293
293
293
293
293
293
293
293
293
293
293.001
293.014
293.108
293.381
293.816
294.304
294.753
295.129
295.432
295.671
295.855
295.988
296.07
296.104
296.107
296.085
296.022
295.896
295.71
295.507
295.321
295.149
294.969
294.756
294.5
293
293
293
293
293
293
293
293
293
293
293
293
293
293
293
293
293
293
293
293
293
293
293
293
293
293
293
293
293
293
293
293
293.004
293.046
293.219
293.569
294.018
294.464
294.849
295.16
295.406
295.596
295.736
295.827
295.872
295.881
295.865
295.814
295.702
295.522
295.309
295.104
294.916
294.735
294.547
294.342
293
293
293
293
293
293
293
293
293
293
293
293
293
293
293
293
293
293
293
293
293
293
293
293
293
293
293
293
293
293
293
293
293.001
293.014
293.102
293.347
293.733
294.163
294.556
294.878
295.132
295.329
295.476
295.578
295.636
295.655
295.648
295.614
295.526
295.367
295.16
294.946
294.745
294.556
294.373
294.191
293
293
293
293
293
293
293
293
293
293
293
293
293
293
293
293
293
293
293
293
293
293
293
293
293
293
293
293
293
293
293
293
293
293.003
293.034
293.172
293.465
293.855
294.248
294.586
294.853
295.058
295.212
295.323
295.394
295.426
295.431
295.413
295.356
295.235
295.048
294.838
294.633
294.439
294.254
294.077
293
293
293
293
293
293
293
293
293
293
293
293
293
293
293
293
293
293
293
293
293
293
293
293
293
293
293
293
293
293
293
293
293
293
293.007
293.063
293.24
293.553
293.926
294.277
294.565
294.785
294.948
295.065
295.146
295.192
295.209
295.206
295.18
295.105
294.96
294.769
294.569
294.376
294.192
294.015
293
293
293
293
293
293
293
293
293
293
293
293
293
293
293
293
293
293
293
293
293
293
293
293
293
293
293
293
293
293
293
293
293
293
293.001
293.014
293.09
293.29
293.602
293.948
294.26
294.506
294.686
294.813
294.9
294.955
294.983
294.991
294.985
294.953
294.867
294.719
294.54
294.357
294.178
294.006
293
293
293
293
293
293
293
293
293
293
293
293
293
293
293
293
293
293
293
293
293
293
293
293
293
293
293
293
293
293
293
293
293
293
293
293.002
293.021
293.109
293.312
293.609
293.926
294.204
294.416
294.566
294.665
294.726
294.76
294.775
294.778
294.77
294.734
294.649
294.517
294.359
294.195
294.034
293
293
293
293
293
293
293
293
293
293
293
293
293
293
293
293
293
293
293
293
293
293
293
293
293
293
293
293
293
293
293
293
293
293
293
293
293.002
293.024
293.112
293.304
293.577
293.866
294.117
294.306
294.433
294.511
294.553
294.571
294.575
294.572
294.558
294.523
294.456
294.348
294.213
294.074
293
293
293
293
293
293
293
293
293
293
293
293
293
293
293
293
293
293
293
293
293
293
293
293
293
293
293
293
293
293
293
293
293
293
293
293
293
293.002
293.022
293.1
293.269
293.511
293.773
294.004
294.179
294.294
294.36
294.389
294.396
294.391
294.377
294.355
294.328
294.28
294.197
294.091
293
293
293
293
293
293
293
293
293
293
293
293
293
293
293
293
293
293
293
293
293
293
293
293
293
293
293
293
293
293
293
293
293
293
293
293
293
293
293.002
293.017
293.078
293.214
293.419
293.653
293.869
294.038
294.15
294.213
294.238
294.24
294.227
294.2
294.173
294.148
294.114
294.055
293
293
293
293
293
293
293
293
293
293
293
293
293
293
293
293
293
293
293
293
293
293
293
293
293
293
293
293
293
293
293
293
293
293
293
293
293
293
293
293.001
293.011
293.051
293.15
293.313
293.514
293.714
293.88
293.998
294.067
294.097
294.101
294.085
294.053
294.019
293.99
293.959
293
293
293
293
293
293
293
293
293
293
293
293
293
293
293
293
293
293
293
293
293
293
293
293
293
293
293
293
293
293
293
293
293
293
293
293
293
293
293
293
293
293.005
293.027
293.09
293.206
293.366
293.544
293.706
293.833
293.917
293.96
293.972
293.963
293.935
293.898
293.863
293
293
293
293
293
293
293
293
293
293
293
293
293
293
293
293
293
293
293
293
293
293
293
293
293
293
293
293
293
293
293
293
293
293
293
293
293
293
293
293
293
293
293.002
293.012
293.044
293.115
293.228
293.371
293.52
293.651
293.751
293.814
293.844
293.848
293.834
293.804
293
293
293
293
293
293
293
293
293
293
293
293
293
293
293
293
293
293
293
293
293
293
293
293
293
293
293
293
293
293
293
293
293
293
293
293
293
293
293
293
293
293
293
293
293.004
293.017
293.051
293.117
293.216
293.335
293.458
293.566
293.649
293.702
293.727
293.731
293
293
293
293
293
293
293
293
293
293
293
293
293
293
293
293
293
293
293
293
293
293
293
293
293
293
293
293
293
293
293
293
293
293
293
293
293
293
293
293
293
293
293
293
293
293.001
293.004
293.017
293.046
293.1
293.178
293.272
293.371
293.462
293.534
293.585
293
293
293
293
293
293
293
293
293
293
293
293
293
293
293
293
293
293
293
293
293
293
293
293
293
293
293
293
293
293
293
293
293
293
293
293
293
293
293
293
293
293
293
293
293
293
293
293.001
293.004
293.013
293.034
293.071
293.127
293.197
293.274
293.348
293
293
293
293
293
293
293
293
293
293
293
293
293
293
293
293
293
293
293
293
293
293
293
293
293
293
293
293
293
293
293
293
293
293
293
293
293
293
293
293
293
293
293
293
293
293
293
293
293
293.001
293.002
293.008
293.02
293.042
293.077
293.123
293
293
293
293
293
293
293
293
293
293
293
293
293
293
293
293
293
293
293
293
293
293
293
293
293
293
293
293
293
293
293
293
293
293
293
293
293
293
293
293
293
293
293
293
293
293
293
293
293
293
293
293
293.001
293.003
293.009
293.019
293
293
293
293
293
293
293
293
293
293
293
293
293
293
293
293
293
293
293
293
293
293
293
293
293
293
293
293
293
293
293
293
293
293
293
293
293
293
293
293
293
293
293
293
293
293
293
293
293
293
293
293
293
293
293
293.001
293
293
293
293
293
293
293
293
293
293
293
293
293
293
293
293
293
293
293
293
293
293
293
293
293
293
293
293
293
293
293
293
293
293
293
293
293
293
293
293
293
293
293
293
293
293
293
293
293
293
293
293
293
293
293
293
293
293
293
293
293
293
293
293
293
293
293
293
293
293
293
293
293
293
293
293
293
293
293
293
293
293
293
293
293
293
293
293
293
293
293
293
293
293
293
293
293
293
293
293
293
293
293
293
293
293
293
293
293
293
293
293
293
293
293
293
293
293
293
293
293
293
293
293
293
293
293
293
293
293
293
293
293
293
293
293
293
293
293
293
293
293
293
293
293
293
293
293
293
293
293
293
293
293
293
293
293
293
293
293
293
293
293
293
293
293
293
293
293
293
293
293
293
293
293
293
293
293
293
293
293
293
293
293
293
293
293
293
293
293
293
293
293
293
293
293
293
293
293
293
293
293
293
293
293
293
293
293
293
293
293
293
293
293
293
293
293
293
293
293
293
293
293
293
293
293
293
293
293
293
293
293
293
293
293
293
293