/*--------------------------------*- C++ -*----------------------------------*\
| =========                 |                                                 |
| \\      /  F ield         | OpenFOAM: The Open Source CFD Toolbox           |
|  \\    /   O peration     | Version:  2406                                  |
|   \\  /    A nd           | Website:  www.openfoam.com                      |
|    \\/     M anipulation  |                                                 |
\*---------------------------------------------------------------------------*/
FoamFile
{
    version     2.0;
    format      ascii;
    arch        "LSB;label=32;scalar=64";
    class       volScalarField;
    location    "0.05";
    object      Ma;
}
// * * * * * * * * * * * * * * * * * * * * * * * * * * * * * * * * * * * * * //

dimensions      [0 0 0 0 0 0 0];

internalField   nonuniform List<scalar> 
83682
(
1.132
1.132
1.132
1.132
1.132
1.132
1.132
1.132
1.132
1.132
1.132
1.132
1.132
1.132
1.132
1.132
1.132
1.132
1.132
1.132
1.132
1.132
1.132
1.132
1.132
1.13188
1.1287
1.08672
1.0249
1.01931
1.01924
1.01921
1.01918
1.01915
1.01911
1.01907
1.01903
1.01897
1.01891
1.01888
1.01883
1.0188
1.01879
1.01882
1.01888
1.01893
1.01898
1.019
1.019
1.01897
1.01894
1.01896
1.01899
1.01903
1.01911
1.01919
1.01922
1.01923
1.01921
1.01918
1.01913
1.01909
1.01907
1.01906
1.01907
1.01909
1.01913
1.01915
1.01916
1.01915
1.01913
1.01909
1.01906
1.01904
1.01904
1.01905
1.01907
1.0191
1.0191
1.01909
1.01908
1.01906
1.01903
1.019
1.01899
1.019
1.01902
1.01904
1.01906
1.01908
1.0191
1.0191
1.0191
1.01909
1.01909
1.0191
1.0191
1.01911
1.01912
1.01913
1.01913
1.01913
1.01913
1.01912
1.01911
1.0191
1.01909
1.01907
1.01906
1.01906
1.01906
1.01906
1.01906
1.01907
1.01907
1.01908
1.01908
1.01908
1.01908
1.01908
1.01908
1.01909
1.0191
1.0191
1.0191
1.01909
1.01908
1.01908
1.01907
1.01906
1.01906
1.01907
1.01908
1.01908
1.01909
1.01909
1.01909
1.01909
1.01909
1.0191
1.01911
1.01911
1.01912
1.01912
1.01912
1.01911
1.01911
1.0191
1.01909
1.01909
1.01909
1.01908
1.01908
1.01907
1.01907
1.01906
1.01906
1.01906
1.01906
1.01907
1.01908
1.01909
1.0191
1.01908
1.01899
1.01894
1.019
1.01935
1.02023
1.02173
1.0237
1.02587
1.02804
1.03002
1.03174
1.03306
1.03396
1.0342
1.03415
1.03402
1.03383
1.03366
1.03354
1.03356
1.03362
1.03371
1.03367
1.03369
1.03367
1.0336
1.03345
1.0331
1.03238
1.03117
1.02964
1.02822
1.02712
1.02628
1.0256
1.02501
1.02447
1.02398
1.02353
1.02311
1.02274
1.02241
1.02213
1.02191
1.02173
1.02158
1.02146
1.02137
1.0213
1.02124
1.02119
1.02113
1.02108
1.02103
1.02099
1.02094
1.0209
1.02085
1.0208
1.02075
1.0207
1.02065
1.0206
1.02056
1.02052
1.0205
1.02049
1.02048
1.02047
1.02046
1.02046
1.02045
1.02044
1.02043
1.02042
1.02041
1.0204
1.02039
1.02038
1.02037
1.02035
1.02033
1.02032
1.0203
1.02028
1.02027
1.02026
1.02025
1.02024
1.02023
1.02023
1.02023
1.02022
1.02021
1.0202
1.02019
1.02018
1.02017
1.02016
1.02016
1.02015
1.02014
1.02012
1.02011
1.0201
1.02008
1.02007
1.02006
1.02005
1.02004
1.02002
1.02
1.01999
1.01997
1.01996
1.01995
1.01994
1.01993
1.0199
1.01989
1.01987
1.01986
1.01985
1.01985
1.01984
1.01983
1.01983
1.01982
1.01982
1.01982
1.01981
1.01981
1.01981
1.0198
1.0198
1.01978
1.01978
1.01977
1.01976
1.01976
1.01976
1.01976
1.01976
1.01975
1.01974
1.01973
1.01972
1.01971
1.0197
1.0197
1.0197
1.01969
1.01968
1.01967
1.01966
1.01966
1.01965
1.01965
1.01965
1.01965
1.01963
1.01962
1.01961
1.0196
1.0196
1.01959
1.01959
1.01959
1.01958
1.01957
1.01956
1.01956
1.01956
1.01956
1.01957
1.01959
1.0196
1.01961
1.01961
1.01961
1.0196
1.0196
1.01959
1.0196
1.01959
1.01958
1.01954
1.0195
1.01942
1.01931
1.01913
1.01887
1.01847
1.01787
1.01698
1.01569
1.01387
1.01128
1.00772
1.00287
0.996414
0.987952
0.97714
0.963642
0.947234
0.927833
0.90563
0.881128
0.855283
0.829539
0.805743
0.78646
0.773938
0.767182
0.765324
0.765331
0.765413
0.76556
0.765718
0.765846
0.765937
0.766006
0.766067
0.766114
0.766135
0.766166
0.766243
0.766358
0.766458
0.766485
0.766475
0.766434
0.766349
0.766219
0.76608
0.766018
0.766019
0.766039
0.766093
0.766173
0.766249
0.766291
0.766295
0.766282
0.766244
0.766182
0.766139
0.766133
0.766136
0.766156
0.766201
0.766251
0.766272
0.766273
0.766263
0.766233
0.766186
0.766148
0.766139
0.766142
0.766157
0.766187
0.766226
0.766255
0.76626
0.766256
0.76624
0.766209
0.766171
0.766144
0.766133
0.766132
0.766136
0.766148
0.766164
0.766173
0.766176
0.766175
0.76617
0.766168
0.766175
0.766187
0.766204
0.766227
0.766253
0.766276
0.766287
0.766282
0.766266
0.766252
0.766245
0.766247
0.766262
0.766291
0.766331
0.766379
0.766425
0.766437
0.766435
0.766428
0.766416
0.766399
0.76638
0.76636
0.76634
0.766322
0.766303
0.766285
0.766266
0.766249
0.766232
0.766215
0.766196
0.766178
0.766165
0.766159
0.766156
0.766154
0.766151
0.766147
0.766139
0.766129
0.766114
0.766096
0.766078
0.766062
0.766052
0.766049
0.766048
0.766047
0.766046
0.766042
0.766035
0.766023
0.766008
0.765991
0.765975
0.765961
0.765953
0.765947
0.765944
0.765941
0.765936
0.765929
0.765919
0.765907
0.765892
0.765877
0.765864
0.765854
0.765848
0.765843
0.765838
0.765831
0.765823
0.765811
0.765797
0.765781
0.765764
0.765749
0.765737
0.765728
0.765722
0.765716
0.76571
0.765704
0.765695
0.765685
0.765671
0.765657
0.765643
0.76563
0.765619
0.76561
0.765601
0.765593
0.765583
0.765571
0.765558
0.765542
0.765526
0.765509
0.765494
0.765481
0.76547
0.76546
0.765451
0.76544
0.765428
0.765414
0.765397
0.765379
0.76536
0.765342
0.765325
0.765309
0.765295
0.765281
0.765266
0.765251
0.765234
0.765215
0.765196
0.765176
0.765157
0.765139
0.765123
0.765108
0.765093
0.765079
0.765063
0.765046
0.765028
0.765008
0.764988
0.764968
0.764948
0.76493
0.764912
0.764896
0.764879
0.764862
0.764845
0.764827
0.764809
0.764791
0.764774
0.764757
0.764742
0.764727
0.764712
0.764697
0.76468
0.764662
0.764641
0.764619
0.764595
0.76457
0.764545
0.764521
0.764496
0.764472
0.764447
0.764421
0.764395
0.764372
0.764359
0.764355
0.764355
0.764355
0.764356
0.764358
0.764361
0.764366
0.764374
0.764384
0.764397
0.764413
0.764431
0.76445
0.764472
0.764494
0.764518
0.764544
0.764572
0.764602
0.764635
0.764672
0.764713
0.764758
0.764808
0.764864
0.764925
0.764991
0.765063
0.76514
0.765222
0.765307
0.76539
0.765463
0.76551
0.765527
0.765529
0.765529
0.765529
0.765529
0.765528
0.765528
0.765526
0.765525
0.765522
0.765519
0.765516
0.765513
0.765512
0.765512
0.765512
0.765512
0.765513
0.765514
0.765515
0.765517
0.76552
0.765525
0.765529
0.76553
0.765524
0.765473
0.765135
0.76298
0.749639
0.675721
0.398941
0.0535011
0.000602085
4.492e-07
1.74178e-11
4.91978e-14
5.65242e-14
6.45769e-14
7.48036e-14
7.44813e-14
7.01753e-14
6.6995e-14
6.7835e-14
6.7889e-14
6.88774e-14
7.23857e-14
7.71632e-14
7.70382e-14
7.73061e-14
1.132
1.132
1.132
1.132
1.132
1.132
1.132
1.132
1.132
1.132
1.132
1.132
1.132
1.132
1.132
1.132
1.132
1.132
1.132
1.132
1.132
1.132
1.132
1.132
1.132
1.13188
1.1287
1.08672
1.0249
1.01931
1.01924
1.01921
1.01918
1.01915
1.01911
1.01907
1.01903
1.01897
1.01891
1.01888
1.01883
1.0188
1.01879
1.01882
1.01888
1.01893
1.01898
1.019
1.019
1.01897
1.01894
1.01896
1.01899
1.01903
1.01911
1.01919
1.01922
1.01923
1.01921
1.01918
1.01913
1.01908
1.01907
1.01906
1.01907
1.01909
1.01913
1.01915
1.01916
1.01915
1.01913
1.01909
1.01906
1.01904
1.01904
1.01905
1.01907
1.0191
1.0191
1.01909
1.01908
1.01906
1.01903
1.019
1.01899
1.019
1.01902
1.01904
1.01906
1.01908
1.0191
1.0191
1.0191
1.01909
1.01909
1.0191
1.0191
1.01911
1.01912
1.01913
1.01913
1.01913
1.01913
1.01912
1.01911
1.0191
1.01909
1.01907
1.01906
1.01906
1.01906
1.01906
1.01906
1.01907
1.01907
1.01908
1.01908
1.01908
1.01908
1.01908
1.01908
1.01909
1.0191
1.0191
1.0191
1.01909
1.01908
1.01908
1.01907
1.01906
1.01906
1.01907
1.01908
1.01908
1.01909
1.01909
1.01909
1.01909
1.01909
1.0191
1.01911
1.01911
1.01912
1.01912
1.01912
1.01911
1.01911
1.0191
1.01909
1.01909
1.01909
1.01908
1.01908
1.01907
1.01907
1.01906
1.01906
1.01906
1.01906
1.01907
1.01908
1.01909
1.0191
1.01908
1.01899
1.01894
1.019
1.01935
1.02023
1.02174
1.0237
1.02587
1.02804
1.03001
1.03173
1.03306
1.03398
1.03423
1.03417
1.03402
1.03382
1.03363
1.03351
1.03354
1.03362
1.03372
1.0337
1.0337
1.03367
1.0336
1.03345
1.0331
1.03238
1.03117
1.02964
1.02822
1.02712
1.02628
1.0256
1.02501
1.02447
1.02398
1.02353
1.02311
1.02274
1.02241
1.02214
1.02191
1.02173
1.02158
1.02146
1.02137
1.0213
1.02124
1.02119
1.02113
1.02108
1.02103
1.02099
1.02094
1.02089
1.02085
1.0208
1.02075
1.0207
1.02065
1.0206
1.02056
1.02052
1.0205
1.02049
1.02048
1.02047
1.02046
1.02046
1.02045
1.02044
1.02043
1.02042
1.02041
1.0204
1.02039
1.02038
1.02037
1.02035
1.02033
1.02032
1.0203
1.02028
1.02027
1.02026
1.02025
1.02024
1.02023
1.02023
1.02023
1.02022
1.02021
1.0202
1.02019
1.02018
1.02017
1.02016
1.02016
1.02015
1.02014
1.02012
1.02011
1.0201
1.02008
1.02007
1.02006
1.02005
1.02004
1.02002
1.02
1.01999
1.01997
1.01996
1.01995
1.01994
1.01993
1.0199
1.01989
1.01987
1.01986
1.01985
1.01985
1.01984
1.01983
1.01983
1.01982
1.01982
1.01982
1.01981
1.01981
1.01981
1.0198
1.0198
1.01978
1.01978
1.01977
1.01976
1.01976
1.01976
1.01976
1.01976
1.01975
1.01974
1.01973
1.01972
1.01971
1.0197
1.0197
1.0197
1.01969
1.01968
1.01967
1.01966
1.01966
1.01965
1.01965
1.01965
1.01965
1.01963
1.01962
1.01961
1.0196
1.0196
1.01959
1.01959
1.01959
1.01958
1.01957
1.01956
1.01956
1.01956
1.01956
1.01957
1.01959
1.0196
1.01961
1.01961
1.01961
1.0196
1.0196
1.01959
1.0196
1.01959
1.01958
1.01954
1.0195
1.01943
1.01931
1.01914
1.01888
1.01848
1.01788
1.017
1.01572
1.01392
1.01135
1.00783
1.00303
0.996624
0.988235
0.977505
0.964096
0.947777
0.928458
0.906315
0.88183
0.85594
0.83008
0.806132
0.786703
0.774067
0.767251
0.765346
0.765345
0.76542
0.765562
0.765719
0.765846
0.765936
0.766006
0.766067
0.766114
0.766135
0.766167
0.766244
0.766358
0.766457
0.766485
0.766474
0.766433
0.766349
0.766219
0.766079
0.766017
0.766018
0.766038
0.766092
0.766172
0.766248
0.76629
0.766294
0.766281
0.766243
0.766181
0.766138
0.766132
0.766135
0.766155
0.7662
0.76625
0.766271
0.766272
0.766262
0.766233
0.766186
0.766147
0.766139
0.766142
0.766156
0.766186
0.766225
0.766254
0.76626
0.766256
0.76624
0.766208
0.76617
0.766143
0.766132
0.766131
0.766135
0.766147
0.766162
0.766171
0.766175
0.766175
0.766171
0.76617
0.766178
0.76619
0.766208
0.766231
0.766258
0.766282
0.766293
0.766287
0.76627
0.766254
0.766246
0.766247
0.76626
0.766288
0.766328
0.766377
0.766424
0.766436
0.766433
0.766427
0.766415
0.766398
0.766379
0.76636
0.766341
0.766323
0.766304
0.766286
0.766267
0.76625
0.766233
0.766216
0.766197
0.766179
0.766166
0.766159
0.766157
0.766154
0.766151
0.766147
0.76614
0.766129
0.766115
0.766097
0.766078
0.766062
0.766052
0.766049
0.766048
0.766047
0.766046
0.766042
0.766035
0.766023
0.766008
0.765991
0.765975
0.765961
0.765953
0.765948
0.765944
0.765941
0.765936
0.765929
0.765919
0.765907
0.765892
0.765877
0.765864
0.765855
0.765848
0.765843
0.765838
0.765831
0.765823
0.765811
0.765797
0.765781
0.765764
0.765749
0.765737
0.765728
0.765722
0.765716
0.76571
0.765704
0.765695
0.765685
0.765672
0.765657
0.765643
0.76563
0.765619
0.76561
0.765602
0.765593
0.765583
0.765572
0.765558
0.765542
0.765526
0.76551
0.765494
0.765482
0.76547
0.765461
0.765451
0.76544
0.765428
0.765414
0.765397
0.765379
0.765361
0.765342
0.765325
0.765309
0.765295
0.765281
0.765266
0.765251
0.765234
0.765215
0.765196
0.765176
0.765157
0.765139
0.765123
0.765108
0.765094
0.765079
0.765063
0.765046
0.765028
0.765008
0.764988
0.764968
0.764948
0.76493
0.764912
0.764896
0.764879
0.764862
0.764845
0.764827
0.764809
0.764791
0.764774
0.764757
0.764742
0.764727
0.764712
0.764697
0.76468
0.764662
0.764641
0.764619
0.764595
0.76457
0.764545
0.764521
0.764496
0.764472
0.764447
0.764421
0.764395
0.764372
0.764359
0.764355
0.764355
0.764355
0.764356
0.764358
0.764361
0.764366
0.764374
0.764384
0.764397
0.764413
0.764431
0.76445
0.764472
0.764494
0.764518
0.764544
0.764572
0.764602
0.764635
0.764672
0.764713
0.764758
0.764808
0.764864
0.764925
0.764991
0.765063
0.76514
0.765222
0.765307
0.76539
0.765463
0.76551
0.765527
0.765529
0.765529
0.765529
0.765529
0.765528
0.765528
0.765526
0.765525
0.765522
0.765519
0.765516
0.765513
0.765512
0.765512
0.765512
0.765512
0.765513
0.765514
0.765515
0.765517
0.76552
0.765525
0.765529
0.76553
0.765524
0.765473
0.765135
0.762981
0.74964
0.675722
0.398942
0.0535014
0.000602089
4.49203e-07
1.74185e-11
4.75287e-14
5.61814e-14
6.21681e-14
7.03686e-14
7.31627e-14
6.90346e-14
6.82823e-14
6.99339e-14
6.80216e-14
6.84462e-14
7.31506e-14
7.58602e-14
7.69439e-14
8.05651e-14
1.132
1.132
1.132
1.132
1.132
1.132
1.132
1.132
1.132
1.132
1.132
1.132
1.132
1.132
1.132
1.132
1.132
1.132
1.132
1.132
1.132
1.132
1.132
1.132
1.132
1.13188
1.1287
1.08672
1.0249
1.01931
1.01924
1.01921
1.01918
1.01915
1.01911
1.01907
1.01903
1.01897
1.01891
1.01888
1.01883
1.0188
1.01879
1.01882
1.01888
1.01893
1.01898
1.019
1.019
1.01897
1.01894
1.01896
1.01899
1.01903
1.01911
1.01919
1.01922
1.01923
1.01921
1.01918
1.01913
1.01908
1.01907
1.01906
1.01907
1.01909
1.01913
1.01915
1.01916
1.01915
1.01913
1.01909
1.01906
1.01904
1.01904
1.01905
1.01907
1.0191
1.0191
1.01909
1.01908
1.01906
1.01903
1.019
1.01899
1.019
1.01902
1.01904
1.01906
1.01908
1.0191
1.0191
1.0191
1.01909
1.01909
1.0191
1.0191
1.01911
1.01912
1.01913
1.01913
1.01913
1.01913
1.01912
1.01911
1.0191
1.01909
1.01907
1.01906
1.01906
1.01906
1.01906
1.01906
1.01907
1.01907
1.01908
1.01908
1.01908
1.01908
1.01908
1.01908
1.01909
1.0191
1.0191
1.0191
1.01909
1.01908
1.01908
1.01907
1.01906
1.01906
1.01907
1.01908
1.01908
1.01909
1.01909
1.01909
1.01909
1.01909
1.0191
1.01911
1.01911
1.01912
1.01912
1.01912
1.01911
1.01911
1.0191
1.01909
1.01909
1.01909
1.01908
1.01908
1.01907
1.01907
1.01906
1.01906
1.01906
1.01906
1.01907
1.01908
1.01909
1.0191
1.01908
1.01899
1.01894
1.019
1.01935
1.02023
1.02174
1.0237
1.02587
1.02804
1.03
1.03171
1.03306
1.034
1.03425
1.03419
1.03402
1.0338
1.0336
1.03348
1.03352
1.03362
1.03374
1.03373
1.0337
1.03366
1.0336
1.03345
1.0331
1.03238
1.03117
1.02964
1.02822
1.02712
1.02628
1.0256
1.02501
1.02447
1.02398
1.02353
1.02311
1.02274
1.02241
1.02214
1.02191
1.02173
1.02158
1.02146
1.02137
1.0213
1.02124
1.02119
1.02113
1.02108
1.02103
1.02099
1.02094
1.0209
1.02085
1.0208
1.02075
1.0207
1.02065
1.0206
1.02056
1.02052
1.0205
1.02049
1.02048
1.02047
1.02046
1.02046
1.02045
1.02044
1.02043
1.02042
1.02041
1.0204
1.02039
1.02038
1.02037
1.02035
1.02033
1.02032
1.0203
1.02028
1.02027
1.02026
1.02025
1.02024
1.02023
1.02023
1.02023
1.02022
1.02021
1.0202
1.02019
1.02018
1.02017
1.02016
1.02016
1.02015
1.02014
1.02012
1.02011
1.0201
1.02008
1.02007
1.02006
1.02005
1.02004
1.02002
1.02
1.01999
1.01997
1.01996
1.01995
1.01994
1.01993
1.0199
1.01989
1.01987
1.01986
1.01985
1.01985
1.01984
1.01983
1.01983
1.01982
1.01982
1.01982
1.01981
1.01981
1.01981
1.0198
1.0198
1.01978
1.01978
1.01977
1.01976
1.01976
1.01976
1.01976
1.01976
1.01975
1.01974
1.01973
1.01972
1.01971
1.0197
1.0197
1.0197
1.01969
1.01968
1.01967
1.01967
1.01966
1.01965
1.01965
1.01965
1.01965
1.01963
1.01962
1.01961
1.0196
1.0196
1.01959
1.01959
1.01959
1.01958
1.01956
1.01956
1.01956
1.01956
1.01956
1.01957
1.01959
1.0196
1.01961
1.01961
1.0196
1.0196
1.0196
1.01959
1.0196
1.0196
1.01958
1.01955
1.01951
1.01943
1.01932
1.01914
1.01888
1.01848
1.01789
1.01701
1.01574
1.01396
1.01142
1.00794
1.00318
0.996833
0.988514
0.977858
0.964522
0.948261
0.92898
0.906847
0.882327
0.856351
0.830373
0.806307
0.786794
0.774101
0.767277
0.765372
0.765367
0.765437
0.765574
0.765725
0.765849
0.765937
0.766006
0.766067
0.766114
0.766135
0.766167
0.766244
0.766357
0.766456
0.766483
0.766472
0.766431
0.766346
0.766217
0.766078
0.766016
0.766016
0.766037
0.766091
0.766171
0.766247
0.766288
0.766292
0.76628
0.766242
0.76618
0.766137
0.766131
0.766134
0.766154
0.766199
0.766249
0.76627
0.766271
0.766261
0.766231
0.766185
0.766146
0.766138
0.766141
0.766155
0.766185
0.766224
0.766253
0.766259
0.766255
0.766239
0.766207
0.766168
0.766141
0.76613
0.766128
0.766131
0.766142
0.766158
0.766168
0.766172
0.766174
0.766172
0.766175
0.766185
0.7662
0.76622
0.766246
0.766275
0.766299
0.766309
0.766301
0.766282
0.766262
0.766251
0.766249
0.76626
0.766286
0.766325
0.766373
0.766419
0.766432
0.766429
0.766424
0.766412
0.766397
0.766378
0.76636
0.766341
0.766324
0.766306
0.766287
0.766269
0.766252
0.766235
0.766217
0.766198
0.76618
0.766167
0.76616
0.766157
0.766155
0.766152
0.766147
0.76614
0.766129
0.766114
0.766097
0.766078
0.766062
0.766052
0.766049
0.766048
0.766047
0.766046
0.766042
0.766035
0.766023
0.766008
0.765991
0.765975
0.765961
0.765953
0.765948
0.765944
0.765941
0.765937
0.765929
0.76592
0.765907
0.765892
0.765877
0.765864
0.765855
0.765848
0.765843
0.765838
0.765831
0.765823
0.765812
0.765797
0.765781
0.765764
0.765749
0.765737
0.765728
0.765722
0.765716
0.765711
0.765704
0.765696
0.765685
0.765672
0.765657
0.765643
0.76563
0.765619
0.76561
0.765602
0.765593
0.765583
0.765572
0.765558
0.765542
0.765526
0.76551
0.765494
0.765482
0.76547
0.765461
0.765451
0.76544
0.765428
0.765414
0.765397
0.765379
0.765361
0.765342
0.765325
0.765309
0.765295
0.765281
0.765266
0.765251
0.765234
0.765215
0.765196
0.765176
0.765157
0.765139
0.765123
0.765108
0.765094
0.765079
0.765063
0.765046
0.765028
0.765008
0.764988
0.764968
0.764948
0.76493
0.764912
0.764896
0.764879
0.764862
0.764845
0.764827
0.764809
0.764791
0.764774
0.764757
0.764742
0.764727
0.764712
0.764697
0.76468
0.764662
0.764641
0.764619
0.764595
0.76457
0.764545
0.764521
0.764496
0.764472
0.764447
0.764421
0.764395
0.764372
0.764359
0.764355
0.764355
0.764355
0.764356
0.764358
0.764361
0.764366
0.764374
0.764384
0.764397
0.764413
0.764431
0.76445
0.764472
0.764494
0.764518
0.764544
0.764572
0.764602
0.764635
0.764672
0.764713
0.764758
0.764808
0.764864
0.764925
0.764991
0.765063
0.765141
0.765222
0.765307
0.76539
0.765463
0.76551
0.765527
0.765529
0.765529
0.765529
0.765529
0.765528
0.765528
0.765526
0.765525
0.765522
0.765519
0.765516
0.765513
0.765512
0.765512
0.765512
0.765512
0.765513
0.765514
0.765515
0.765517
0.76552
0.765525
0.765529
0.76553
0.765524
0.765473
0.765135
0.76298
0.74964
0.675722
0.398942
0.0535014
0.00060209
4.49204e-07
1.74183e-11
4.72229e-14
5.50562e-14
5.93863e-14
6.65479e-14
7.20313e-14
7.28172e-14
7.15211e-14
7.00956e-14
6.66006e-14
6.89192e-14
7.38995e-14
7.5549e-14
7.50405e-14
7.73443e-14
1.132
1.132
1.132
1.132
1.132
1.132
1.132
1.132
1.132
1.132
1.132
1.132
1.132
1.132
1.132
1.132
1.132
1.132
1.132
1.132
1.132
1.132
1.132
1.132
1.132
1.13188
1.1287
1.08672
1.0249
1.01931
1.01924
1.01921
1.01918
1.01915
1.01911
1.01907
1.01903
1.01897
1.01891
1.01888
1.01883
1.0188
1.01879
1.01882
1.01888
1.01893
1.01898
1.019
1.019
1.01897
1.01894
1.01896
1.01899
1.01903
1.01911
1.01919
1.01922
1.01923
1.01921
1.01918
1.01913
1.01908
1.01907
1.01906
1.01907
1.01909
1.01913
1.01915
1.01916
1.01915
1.01913
1.01909
1.01906
1.01904
1.01904
1.01905
1.01907
1.0191
1.0191
1.01909
1.01908
1.01906
1.01903
1.019
1.01899
1.019
1.01902
1.01904
1.01906
1.01908
1.0191
1.0191
1.0191
1.01909
1.01909
1.0191
1.0191
1.01911
1.01912
1.01913
1.01913
1.01913
1.01913
1.01912
1.01911
1.0191
1.01909
1.01907
1.01906
1.01906
1.01906
1.01906
1.01906
1.01907
1.01907
1.01908
1.01908
1.01908
1.01908
1.01908
1.01908
1.01909
1.0191
1.0191
1.0191
1.01909
1.01908
1.01908
1.01907
1.01906
1.01906
1.01907
1.01908
1.01908
1.01909
1.01909
1.01909
1.01909
1.01909
1.0191
1.01911
1.01911
1.01912
1.01912
1.01912
1.01911
1.01911
1.0191
1.01909
1.01909
1.01909
1.01908
1.01908
1.01907
1.01907
1.01906
1.01906
1.01906
1.01906
1.01907
1.01908
1.01909
1.0191
1.01908
1.01899
1.01894
1.019
1.01935
1.02023
1.02174
1.0237
1.02587
1.02803
1.03
1.0317
1.03306
1.03402
1.03428
1.0342
1.03402
1.03379
1.03358
1.03345
1.0335
1.03361
1.03375
1.03376
1.03371
1.03366
1.03359
1.03345
1.0331
1.03238
1.03117
1.02964
1.02822
1.02712
1.02628
1.0256
1.02501
1.02447
1.02398
1.02353
1.02311
1.02274
1.02241
1.02214
1.02191
1.02173
1.02158
1.02146
1.02137
1.0213
1.02124
1.02119
1.02113
1.02108
1.02103
1.02099
1.02094
1.0209
1.02085
1.0208
1.02075
1.0207
1.02065
1.0206
1.02056
1.02052
1.0205
1.02049
1.02048
1.02047
1.02046
1.02046
1.02045
1.02044
1.02043
1.02042
1.02041
1.0204
1.02039
1.02038
1.02037
1.02035
1.02033
1.02032
1.0203
1.02028
1.02027
1.02026
1.02025
1.02024
1.02023
1.02023
1.02023
1.02022
1.02021
1.0202
1.02019
1.02018
1.02017
1.02016
1.02016
1.02015
1.02014
1.02012
1.02011
1.0201
1.02008
1.02007
1.02006
1.02005
1.02004
1.02002
1.02
1.01999
1.01997
1.01996
1.01995
1.01994
1.01993
1.0199
1.01989
1.01987
1.01986
1.01985
1.01985
1.01984
1.01983
1.01983
1.01982
1.01982
1.01982
1.01981
1.01981
1.01981
1.0198
1.0198
1.01978
1.01978
1.01977
1.01976
1.01976
1.01976
1.01976
1.01976
1.01975
1.01974
1.01973
1.01972
1.01971
1.0197
1.0197
1.0197
1.01969
1.01968
1.01967
1.01967
1.01966
1.01965
1.01965
1.01965
1.01964
1.01963
1.01962
1.01961
1.0196
1.0196
1.01959
1.01959
1.01959
1.01958
1.01956
1.01956
1.01956
1.01956
1.01956
1.01957
1.01959
1.0196
1.01961
1.01961
1.0196
1.0196
1.0196
1.01959
1.0196
1.0196
1.01958
1.01955
1.01951
1.01944
1.01933
1.01915
1.01889
1.01849
1.0179
1.01702
1.01577
1.014
1.01149
1.00804
1.00333
0.997045
0.988789
0.978182
0.96488
0.948622
0.929314
0.90712
0.882522
0.856482
0.830477
0.806407
0.786895
0.774176
0.767332
0.765409
0.7654
0.765463
0.765593
0.765737
0.765856
0.765941
0.766008
0.766067
0.766114
0.766134
0.766165
0.766242
0.766356
0.766454
0.76648
0.766469
0.766427
0.766342
0.766213
0.766074
0.766013
0.766014
0.766034
0.766088
0.766168
0.766244
0.766286
0.76629
0.766277
0.766239
0.766177
0.766135
0.766129
0.766132
0.766152
0.766197
0.766247
0.766268
0.766269
0.766259
0.766229
0.766183
0.766144
0.766136
0.766139
0.766153
0.766183
0.766223
0.766252
0.766257
0.766253
0.766237
0.766205
0.766166
0.766137
0.766125
0.766122
0.766124
0.766135
0.766149
0.76616
0.766166
0.76617
0.766173
0.766184
0.7662
0.766221
0.766247
0.766277
0.766309
0.766335
0.766341
0.76633
0.766308
0.76628
0.766263
0.766255
0.76626
0.766282
0.766318
0.766365
0.766411
0.766423
0.766422
0.766417
0.766407
0.766393
0.766376
0.766359
0.766342
0.766325
0.766308
0.76629
0.766272
0.766255
0.766238
0.76622
0.766201
0.766183
0.766169
0.766162
0.766158
0.766155
0.766152
0.766147
0.766139
0.766129
0.766114
0.766096
0.766078
0.766062
0.766052
0.766049
0.766048
0.766047
0.766046
0.766042
0.766035
0.766023
0.766008
0.765991
0.765975
0.765961
0.765953
0.765948
0.765945
0.765941
0.765937
0.76593
0.76592
0.765907
0.765892
0.765877
0.765864
0.765855
0.765848
0.765843
0.765838
0.765831
0.765823
0.765812
0.765797
0.765781
0.765764
0.765749
0.765737
0.765728
0.765722
0.765716
0.765711
0.765704
0.765696
0.765685
0.765672
0.765657
0.765643
0.76563
0.765619
0.76561
0.765602
0.765593
0.765583
0.765572
0.765558
0.765543
0.765526
0.765509
0.765494
0.765481
0.76547
0.76546
0.765451
0.76544
0.765428
0.765414
0.765397
0.765379
0.765361
0.765342
0.765325
0.765309
0.765295
0.765281
0.765266
0.765251
0.765234
0.765215
0.765196
0.765176
0.765157
0.765139
0.765123
0.765108
0.765094
0.765079
0.765063
0.765046
0.765028
0.765008
0.764988
0.764968
0.764948
0.76493
0.764912
0.764896
0.764879
0.764862
0.764845
0.764827
0.764809
0.764791
0.764774
0.764757
0.764742
0.764727
0.764712
0.764697
0.76468
0.764662
0.764641
0.764619
0.764595
0.76457
0.764545
0.764521
0.764496
0.764472
0.764447
0.764421
0.764395
0.764372
0.764359
0.764355
0.764355
0.764355
0.764356
0.764358
0.764361
0.764366
0.764374
0.764384
0.764397
0.764413
0.764431
0.76445
0.764472
0.764494
0.764518
0.764544
0.764572
0.764602
0.764635
0.764672
0.764713
0.764758
0.764808
0.764864
0.764925
0.764991
0.765063
0.765141
0.765222
0.765307
0.76539
0.765463
0.76551
0.765527
0.765529
0.765529
0.765529
0.765529
0.765528
0.765528
0.765527
0.765525
0.765522
0.765519
0.765516
0.765513
0.765512
0.765512
0.765512
0.765513
0.765513
0.765514
0.765515
0.765517
0.76552
0.765525
0.765529
0.76553
0.765524
0.765473
0.765135
0.76298
0.749639
0.675722
0.398942
0.0535014
0.000602091
4.49205e-07
1.74164e-11
4.55974e-14
5.29027e-14
5.75531e-14
6.41422e-14
6.92705e-14
7.14403e-14
7.05875e-14
7.04592e-14
7.0029e-14
7.16284e-14
7.38333e-14
7.60189e-14
7.62201e-14
7.78799e-14
1.132
1.132
1.132
1.132
1.132
1.132
1.132
1.132
1.132
1.132
1.132
1.132
1.132
1.132
1.132
1.132
1.132
1.132
1.132
1.132
1.132
1.132
1.132
1.132
1.132
1.13188
1.1287
1.08672
1.0249
1.01931
1.01924
1.01921
1.01918
1.01915
1.01911
1.01907
1.01903
1.01897
1.01891
1.01888
1.01883
1.0188
1.01879
1.01882
1.01888
1.01893
1.01898
1.019
1.019
1.01897
1.01894
1.01896
1.01899
1.01903
1.01911
1.01919
1.01922
1.01923
1.01921
1.01918
1.01913
1.01908
1.01907
1.01906
1.01907
1.01909
1.01913
1.01915
1.01916
1.01915
1.01913
1.01909
1.01906
1.01904
1.01904
1.01905
1.01907
1.0191
1.0191
1.01909
1.01908
1.01906
1.01903
1.019
1.01899
1.019
1.01902
1.01904
1.01906
1.01908
1.0191
1.0191
1.0191
1.01909
1.01909
1.0191
1.0191
1.01911
1.01912
1.01913
1.01913
1.01913
1.01913
1.01912
1.01911
1.0191
1.01909
1.01907
1.01906
1.01906
1.01906
1.01906
1.01906
1.01907
1.01907
1.01908
1.01908
1.01908
1.01908
1.01908
1.01908
1.01909
1.0191
1.0191
1.0191
1.01909
1.01908
1.01908
1.01907
1.01906
1.01906
1.01907
1.01908
1.01908
1.01909
1.01909
1.01909
1.01909
1.01909
1.0191
1.01911
1.01911
1.01912
1.01912
1.01912
1.01911
1.01911
1.0191
1.01909
1.01909
1.01909
1.01908
1.01908
1.01907
1.01907
1.01906
1.01906
1.01906
1.01906
1.01907
1.01908
1.01909
1.0191
1.01908
1.01899
1.01894
1.019
1.01935
1.02023
1.02174
1.0237
1.02586
1.02803
1.02999
1.03169
1.03306
1.03404
1.03429
1.03422
1.03403
1.03378
1.03357
1.03343
1.03349
1.03361
1.03377
1.03378
1.03372
1.03365
1.03359
1.03345
1.0331
1.03238
1.03117
1.02964
1.02822
1.02712
1.02628
1.0256
1.02501
1.02447
1.02398
1.02353
1.02311
1.02274
1.02241
1.02214
1.02191
1.02173
1.02158
1.02146
1.02137
1.0213
1.02124
1.02119
1.02113
1.02108
1.02103
1.02099
1.02094
1.0209
1.02085
1.0208
1.02075
1.0207
1.02065
1.0206
1.02056
1.02052
1.0205
1.02049
1.02048
1.02047
1.02046
1.02046
1.02045
1.02044
1.02043
1.02042
1.02041
1.0204
1.02039
1.02038
1.02037
1.02035
1.02033
1.02032
1.0203
1.02028
1.02027
1.02026
1.02025
1.02024
1.02023
1.02023
1.02023
1.02023
1.02021
1.0202
1.02019
1.02018
1.02017
1.02016
1.02016
1.02015
1.02014
1.02012
1.02011
1.0201
1.02008
1.02007
1.02006
1.02005
1.02004
1.02002
1.02
1.01999
1.01997
1.01996
1.01995
1.01994
1.01993
1.0199
1.01989
1.01987
1.01986
1.01985
1.01985
1.01984
1.01984
1.01983
1.01982
1.01982
1.01982
1.01981
1.01981
1.01981
1.0198
1.0198
1.01979
1.01978
1.01977
1.01976
1.01976
1.01976
1.01976
1.01976
1.01975
1.01974
1.01973
1.01972
1.0197
1.0197
1.0197
1.01969
1.01969
1.01968
1.01967
1.01967
1.01966
1.01965
1.01965
1.01965
1.01964
1.01963
1.01962
1.01961
1.0196
1.0196
1.0196
1.01959
1.01959
1.01957
1.01956
1.01956
1.01956
1.01956
1.01956
1.01957
1.01959
1.0196
1.0196
1.0196
1.0196
1.0196
1.0196
1.01959
1.0196
1.0196
1.01958
1.01955
1.01952
1.01945
1.01934
1.01916
1.01889
1.0185
1.01791
1.01703
1.01579
1.01403
1.01154
1.00813
1.00345
0.99721
0.988995
0.978416
0.965116
0.948818
0.929445
0.907165
0.882511
0.856454
0.830455
0.806428
0.786958
0.774243
0.767388
0.765448
0.765433
0.765492
0.765615
0.765754
0.765867
0.765948
0.766011
0.766067
0.766112
0.766131
0.766162
0.76624
0.766353
0.76645
0.766475
0.766464
0.766422
0.766337
0.766207
0.766069
0.766008
0.766009
0.76603
0.766084
0.766164
0.76624
0.766282
0.766286
0.766274
0.766236
0.766174
0.766131
0.766125
0.766129
0.766149
0.766193
0.766244
0.766265
0.766266
0.766256
0.766226
0.76618
0.766141
0.766133
0.766136
0.76615
0.76618
0.76622
0.766249
0.766255
0.766251
0.766234
0.766201
0.766161
0.766131
0.766117
0.766114
0.766115
0.766124
0.766138
0.76615
0.766157
0.766164
0.766176
0.766196
0.766221
0.766253
0.766288
0.766325
0.766362
0.766389
0.766391
0.766375
0.766347
0.76631
0.76628
0.766265
0.766263
0.766279
0.766311
0.766355
0.766398
0.766411
0.76641
0.766406
0.766398
0.766387
0.766373
0.766358
0.766342
0.766326
0.76631
0.766292
0.766275
0.766258
0.766242
0.766224
0.766204
0.766186
0.766172
0.766164
0.766159
0.766156
0.766152
0.766147
0.766139
0.766129
0.766114
0.766096
0.766078
0.766062
0.766052
0.766049
0.766048
0.766048
0.766046
0.766042
0.766035
0.766023
0.766008
0.765991
0.765975
0.765961
0.765953
0.765948
0.765945
0.765942
0.765937
0.76593
0.76592
0.765907
0.765892
0.765877
0.765864
0.765855
0.765848
0.765843
0.765838
0.765831
0.765823
0.765812
0.765798
0.765781
0.765765
0.765749
0.765737
0.765728
0.765722
0.765716
0.765711
0.765704
0.765695
0.765685
0.765672
0.765657
0.765643
0.76563
0.765619
0.76561
0.765602
0.765593
0.765583
0.765572
0.765558
0.765543
0.765526
0.765509
0.765494
0.765481
0.76547
0.76546
0.765451
0.76544
0.765428
0.765414
0.765397
0.765379
0.765361
0.765342
0.765325
0.765309
0.765295
0.765281
0.765266
0.765251
0.765234
0.765215
0.765196
0.765176
0.765157
0.765139
0.765123
0.765108
0.765094
0.765079
0.765063
0.765046
0.765028
0.765008
0.764988
0.764968
0.764948
0.76493
0.764912
0.764896
0.764879
0.764862
0.764845
0.764827
0.764809
0.764791
0.764774
0.764757
0.764742
0.764727
0.764712
0.764697
0.76468
0.764662
0.764641
0.764619
0.764595
0.76457
0.764545
0.764521
0.764496
0.764472
0.764447
0.764421
0.764395
0.764372
0.764359
0.764355
0.764355
0.764355
0.764356
0.764358
0.764361
0.764366
0.764374
0.764384
0.764397
0.764413
0.764431
0.76445
0.764472
0.764494
0.764518
0.764544
0.764572
0.764602
0.764635
0.764672
0.764713
0.764758
0.764808
0.764864
0.764925
0.764991
0.765063
0.765141
0.765222
0.765307
0.76539
0.765463
0.76551
0.765527
0.765529
0.765529
0.765529
0.765529
0.765528
0.765528
0.765527
0.765525
0.765522
0.765519
0.765516
0.765513
0.765512
0.765512
0.765512
0.765512
0.765513
0.765514
0.765515
0.765517
0.76552
0.765525
0.765529
0.76553
0.765524
0.765473
0.765135
0.76298
0.749639
0.675722
0.398943
0.0535015
0.000602091
4.49206e-07
1.74148e-11
4.26798e-14
5.02556e-14
5.56261e-14
6.32657e-14
7.02733e-14
7.03921e-14
6.98154e-14
7.23003e-14
7.25393e-14
7.42498e-14
7.65539e-14
7.73198e-14
7.62679e-14
7.71747e-14
1.132
1.132
1.132
1.132
1.132
1.132
1.132
1.132
1.132
1.132
1.132
1.132
1.132
1.132
1.132
1.132
1.132