/*--------------------------------*- C++ -*----------------------------------*\
| =========                 |                                                 |
| \\      /  F ield         | OpenFOAM: The Open Source CFD Toolbox           |
|  \\    /   O peration     | Version:  2406                                  |
|   \\  /    A nd           | Website:  www.openfoam.com                      |
|    \\/     M anipulation  |                                                 |
\*---------------------------------------------------------------------------*/
FoamFile
{
    version     2.0;
    format      ascii;
    arch        "LSB;label=32;scalar=64";
    class       volVectorField;
    location    "0.05";
    object      U;
}
// * * * * * * * * * * * * * * * * * * * * * * * * * * * * * * * * * * * * * //

dimensions      [0 1 -1 0 0 0 0];

internalField   nonuniform List<vector> 
83682
(
(347.059 9.23701e-12 -2.12982e-11)
(347.059 1.05362e-11 -1.9052e-11)
(347.059 1.42133e-11 -1.94117e-11)
(347.059 1.6781e-11 -1.84672e-11)
(347.059 1.96663e-11 -2.107e-11)
(347.059 1.82084e-11 -1.75896e-11)
(347.059 1.41363e-11 -2.00857e-11)
(347.059 6.19152e-12 -1.89075e-11)
(347.059 1.02791e-12 -1.94542e-11)
(347.059 -1.72328e-12 -2.03865e-11)
(347.059 -4.79083e-12 -1.92628e-11)
(347.059 -5.28089e-12 -1.84007e-11)
(347.059 -2.83523e-12 -1.69865e-11)
(347.059 4.73542e-13 -1.74293e-11)
(347.059 3.44922e-12 -1.5586e-11)
(347.059 1.35771e-12 -1.54501e-11)
(347.059 2.69595e-13 -1.56859e-11)
(347.059 2.71295e-12 -1.83771e-11)
(347.059 9.62727e-12 -1.92772e-11)
(347.059 1.12927e-11 -1.91018e-11)
(347.059 1.13596e-11 -1.79904e-11)
(347.059 9.73269e-12 -1.71679e-11)
(347.059 1.44604e-11 -1.69396e-11)
(347.059 2.0744e-11 -1.70876e-11)
(347.058 -4.71286e-09 1.94788e-10)
(347.027 1.76702e-07 -8.15378e-09)
(346.232 -4.33667e-06 1.94688e-07)
(335.647 1.46771e-05 -6.45313e-07)
(319.822 5.71953e-05 -2.70504e-06)
(318.415 -2.98118e-05 1.35932e-06)
(318.391 -2.44878e-05 1.13493e-06)
(318.375 -2.20078e-05 1.03358e-06)
(318.352 -1.78722e-05 8.59599e-07)
(318.321 2.03814e-06 -5.6164e-08)
(318.293 8.91574e-06 -3.92569e-07)
(318.282 2.05249e-05 -9.4244e-07)
(318.28 2.23506e-05 -1.03965e-06)
(318.286 1.90005e-05 -9.02768e-07)
(318.298 1.67011e-06 -1.08412e-07)
(318.299 -1.03292e-05 4.61919e-07)
(318.284 -1.98882e-05 8.99692e-07)
(318.27 -2.52582e-05 1.14779e-06)
(318.259 -2.6335e-05 1.20158e-06)
(318.251 -2.04498e-05 9.46645e-07)
(318.246 -1.85265e-06 1.12916e-07)
(318.253 1.39244e-05 -5.94493e-07)
(318.268 2.11396e-05 -9.14539e-07)
(318.278 2.10484e-05 -9.17139e-07)
(318.288 1.88042e-05 -8.25591e-07)
(318.296 8.64947e-06 -3.80228e-07)
(318.307 -5.87332e-06 2.44975e-07)
(318.319 -7.99403e-06 3.35018e-07)
(318.326 -1.02546e-05 4.24277e-07)
(318.333 -7.88413e-06 3.1094e-07)
(318.339 -2.62928e-06 6.88337e-08)
(318.344 2.28179e-07 -3.08117e-08)
(318.338 1.15999e-07 -1.87578e-08)
(318.335 -2.74127e-07 -2.30835e-09)
(318.332 -1.00522e-06 4.65913e-08)
(318.329 -4.4053e-06 2.11387e-07)
(318.328 -9.7816e-06 4.58907e-07)
(318.331 -9.94088e-06 4.76683e-07)
(318.333 -5.13278e-06 2.58823e-07)
(318.332 -4.52946e-06 2.28586e-07)
(318.33 -3.3527e-06 1.68926e-07)
(318.329 1.08938e-06 -2.08811e-08)
(318.327 8.61038e-06 -3.67324e-07)
(318.323 1.0298e-05 -4.66915e-07)
(318.323 4.39948e-06 -2.23992e-07)
(318.321 1.99691e-06 -1.28538e-07)
(318.32 -2.67782e-06 8.57609e-08)
(318.319 -7.41692e-06 2.98354e-07)
(318.32 -5.42271e-06 1.80457e-07)
(318.323 -4.12137e-06 1.22474e-07)
(318.325 -2.26009e-06 3.76367e-08)
(318.326 6.84403e-07 -9.26174e-08)
(318.327 3.9065e-06 -2.37593e-07)
(318.329 6.12575e-06 -3.29514e-07)
(318.323 5.78629e-06 -3.14651e-07)
(318.319 4.21017e-06 -2.45787e-07)
(318.315 2.12897e-06 -1.60771e-07)
(318.31 8.28102e-07 -1.03351e-07)
(318.305 -2.14171e-06 2.84255e-08)
(318.3 -1.89092e-06 2.88984e-08)
(318.298 2.18163e-06 -1.44827e-07)
(318.301 4.39048e-06 -2.44998e-07)
(318.304 6.54061e-06 -3.50729e-07)
(318.307 7.44527e-06 -4.06621e-07)
(318.31 5.17467e-06 -3.27054e-07)
(318.315 1.77571e-06 -1.92314e-07)
(318.32 -1.92644e-06 -1.77003e-08)
(318.322 -3.85186e-06 7.45907e-08)
(318.323 -6.1929e-06 1.85047e-07)
(318.325 -8.61331e-06 3.0525e-07)
(318.327 -7.91634e-06 2.98641e-07)
(318.329 -6.37083e-06 2.38812e-07)
(318.331 -4.61608e-06 1.61505e-07)
(318.331 -9.15168e-07 -8.20037e-09)
(318.331 2.0612e-06 -1.51403e-07)
(318.332 1.64918e-06 -1.36039e-07)
(318.333 -1.05439e-06 -1.02597e-09)
(318.333 -2.64882e-06 7.98083e-08)
(318.333 -4.92957e-06 1.96321e-07)
(318.334 -8.41044e-06 3.67934e-07)
(318.334 -9.68708e-06 4.30978e-07)
(318.332 -8.56759e-06 3.76184e-07)
(318.326 -6.01482e-06 2.65727e-07)
(318.319 -3.1928e-06 1.38969e-07)
(318.314 -1.14655e-06 2.87609e-08)
(318.31 8.98385e-07 -5.91306e-08)
(318.306 3.32237e-06 -1.92119e-07)
(318.305 3.50718e-06 -1.99739e-07)
(318.308 3.80587e-06 -2.49438e-07)
(318.313 1.12861e-06 -9.44766e-08)
(318.318 -1.79566e-06 7.25377e-08)
(318.323 -2.93955e-06 1.5054e-07)
(318.326 -3.56466e-06 1.99271e-07)
(318.327 -4.1556e-06 2.31588e-07)
(318.326 -4.25631e-06 2.36654e-07)
(318.324 -4.77424e-06 2.7372e-07)
(318.322 -4.62173e-06 2.66308e-07)
(318.321 -9.54268e-07 -9.06284e-09)
(318.321 -6.76782e-07 -3.45025e-08)
(318.322 3.5259e-07 -1.04574e-07)
(318.322 1.97517e-06 -2.08268e-07)
(318.322 4.81879e-06 -3.83123e-07)
(318.322 8.90605e-06 -6.02338e-07)
(318.322 1.18563e-05 -7.31736e-07)
(318.32 1.32705e-05 -8.10018e-07)
(318.317 1.31471e-05 -8.54926e-07)
(318.315 1.25372e-05 -8.38221e-07)
(318.315 1.23633e-05 -7.96021e-07)
(318.315 8.31117e-06 -7.19029e-07)
(318.314 5.52464e-06 -6.77334e-07)
(318.315 3.81045e-06 -6.99434e-07)
(318.316 2.38647e-06 -6.84658e-07)
(318.318 1.37069e-06 -5.82908e-07)
(318.32 1.75629e-07 -4.49623e-07)
(318.324 -5.89994e-07 -3.43067e-07)
(318.327 -1.39887e-06 -2.07894e-07)
(318.33 -1.62137e-06 -5.59535e-08)
(318.332 -1.70578e-06 -3.00312e-08)
(318.334 -1.63095e-06 -1.10826e-07)
(318.333 -1.99538e-06 -1.68912e-07)
(318.331 -2.25321e-06 -2.03859e-07)
(318.329 -1.92525e-06 -3.63395e-07)
(318.327 -1.38848e-06 -4.90617e-07)
(318.325 3.26054e-07 -5.96461e-07)
(318.324 1.34658e-06 -5.52688e-07)
(318.324 2.35698e-06 -4.4926e-07)
(318.323 5.77247e-06 -4.54425e-07)
(318.322 3.02666e-06 -1.76125e-07)
(318.32 7.24214e-06 -2.40709e-07)
(318.317 5.21946e-06 -3.21966e-07)
(318.315 2.98332e-06 -3.122e-07)
(318.313 4.18345e-06 -4.23035e-07)
(318.312 1.71649e-06 -5.39261e-07)
(318.312 -1.85703e-06 -3.89809e-07)
(318.314 6.98964e-06 -1.38584e-06)
(318.317 -2.45871e-05 1.99343e-07)
(318.321 3.3531e-05 -2.06512e-06)
(318.326 -2.12078e-05 3.64146e-07)
(318.328 -1.52698e-05 -6.78078e-07)
(318.323 -7.20669e-05 3.34867e-06)
(318.3 0.000143743 -5.30549e-06)
(318.286 0.000122992 -4.88264e-06)
(318.302 0.000124913 -3.27276e-06)
(318.391 7.75179e-05 -1.25007e-05)
(318.62 -0.000578951 3.47749e-05)
(319.01 2.20498e-05 -2.31831e-05)
(319.518 -0.00186199 0.000103155)
(320.081 -0.000564817 1.47436e-05)
(320.642 -0.000163024 -1.39621e-05)
(321.152 0.00112408 2.29284e-05)
(321.596 0.002924 -8.10065e-05)
(321.937 0.00901927 -0.000369527)
(322.165 0.00446016 -0.000184818)
(322.23 -0.00318856 -0.00014518)
(322.216 -0.0102593 0.000246211)
(322.183 -0.0109713 0.000389444)
(322.137 -0.00828782 0.000374656)
(322.093 -0.00317558 0.000204135)
(322.062 0.00368791 7.11897e-05)
(322.069 0.0108414 -0.000233212)
(322.085 0.013272 -0.000462291)
(322.106 0.00983584 -0.00045219)
(322.098 0.00239453 -0.000210439)
(322.101 0.00233425 -0.000169427)
(322.095 0.00145363 -0.00015345)
(322.077 0.000519403 -0.000119802)
(322.038 0.000243448 -8.50367e-05)
(321.947 0.000676873 4.09928e-05)
(321.762 0.000896609 8.98193e-05)
(321.449 0.00135144 0.000101351)
(321.054 0.00143289 0.000159916)
(320.685 0.000703816 0.000161285)
(320.399 0.00123498 2.37157e-05)
(320.183 0.0017336 -1.58685e-05)
(320.005 0.00116733 3.24704e-05)
(319.851 0.000128749 6.93175e-05)
(319.712 -0.000337616 -1.62119e-05)
(319.585 -7.83471e-05 -0.000105347)
(319.469 0.000400354 -7.54586e-05)
(319.363 0.000654985 1.87241e-05)
(319.267 0.000697861 5.1632e-05)
(319.184 0.000766962 2.37175e-06)
(319.113 0.000903256 -5.87299e-05)
(319.055 0.00101386 -7.15749e-05)
(319.008 0.000900651 -2.98615e-05)
(318.969 0.00061064 1.3946e-05)
(318.937 0.000395891 2.75755e-05)
(318.913 0.000147892 1.21558e-05)
(318.894 0.000131862 -2.41493e-05)
(318.879 0.000266908 -3.99029e-05)
(318.864 0.000373054 -2.93795e-05)
(318.85 0.000422657 -1.62613e-05)
(318.836 0.000435004 -1.55604e-05)
(318.823 0.000429869 -2.82435e-05)
(318.811 0.000420258 -4.03322e-05)
(318.799 0.000407237 -4.2196e-05)
(318.787 0.000361171 -3.58173e-05)
(318.774 0.000277543 -2.12313e-05)
(318.763 0.000187917 -1.23542e-06)
(318.75 0.000140705 2.14581e-05)
(318.738 0.000142688 3.54418e-05)
(318.726 0.000168375 3.88566e-05)
(318.714 0.000205331 2.97171e-05)
(318.702 0.000238925 -4.32069e-07)
(318.693 0.000249827 -5.88073e-05)
(318.688 0.000225342 -0.000119588)
(318.685 0.000179299 -0.000162407)
(318.683 0.000134912 -0.000179331)
(318.681 9.66992e-05 -0.000182296)
(318.679 1.13568e-05 -0.000171174)
(318.678 -4.78283e-05 -0.000144392)
(318.676 -5.14806e-05 -0.000113697)
(318.673 -2.13183e-05 -8.332e-05)
(318.67 2.65918e-05 -5.76505e-05)
(318.667 7.82144e-05 -3.98477e-05)
(318.662 0.000112451 -2.60075e-05)
(318.658 0.000136034 -1.02778e-05)
(318.654 0.000140652 3.2837e-06)
(318.651 0.000143755 1.96438e-05)
(318.648 0.00014315 4.47323e-05)
(318.644 0.000153676 6.4152e-05)
(318.639 0.000174054 6.47209e-05)
(318.636 0.000145835 5.68597e-05)
(318.633 0.000122155 3.82165e-05)
(318.63 8.68362e-05 1.58117e-05)
(318.627 9.41665e-05 -3.07654e-06)
(318.625 -1.77775e-05 -4.27533e-06)
(318.623 -6.79207e-05 -2.57446e-06)
(318.621 -6.6814e-05 -9.68075e-06)
(318.619 -4.27202e-05 -2.23826e-05)
(318.618 -1.46642e-05 -3.69989e-05)
(318.618 3.64789e-05 -6.49007e-05)
(318.616 0.000102962 -9.6122e-05)
(318.613 0.000176991 -0.000129271)
(318.61 0.000197198 -0.000154913)
(318.607 0.000140986 -0.000167538)
(318.603 5.19972e-05 -0.000167382)
(318.6 -2.43385e-05 -0.00015773)
(318.597 -8.09131e-05 -0.000139731)
(318.595 -0.000101383 -0.000118251)
(318.594 -9.643e-05 -0.000107908)
(318.59 -6.66197e-05 -9.26697e-05)
(318.586 1.04385e-05 -8.10726e-05)
(318.583 8.52006e-05 -7.63314e-05)
(318.58 0.000108751 -7.75883e-05)
(318.576 8.58955e-05 -8.08454e-05)
(318.573 5.89348e-05 -8.07436e-05)
(318.571 8.77139e-06 -7.70728e-05)
(318.57 -6.12593e-05 -7.43064e-05)
(318.567 -9.79583e-05 -6.82546e-05)
(318.563 -8.81589e-05 -6.24646e-05)
(318.559 -7.15103e-05 -5.71555e-05)
(318.555 -3.41905e-05 -4.4333e-05)
(318.551 -1.22197e-05 -2.92854e-05)
(318.547 2.6672e-05 -1.89664e-05)
(318.544 5.45942e-05 -1.1746e-05)
(318.541 2.09671e-05 -5.11628e-06)
(318.537 -2.91229e-05 -7.54587e-06)
(318.531 -3.62392e-05 -1.2975e-05)
(318.526 -5.82473e-05 -1.7807e-05)
(318.522 -7.24273e-05 -2.50723e-05)
(318.519 -3.69928e-05 -3.44804e-05)
(318.517 -1.53999e-05 -3.93443e-05)
(318.515 -6.80898e-06 -4.17566e-05)
(318.513 2.56228e-05 -4.56558e-05)
(318.512 0.000111743 -4.93262e-05)
(318.51 0.000106894 -4.95033e-05)
(318.509 -1.78815e-05 -4.33976e-05)
(318.51 -4.92341e-05 -4.0928e-05)
(318.509 5.32679e-05 -4.24482e-05)
(318.509 4.86434e-05 -3.79311e-05)
(318.508 -2.28603e-05 -3.22817e-05)
(318.507 -1.93794e-05 -3.05387e-05)
(318.507 -1.11997e-05 -2.9343e-05)
(318.505 -1.8219e-05 -2.71059e-05)
(318.502 2.22281e-05 -2.65436e-05)
(318.5 8.18217e-05 -2.88913e-05)
(318.498 6.09542e-05 -2.66254e-05)
(318.496 4.20893e-05 -2.35275e-05)
(318.494 7.67878e-05 -2.03702e-05)
(318.493 9.16968e-07 -1.68442e-05)
(318.494 -6.21674e-05 -1.03643e-05)
(318.493 -7.29635e-06 -7.62331e-06)
(318.49 -4.74191e-06 -4.19581e-06)
(318.487 -3.30711e-05 -2.44364e-07)
(318.485 -1.17913e-05 1.05552e-06)
(318.482 9.28063e-06 3.07953e-06)
(318.479 -2.12808e-06 8.80508e-06)
(318.477 -5.84477e-05 1.56054e-05)
(318.477 -8.11676e-05 2.04805e-05)
(318.477 -4.00434e-05 1.96028e-05)
(318.476 3.937e-05 1.68789e-05)
(318.473 6.63119e-05 1.36234e-05)
(318.473 -2.41176e-06 1.39496e-05)
(318.471 -4.12877e-05 1.45537e-05)
(318.469 -2.99327e-05 1.44861e-05)
(318.467 -6.70145e-06 1.5266e-05)
(318.467 -1.54242e-06 1.81816e-05)
(318.467 -5.34338e-05 2.5889e-05)
(318.465 -0.000233133 5.0863e-05)
(318.461 -0.000164512 6.89541e-05)
(318.457 3.87793e-05 8.0566e-05)
(318.454 4.40812e-05 0.00010084)
(318.452 0.000124432 0.000114658)
(318.451 0.000150879 0.000127749)
(318.449 9.46106e-05 0.000138675)
(318.449 0.000100453 0.000146462)
(318.448 9.6811e-05 0.000146575)
(318.446 2.59619e-05 0.000149273)
(318.443 -0.000164387 0.000155435)
(318.443 -0.00021248 0.000155023)
(318.442 -6.77702e-05 0.000145363)
(318.442 0.000100827 0.000113669)
(318.442 0.000193754 9.31806e-05)
(318.446 0.000234277 8.95298e-05)
(318.451 0.000265979 8.98731e-05)
(318.455 0.000131613 9.13265e-05)
(318.458 -3.17942e-06 9.91028e-05)
(318.458 -0.000185618 0.000107146)
(318.457 -0.000552431 0.000109353)
(318.455 -0.00114569 0.000127057)
(318.455 -0.00183714 0.000170991)
(318.455 -0.00243393 0.000262164)
(318.457 -0.00289207 0.000305535)
(318.458 -0.00320244 0.000215951)
(318.457 -0.00283175 1.21215e-05)
(318.455 -0.00200259 -0.000261974)
(318.455 -0.00100379 -0.000360474)
(318.452 0.000489304 8.09323e-05)
(318.452 0.00178293 0.000732914)
(318.451 0.00126658 0.000755387)
(318.453 -0.00229403 -0.000193997)
(318.456 -0.00732451 -0.00139529)
(318.459 -0.018041 -0.00258047)
(318.462 -0.0328384 -0.00145982)
(318.47 -0.0545717 0.00180948)
(318.485 -0.077526 0.00795772)
(318.5 -0.102762 0.0135144)
(318.524 -0.132375 0.0146188)
(318.55 -0.153051 0.00998575)
(318.581 -0.157953 -0.00107402)
(318.61 -0.156114 -0.0170575)
(318.64 -0.136398 -0.0320757)
(318.665 -0.0876683 -0.0397366)
(318.685 -0.0125104 -0.0374964)
(318.69 0.072763 -0.0262634)
(318.68 0.172949 -0.0103687)
(318.647 0.275249 0.00569244)
(318.598 0.359019 0.0176988)
(318.536 0.375517 0.022605)
(318.401 0.334752 0.0184104)
(318.313 0.265941 0.00642203)
(318.396 0.161316 0.000455615)
(318.032 0.0814433 0.000600394)
(317.929 0.0502965 0.00114536)
(318.039 0.0470619 0.00109566)
(318.087 0.0422098 0.00117536)
(318.146 0.0371793 0.00191559)
(318.197 0.0335288 0.00304967)
(318.212 0.0304842 0.00411969)
(318.186 0.0254396 0.00516448)
(318.134 0.0192824 0.00507817)
(318.074 0.0138116 0.00423584)
(318.021 0.00908508 0.00346547)
(317.982 0.00561102 0.00295872)
(317.978 0.00389449 0.00270979)
(318.01 0.00246052 0.00247931)
(318.066 0.00130218 0.00225753)
(318.124 0.000539933 0.002078)
(318.15 0.000166407 0.0019453)
(318.162 4.9163e-06 0.00184239)
(318.161 -0.000162332 0.00168501)
(318.14 -0.000262799 0.00153312)
(318.094 -0.00033035 0.00140114)
(318.038 -0.000412143 0.00127859)
(318.015 -0.000503699 0.00116821)
(318.018 -0.000544941 0.00110652)
(318.029 -0.00057149 0.00100411)
(318.053 -0.000586034 0.000887754)
(318.088 -0.000585601 0.000773016)
(318.12 -0.000561767 0.00066245)
(318.135 -0.000518533 0.00055691)
(318.13 -0.000491088 0.000495016)
(318.118 -0.000463817 0.000410716)
(318.095 -0.000448955 0.000305691)
(318.062 -0.00044229 0.000216761)
(318.041 -0.000425279 0.000144584)
(318.038 -0.000385044 8.63563e-05)
(318.042 -0.00033502 3.18939e-05)
(318.055 -0.000257655 -2.74391e-05)
(318.081 -0.000141577 -7.83484e-05)
(318.109 -2.81573e-07 -0.000133378)
(318.123 0.000106307 -0.000188188)
(318.127 0.00014497 -0.000220285)
(318.124 0.000163857 -0.000264639)
(318.112 0.00012177 -0.000309741)
(318.09 2.60428e-06 -0.000343309)
(318.071 -0.000188705 -0.000364793)
(318.066 -0.000354324 -0.000375145)
(318.066 -0.000481465 -0.00037777)
(318.07 -0.000632519 -0.000372098)
(318.082 -0.000706727 -0.000366466)
(318.099 -0.000605581 -0.000379533)
(318.111 -0.000246527 -0.000424134)
(318.112 0.00016984 -0.000475386)
(318.108 0.000693213 -0.000542968)
(318.1 0.00161533 -0.000660678)
(318.085 0.00275267 -0.000798066)
(318.068 0.00391222 -0.000926768)
(318.056 0.00477694 -0.00101475)
(318.053 0.00517582 -0.00103339)
(318.054 0.00518356 -0.00100673)
(318.059 0.00472214 -0.000905069)
(318.066 0.00311089 -0.000681212)
(318.075 -0.000513975 -0.000306424)
(318.08 -0.00617231 0.000116513)
(318.082 -0.0132234 0.000467099)
(318.082 -0.0214511 0.000707718)
(318.078 -0.0286178 0.000721837)
(318.075 -0.0329245 0.000452242)
(318.077 -0.0338562 0.000157857)
(318.081 -0.0331439 -0.000207493)
(318.087 -0.0294017 -0.000741066)
(318.096 -0.0218027 -0.00111759)
(318.106 -0.0106322 -0.000932162)
(318.114 0.00281094 -0.000110307)
(318.115 0.0161455 0.00117531)
(318.108 0.0261664 0.00257105)
(318.093 0.0334196 0.00387353)
(318.077 0.0393144 0.0047615)
(318.06 0.0409708 0.00503051)
(318.044 0.0410679 0.00555743)
(318.03 0.0391072 0.00649711)
(318.019 0.0332242 0.0078775)
(318.012 0.0221236 0.00898875)
(318.012 0.0106678 0.00859774)
(318.018 0.00226338 0.0081829)
(318.016 -0.00120215 0.00810156)
(318.012 -0.00295113 0.00838933)
(318.009 -0.00602002 0.00949909)
(318.004 -0.00824573 0.0106986)
(317.999 -0.00946152 0.0116808)
(317.994 -0.0099874 0.0126402)
(317.992 -0.00977855 0.0133748)
(317.994 -0.00879663 0.0133948)
(317.997 -0.00701863 0.0127197)
(318.002 -0.00485558 0.0109314)
(318.007 -0.00248272 0.00865028)
(318.01 -0.000359675 0.00638059)
(318.01 0.00102036 0.00442807)
(318.008 0.00155251 0.00310525)
(318.003 0.00175465 0.00252515)
(317.997 0.00173303 0.0021748)
(317.99 0.00160997 0.00204916)
(317.985 0.00137433 0.00198806)
(317.984 0.00114558 0.00187591)
(317.985 0.0010154 0.00178112)
(317.986 0.00093287 0.0017224)
(317.988 0.000816414 0.00168278)
(317.988 0.000644419 0.00162476)
(317.987 0.000456864 0.00149529)
(317.985 0.00027883 0.00131689)
(317.979 0.00012373 0.00114218)
(317.972 -2.62123e-05 0.000979763)
(317.964 -0.000160235 0.000843902)
(317.957 -0.000271458 0.000743111)
(317.953 -0.000359572 0.000688522)
(317.951 -0.000407094 0.000665165)
(317.952 -0.000415526 0.000650881)
(317.952 -0.000404992 0.000624776)
(317.952 -0.000369157 0.000570677)
(317.951 -0.000300095 0.000493258)
(317.949 -0.000206592 0.000440383)
(317.945 -0.00010719 0.000417571)
(317.939 -2.80622e-05 0.000379248)
(317.932 1.81103e-05 0.000325418)
(317.925 2.44548e-05 0.000266533)
(317.92 9.69768e-07 0.000212129)
(317.917 -4.14513e-05 0.000171233)
(317.916 -8.06052e-05 0.000142609)
(317.915 -0.000104515 0.000121684)
(317.914 -0.000109125 0.000105801)
(317.912 -9.60423e-05 9.20953e-05)
(317.909 -7.10709e-05 8.03647e-05)
(317.904 -4.57778e-05 6.97975e-05)
(317.898 -2.97633e-05 6.30489e-05)
(317.891 -2.56718e-05 6.08838e-05)
(317.883 -3.4446e-05 6.23645e-05)
(317.876 -4.54288e-05 6.07554e-05)
(317.872 -5.67094e-05 6.32349e-05)
(317.868 -6.75855e-05 6.4458e-05)
(317.866 -7.20567e-05 6.3011e-05)
(317.864 -6.73687e-05 5.73615e-05)
(317.862 -4.95695e-05 4.77583e-05)
(317.859 -2.43379e-05 4.24223e-05)
(317.854 2.52037e-06 4.684e-05)
(317.848 3.00067e-05 5.15927e-05)
(317.841 5.29134e-05 5.46807e-05)
(317.834 6.21035e-05 5.40898e-05)
(317.827 5.63582e-05 5.2138e-05)
(317.822 3.73444e-05 4.87323e-05)
(317.818 1.09355e-05 4.18591e-05)
(317.816 -1.52e-05 3.45552e-05)
(317.813 -3.61932e-05 2.83992e-05)
(317.811 -4.85641e-05 2.42329e-05)
(317.807 -4.73887e-05 2.13391e-05)
(317.803 -3.35627e-05 2.16644e-05)
(317.797 -1.34635e-05 2.41241e-05)
(317.791 8.62381e-06 2.48523e-05)
(317.783 2.57925e-05 2.29242e-05)
(317.776 3.11594e-05 2.11389e-05)
(317.77 2.24985e-05 2.09357e-05)
(317.765 2.87349e-06 2.059e-05)
(317.761 -2.11459e-05 1.92925e-05)
(317.757 -4.35574e-05 1.68179e-05)
(317.753 -6.00543e-05 1.33524e-05)
(317.749 -6.75203e-05 9.4458e-06)
(317.744 -6.49378e-05 6.92363e-06)
(317.737 -5.39925e-05 6.01478e-06)
(317.73 -3.91778e-05 5.86629e-06)
(317.722 -2.48176e-05 5.09739e-06)
(317.714 -1.31392e-05 3.07203e-06)
(317.707 -7.69327e-06 9.65797e-07)
(317.7 -9.95647e-06 2.92879e-07)
(317.695 -2.07264e-05 -5.83577e-07)
(317.689 -3.70541e-05 1.76337e-07)
(317.684 -5.38499e-05 1.65472e-06)
(317.679 -6.58943e-05 2.79133e-06)
(317.673 -6.99285e-05 3.49568e-06)
(317.665 -6.56632e-05 3.34129e-06)
(317.657 -5.58949e-05 3.26094e-06)
(317.648 -4.24128e-05 4.33508e-06)
(317.639 -2.75365e-05 6.28077e-06)
(317.629 -1.4739e-05 7.44192e-06)
(317.621 -7.00957e-06 7.48383e-06)
(317.613 -5.91295e-06 7.32848e-06)
(317.606 -1.14082e-05 7.29647e-06)
(317.599 -2.14159e-05 7.42339e-06)
(317.592 -3.10836e-05 7.58875e-06)
(317.584 -3.69266e-05 7.5804e-06)
(317.576 -3.82272e-05 6.99134e-06)
(317.567 -3.57812e-05 5.21247e-06)
(317.558 -2.99106e-05 2.47792e-06)
(317.548 -2.17664e-05 -3.29202e-07)
(317.539 -1.30322e-05 -2.72043e-06)
(317.53 -5.07967e-06 -4.80194e-06)
(317.522 3.47485e-07 -6.46461e-06)
(317.514 1.87779e-06 -7.32651e-06)
(317.507 4.02477e-07 -7.0128e-06)
(317.499 -3.33508e-06 -5.85818e-06)
(317.492 -7.45689e-06 -4.93661e-06)
(317.483 -1.02225e-05 -5.12298e-06)
(317.474 -1.03768e-05 -6.95396e-06)
(317.464 -8.9686e-06 -1.0769e-05)
(317.454 -6.67616e-06 -1.63012e-05)
(317.444 -4.18739e-06 -2.2067e-05)
(317.435 -2.1504e-06 -2.69209e-05)
(317.426 -6.33771e-07 -3.06298e-05)
(317.418 9.18143e-07 -3.30558e-05)
(317.409 2.48193e-06 -3.46685e-05)
(317.401 3.59802e-06 -3.60431e-05)
(317.393 3.23976e-06 -3.8065e-05)
(317.385 3.07308e-06 -4.03215e-05)
(317.376 2.70751e-06 -4.36183e-05)
(317.367 3.60279e-06 -4.73163e-05)
(317.358 4.87308e-06 -5.11632e-05)
(317.35 5.39976e-06 -5.53702e-05)
(317.341 5.72629e-06 -5.90936e-05)
(317.334 5.55215e-06 -6.21784e-05)
(317.327 4.6569e-06 -6.50332e-05)
(317.319 4.14757e-06 -6.69386e-05)
(317.312 2.9358e-06 -6.84829e-05)
(317.304 1.1901e-06 -7.02084e-05)
(317.295 4.67042e-07 -7.1175e-05)
(317.285 3.00771e-07 -7.24923e-05)
(317.274 1.96446e-07 -7.23491e-05)
(317.262 -5.72368e-07 -7.48097e-05)
(317.25 7.70166e-07 -7.56228e-05)
(317.238 1.03149e-06 -7.61314e-05)
(317.226 4.11541e-06 -7.60444e-05)
(317.214 6.15005e-06 -7.31202e-05)
(317.202 6.82035e-06 -7.12139e-05)
(317.19 6.77742e-06 -7.33109e-05)
(317.177 6.9506e-06 -7.82173e-05)
(317.165 6.1299e-06 -8.34832e-05)
(317.154 2.7172e-06 -8.77275e-05)
(317.147 -2.01374e-06 -8.97456e-05)
(317.145 -5.51779e-06 -8.92383e-05)
(317.145 -8.03881e-06 -8.85366e-05)
(317.145 -1.04748e-05 -8.76458e-05)
(317.145 -1.27422e-05 -8.70801e-05)
(317.146 -1.36212e-05 -8.78462e-05)
(317.148 -1.3483e-05 -9.02877e-05)
(317.15 -1.29488e-05 -9.35703e-05)
(317.154 -1.26074e-05 -9.64444e-05)
(317.159 -1.2866e-05 -9.78193e-05)
(317.166 -1.32032e-05 -9.74994e-05)
(317.173 -1.32171e-05 -9.63513e-05)
(317.182 -1.21869e-05 -9.53065e-05)
(317.192 -1.00048e-05 -9.46844e-05)
(317.202 -7.6926e-06 -9.4488e-05)
(317.213 -7.0836e-06 -9.45254e-05)
(317.225 -8.58449e-06 -9.63959e-05)
(317.238 -9.99788e-06 -9.93508e-05)
(317.251 -1.07026e-05 -0.000101542)
(317.266 -1.09426e-05 -0.000102374)
(317.282 -1.09593e-05 -0.000102769)
(317.3 -1.09888e-05 -0.000102834)
(317.32 -1.11116e-05 -0.000102656)
(317.343 -1.12524e-05 -0.000102357)
(317.367 -1.12731e-05 -0.000102138)
(317.394 -1.10562e-05 -0.000102237)
(317.424 -1.07121e-05 -0.000102442)
(317.457 -1.05642e-05 -0.000102511)
(317.492 -1.06354e-05 -0.000102414)
(317.53 -1.08226e-05 -0.000102385)
(317.57 -1.1034e-05 -0.000102069)
(317.611 -1.08961e-05 -0.000101018)
(317.652 -1.02731e-05 -9.96123e-05)
(317.688 -9.54077e-06 -9.80524e-05)
(317.711 -9.3495e-06 -9.78774e-05)
(317.719 -9.44613e-06 -9.83639e-05)
(317.72 -9.44591e-06 -9.89861e-05)
(317.72 -9.33325e-06 -9.96242e-05)
(317.72 -9.15873e-06 -0.000100199)
(317.72 -8.7524e-06 -0.000101141)
(317.72 -8.11055e-06 -0.000102198)
(317.72 -7.29268e-06 -0.000103146)
(317.719 -6.4056e-06 -0.000103794)
(317.718 -5.61226e-06 -0.00010409)
(317.717 -5.16232e-06 -0.000104103)
(317.715 -5.32747e-06 -0.000103918)
(317.714 -6.23832e-06 -0.000103728)
(317.712 -7.50496e-06 -0.000103693)
(317.712 -7.90784e-06 -0.000104283)
(317.712 -7.37984e-06 -0.000105435)
(317.712 -6.39771e-06 -0.000107235)
(317.712 -4.25907e-06 -0.000110516)
(317.712 -2.36155e-06 -0.000112859)
(317.712 -5.15025e-07 -0.000114647)
(317.713 1.82676e-06 -0.000116837)
(317.714 4.94599e-06 -0.000119719)
(317.715 9.12527e-06 -0.000123451)
(317.717 1.5232e-05 -0.000128974)
(317.719 2.4974e-05 -0.00013987)
(317.719 3.20726e-05 -0.000150321)
(317.716 4.43118e-05 -0.000171333)
(317.691 6.08803e-05 -0.000200607)
(317.525 7.71545e-05 -0.000224355)
(316.469 9.45627e-05 -0.000255679)
(309.942 0.000114532 -0.000308704)
(274.381 0.00011944 -0.000334062)
(151.603 6.93236e-05 -0.000196351)
(18.6362 7.61213e-06 -2.09933e-05)
(0.206944 6.87711e-08 -1.75693e-07)
(0.000154374 4.19201e-11 -9.39686e-11)
(5.98586e-09 -1.51382e-12 1.98249e-12)
(-1.66067e-11 -2.30975e-12 2.17879e-12)
(-1.82669e-11 -4.15621e-12 5.13726e-12)
(-1.85948e-11 -3.72876e-12 1.15259e-11)
(-1.95139e-11 -3.86691e-12 1.62825e-11)
(-2.05817e-11 -2.57891e-12 1.49975e-11)
(-2.16524e-11 -1.76487e-12 1.04726e-11)
(-2.15157e-11 -1.67486e-12 8.0228e-12)
(-2.22671e-11 -1.21388e-12 6.79521e-12)
(-2.1858e-11 -1.24182e-12 8.06359e-12)
(-2.18593e-11 -2.00786e-12 8.85681e-12)
(-2.29576e-11 -2.87518e-12 9.13859e-12)
(-2.4571e-11 -3.39594e-12 9.37809e-12)
(-2.3992e-11 -5.79766e-12 9.57647e-12)
(-2.20201e-11 -6.85039e-12 1.31913e-11)
(347.059 1.95865e-12 -1.08821e-11)
(347.059 2.89611e-12 -1.46432e-11)
(347.059 7.58207e-12 -1.4444e-11)
(347.059 1.01033e-11 -1.65879e-11)
(347.059 1.47506e-11 -1.32175e-11)
(347.059 1.8435e-11 -1.5206e-11)
(347.059 1.5136e-11 -1.78017e-11)
(347.059 5.96044e-12 -1.64624e-11)
(347.059 -4.21777e-12 -1.64858e-11)
(347.059 -6.57461e-12 -1.8251e-11)
(347.059 -6.02187e-12 -1.76412e-11)
(347.059 -4.38955e-12 -1.71878e-11)
(347.059 -5.84816e-13 -1.68785e-11)
(347.059 4.58365e-12 -1.86261e-11)
(347.059 5.01799e-12 -1.86468e-11)
(347.059 2.56385e-12 -1.86686e-11)
(347.059 1.29579e-12 -1.91594e-11)
(347.059 4.3517e-12 -2.21174e-11)
(347.059 9.71133e-12 -2.18804e-11)
(347.059 1.17512e-11 -2.11177e-11)
(347.059 1.18145e-11 -2.03165e-11)
(347.059 9.84407e-12 -1.9552e-11)
(347.059 1.40609e-11 -1.90785e-11)
(347.059 2.21728e-11 -1.91039e-11)
(347.058 -4.54343e-09 1.81481e-10)
(347.027 1.6809e-07 -7.64539e-09)
(346.232 -4.09606e-06 1.81945e-07)
(335.647 1.38278e-05 -6.07383e-07)
(319.822 5.36649e-05 -2.49081e-06)
(318.415 -2.79576e-05 1.25881e-06)
(318.391 -2.30567e-05 1.05023e-06)
(318.375 -2.07181e-05 9.54099e-07)
(318.352 -1.68162e-05 7.90453e-07)
(318.321 1.66255e-06 -4.37713e-08)
(318.293 8.09902e-06 -3.5211e-07)
(318.282 1.94753e-05 -8.78765e-07)
(318.28 2.12576e-05 -9.71298e-07)
(318.286 1.8153e-05 -8.46042e-07)
(318.298 2.48803e-06 -1.36147e-07)
(318.299 -8.80267e-06 3.91277e-07)
(318.284 -1.86422e-05 8.32307e-07)
(318.27 -2.45658e-05 1.09503e-06)
(318.259 -2.5606e-05 1.14514e-06)
(318.251 -2.00816e-05 9.07877e-07)
(318.246 -3.19053e-06 1.62909e-07)
(318.253 1.2108e-05 -5.11402e-07)
(318.268 2.00901e-05 -8.54468e-07)
(318.278 2.03376e-05 -8.68335e-07)
(318.288 1.81403e-05 -7.77328e-07)
(318.296 8.91615e-06 -3.78866e-07)
(318.307 -4.53494e-06 1.90791e-07)
(318.319 -6.6943e-06 2.79894e-07)
(318.326 -9.37134e-06 3.85063e-07)
(318.333 -7.06721e-06 2.74758e-07)
(318.339 -2.21466e-06 5.48866e-08)
(318.344 -1.34172e-07 -6.54671e-09)
(318.338 -3.40059e-07 4.37193e-09)
(318.335 -6.07573e-07 1.49041e-08)
(318.332 -1.12824e-06 5.57308e-08)
(318.329 -4.47585e-06 2.20459e-07)
(318.328 -9.6855e-06 4.63596e-07)
(318.331 -9.21905e-06 4.50625e-07)
(318.333 -4.48887e-06 2.24584e-07)
(318.332 -4.03016e-06 1.98057e-07)
(318.33 -3.01126e-06 1.45992e-07)
(318.329 1.46109e-06 -4.40303e-08)
(318.327 8.75112e-06 -3.77441e-07)
(318.323 1.00324e-05 -4.63977e-07)
(318.323 3.89984e-06 -2.14875e-07)
(318.321 1.56717e-06 -1.21374e-07)
(318.32 -2.9471e-06 8.8008e-08)
(318.319 -7.74521e-06 3.03146e-07)
(318.32 -5.56896e-06 1.86423e-07)
(318.323 -4.16511e-06 1.25802e-07)
(318.325 -2.12062e-06 3.43205e-08)
(318.326 1.02553e-06 -1.02862e-07)
(318.327 4.42033e-06 -2.54131e-07)
(318.329 6.58632e-06 -3.45648e-07)
(318.323 6.1498e-06 -3.27134e-07)
(318.319 4.53186e-06 -2.56427e-07)
(318.315 2.27713e-06 -1.62094e-07)
(318.31 8.6406e-07 -9.75887e-08)
(318.305 -2.32917e-06 4.09887e-08)
(318.3 -2.36818e-06 5.2824e-08)
(318.298 1.41745e-06 -1.03334e-07)
(318.301 3.63604e-06 -2.00105e-07)
(318.304 5.82365e-06 -3.02077e-07)
(318.307 6.69165e-06 -3.54215e-07)
(318.31 4.50172e-06 -2.81332e-07)
(318.315 1.47057e-06 -1.6874e-07)
(318.32 -1.79971e-06 -1.59646e-08)
(318.322 -3.6119e-06 6.99301e-08)
(318.323 -5.89808e-06 1.72603e-07)
(318.325 -8.15234e-06 2.75213e-07)
(318.327 -7.51105e-06 2.67697e-07)
(318.329 -6.0629e-06 2.12474e-07)
(318.331 -4.29446e-06 1.3535e-07)
(318.331 -5.3956e-07 -3.13506e-08)
(318.331 2.37362e-06 -1.65864e-07)
(318.332 1.97435e-06 -1.53675e-07)
(318.333 -4.45183e-07 -3.26368e-08)
(318.333 -1.90893e-06 4.24697e-08)
(318.333 -4.11621e-06 1.54268e-07)
(318.334 -7.654e-06 3.28525e-07)
(318.334 -9.00736e-06 3.94945e-07)
(318.332 -8.03509e-06 3.46315e-07)
(318.326 -5.81221e-06 2.52978e-07)
(318.319 -3.30282e-06 1.38779e-07)
(318.314 -1.36879e-06 2.94684e-08)
(318.31 7.07223e-07 -5.51826e-08)
(318.306 3.24802e-06 -1.8441e-07)
(318.305 3.60964e-06 -1.97079e-07)
(318.308 4.09841e-06 -2.56645e-07)
(318.313 1.79368e-06 -1.286e-07)
(318.318 -7.86249e-07 2.27715e-08)
(318.323 -1.75066e-06 9.46619e-08)
(318.326 -2.40322e-06 1.40999e-07)
(318.327 -3.06951e-06 1.69345e-07)
(318.326 -3.25845e-06 1.73947e-07)
(318.324 -3.88038e-06 2.07945e-07)
(318.322 -3.77417e-06 1.95009e-07)
(318.321 -5.73764e-07 -4.40275e-08)
(318.321 -3.65983e-07 -6.36163e-08)
(318.322 4.90893e-07 -1.22215e-07)
(318.322 1.9716e-06 -2.13849e-07)
(318.322 4.58366e-06 -3.67273e-07)
(318.322 8.57758e-06 -5.59791e-07)
(318.322 1.14123e-05 -6.70319e-07)
(318.32 1.27401e-05 -7.40999e-07)
(318.317 1.26482e-05 -7.89913e-07)
(318.315 1.21418e-05 -7.78424e-07)
(318.315 1.20075e-05 -7.38313e-07)
(318.315 8.13565e-06 -6.51216e-07)
(318.314 5.51239e-06 -6.12488e-07)
(318.315 3.96323e-06 -6.38408e-07)
(318.316 2.69074e-06 -6.35927e-07)
(318.318 1.71047e-06 -5.50013e-07)
(318.32 4.76831e-07 -4.23774e-07)
(318.324 -3.54832e-07 -3.38728e-07)
(318.327 -1.14218e-06 -2.08066e-07)
(318.33 -1.38249e-06 -6.86473e-08)
(318.332 -1.42724e-06 -5.03359e-08)
(318.334 -1.19924e-06 -1.39992e-07)
(318.333 -1.44307e-06 -2.05335e-07)
(318.331 -1.6165e-06 -2.4195e-07)
(318.329 -1.15843e-06 -4.03051e-07)
(318.327 -4.3444e-07 -5.20416e-07)
(318.325 1.30872e-06 -5.99792e-07)