/*--------------------------------*- C++ -*----------------------------------*\
| =========                 |                                                 |
| \\      /  F ield         | OpenFOAM: The Open Source CFD Toolbox           |
|  \\    /   O peration     | Version:  2406                                  |
|   \\  /    A nd           | Website:  www.openfoam.com                      |
|    \\/     M anipulation  |                                                 |
\*---------------------------------------------------------------------------*/
FoamFile
{
    version     2.0;
    format      ascii;
    arch        "LSB;label=32;scalar=64";
    class       volVectorField;
    location    "0.085";
    object      U;
}
// * * * * * * * * * * * * * * * * * * * * * * * * * * * * * * * * * * * * * //

dimensions      [0 1 -1 0 0 0 0];

internalField   nonuniform List<vector> 
13962
(
(347.059 -5.18576e-11 -3.28986e-11)
(347.059 -5.29904e-11 -2.68143e-11)
(347.059 -5.14639e-11 -2.38347e-11)
(347.059 -4.85773e-11 -2.5465e-11)
(347.059 -4.90824e-11 -2.419e-11)
(347.059 -4.39815e-11 -2.64769e-11)
(347.059 -4.25367e-11 -2.71219e-11)
(347.059 -4.29125e-11 -2.69985e-11)
(347.059 -4.59007e-11 -2.74217e-11)
(347.059 -4.11662e-11 -2.83365e-11)
(347.059 -3.42456e-11 -2.91101e-11)
(347.059 -3.37913e-11 -2.84251e-11)
(347.059 -4.01352e-11 -2.7442e-11)
(347.059 -4.36392e-11 -2.90939e-11)
(347.059 -4.68581e-11 -2.871e-11)
(347.059 -4.53382e-11 -3.07613e-11)
(347.059 -4.01477e-11 -3.16543e-11)
(347.059 -3.16464e-11 -3.00618e-11)
(347.059 -2.24072e-11 -3.41574e-11)
(347.059 -1.29643e-11 -3.26392e-11)
(347.059 -6.25036e-12 -3.10054e-11)
(347.059 -1.70234e-12 -3.13786e-11)
(347.059 -4.68532e-13 -2.9003e-11)
(347.059 -2.25926e-12 -2.72106e-11)
(347.059 -3.19751e-12 -2.79194e-11)
(347.059 -4.20093e-12 -2.84225e-11)
(347.059 -4.9049e-12 -2.90304e-11)
(347.059 -7.93755e-12 -2.73599e-11)
(347.059 -6.91786e-12 -2.58117e-11)
(347.059 -4.67119e-12 -2.54474e-11)
(347.059 -2.31641e-12 -2.50707e-11)
(347.059 6.4293e-13 -2.51121e-11)
(347.059 1.09962e-12 -2.37172e-11)
(347.059 1.72052e-12 -2.5899e-11)
(347.059 -4.20507e-13 -2.56342e-11)
(347.059 -5.8369e-12 -2.30587e-11)
(347.059 -1.05014e-11 -2.23747e-11)
(347.059 -8.93121e-12 -2.23768e-11)
(347.059 -6.56441e-12 -2.28477e-11)
(347.059 -5.16822e-12 -2.35588e-11)
(347.059 -6.09674e-12 -2.39901e-11)
(347.059 -5.76692e-12 -2.45161e-11)
(347.059 4.10774e-10 -4.00587e-11)
(347.055 -3.27597e-08 1.35066e-09)
(346.944 1.41543e-06 -6.10971e-08)
(344.324 -3.79454e-05 1.64522e-06)
(327.419 0.00015997 -7.15463e-06)
(318.425 -1.78411e-05 7.72681e-07)
(318.275 -3.36696e-05 1.49718e-06)
(318.275 -4.72626e-05 2.10434e-06)
(318.275 -3.3948e-05 1.51247e-06)
(318.28 -2.77271e-05 1.23662e-06)
(318.284 -2.15209e-05 9.65088e-07)
(318.285 -1.86275e-06 1.1489e-07)
(318.283 2.67336e-05 -1.15068e-06)
(318.291 3.82282e-05 -1.66618e-06)
(318.306 3.50855e-05 -1.52553e-06)
(318.315 3.03768e-05 -1.31826e-06)
(318.327 1.49329e-05 -6.48169e-07)
(318.338 -8.17221e-06 3.70295e-07)
(318.343 -2.29498e-05 1.02746e-06)
(318.336 -3.06527e-05 1.3554e-06)
(318.329 -3.0225e-05 1.31017e-06)
(318.326 -2.66516e-05 1.14118e-06)
(318.323 -1.58235e-05 6.61503e-07)
(318.319 3.14836e-06 -1.69897e-07)
(318.317 1.49325e-05 -6.93275e-07)
(318.322 1.78101e-05 -7.95354e-07)
(318.328 1.4789e-05 -6.2635e-07)
(318.332 1.17023e-05 -4.85895e-07)
(318.336 1.19489e-06 -2.92569e-08)
(318.342 -1.31728e-05 5.90514e-07)
(318.346 -1.42099e-05 6.37057e-07)
(318.343 -9.26446e-06 4.25481e-07)
(318.339 -6.23453e-06 2.97225e-07)
(318.332 -2.42866e-06 1.38375e-07)
(318.325 1.2385e-05 -5.12126e-07)
(318.315 1.71278e-05 -7.33956e-07)
(318.311 1.68793e-05 -7.42916e-07)
(318.309 1.22982e-05 -5.58903e-07)
(318.31 9.25482e-06 -4.34583e-07)
(318.313 2.37272e-06 -1.49059e-07)
(318.317 -9.63126e-06 3.75632e-07)
(318.32 -1.21485e-05 5.01719e-07)
(318.318 -1.20809e-05 5.0481e-07)
(318.313 -6.90385e-06 2.90426e-07)
(318.308 -5.52698e-06 2.3722e-07)
(318.303 3.26858e-06 -1.27659e-07)
(318.299 6.25448e-06 -2.56509e-07)
(318.297 6.56874e-06 -2.76312e-07)
(318.301 3.83685e-06 -1.62826e-07)
(318.305 1.65316e-06 -7.30695e-08)
(318.31 -3.36679e-06 1.30325e-07)
(318.317 -6.86917e-06 2.70707e-07)
(318.323 -7.9963e-06 3.18145e-07)
(318.327 -6.97632e-06 2.8426e-07)
(318.329 -4.6863e-06 1.99374e-07)
(318.33 -5.10395e-06 2.1124e-07)
(318.332 2.07393e-06 -6.19342e-08)
(318.331 7.12839e-06 -2.48833e-07)
(318.329 6.97961e-06 -2.45478e-07)
(318.328 5.39814e-06 -1.94007e-07)
(318.328 3.39278e-06 -1.19633e-07)
(318.327 1.58771e-06 -4.55323e-08)
(318.327 -9.61455e-07 -8.65279e-09)
(318.329 -6.45076e-06 2.5811e-07)
(318.331 -6.98132e-06 2.91677e-07)
(318.33 -5.62191e-06 2.36038e-07)
(318.33 -3.99318e-06 1.67803e-07)
(318.329 -2.17387e-06 9.4156e-08)
(318.327 1.36013e-08 3.7106e-09)
(318.322 1.09489e-06 -3.07181e-08)
(318.318 1.60361e-06 -4.73137e-08)
(318.316 -7.09336e-07 4.91925e-08)
(318.314 -2.39123e-06 1.21662e-07)
(318.314 -4.39316e-06 2.07246e-07)
(318.316 -6.26534e-06 2.59037e-07)
(318.32 -7.13513e-06 2.85022e-07)
(318.324 -5.98695e-06 2.23608e-07)
(318.326 -3.15002e-06 8.52232e-08)
(318.327 -1.221e-06 -5.33337e-09)
(318.327 9.73639e-07 -9.89858e-08)
(318.324 5.11042e-06 -2.74073e-07)
(318.321 9.3992e-06 -4.48769e-07)
(318.316 8.07783e-06 -3.9219e-07)
(318.315 6.19241e-06 -3.12299e-07)
(318.315 4.91838e-06 -2.57944e-07)
(318.317 2.93026e-06 -1.73513e-07)
(318.319 -7.94321e-07 -1.18359e-08)
(318.321 -5.73013e-06 1.99755e-07)
(318.323 -7.82437e-06 2.82147e-07)
(318.323 -6.97279e-06 2.44993e-07)
(318.321 -4.59667e-06 1.52402e-07)
(318.32 -3.94821e-06 1.27768e-07)
(318.318 -2.6273e-06 8.08763e-08)
(318.317 -4.30546e-07 -5.79763e-09)
(318.315 1.30841e-06 -7.981e-08)
(318.316 1.22684e-06 -7.3075e-08)
(318.318 1.56092e-07 -3.09869e-08)
(318.32 -1.47279e-06 3.52179e-08)
(318.322 -1.98008e-06 5.71963e-08)
(318.324 -3.5876e-06 1.18972e-07)
(318.327 -4.03478e-06 1.34363e-07)
(318.329 -3.7221e-06 1.18612e-07)
(318.33 -2.95467e-06 8.46094e-08)
(318.331 -2.49238e-06 7.74678e-08)
(318.331 -3.03758e-06 7.61834e-08)
(318.331 -9.52133e-07 -2.24089e-08)
(318.327 -2.81332e-07 -4.53552e-08)
(318.325 9.32142e-07 -7.87617e-08)
(318.323 1.62996e-06 -9.91076e-08)
(318.322 1.85099e-06 -1.09103e-07)
(318.321 2.45349e-06 -1.32778e-07)
(318.321 3.78379e-06 -1.78354e-07)
(318.323 5.03846e-06 -2.29257e-07)
(318.324 5.15825e-06 -2.5451e-07)
(318.323 5.24027e-06 -2.8773e-07)
(318.322 5.51984e-06 -3.24849e-07)
(318.32 5.52461e-06 -3.24692e-07)
(318.318 5.19529e-06 -3.21962e-07)
(318.315 3.16775e-06 -2.52643e-07)
(318.313 2.86122e-06 -2.90376e-07)
(318.313 3.06496e-06 -2.84171e-07)
(318.315 -1.68225e-07 -2.18763e-07)
(318.317 2.69432e-06 -2.63436e-07)
(318.321 1.36202e-06 -2.579e-07)
(318.323 5.46524e-06 -3.17922e-07)
(318.321 8.22356e-07 -2.83643e-07)
(318.312 -9.51275e-06 2.10876e-07)
(318.307 2.43207e-07 -1.6307e-07)
(318.312 -1.81263e-06 3.46718e-07)
(318.341 -8.01899e-06 -3.60058e-07)
(318.424 0.000105781 -2.66908e-06)
(318.584 -0.000193817 7.15705e-06)
(318.824 0.000268782 -1.38067e-05)
(319.129 -3.09569e-06 3.31936e-06)
(319.474 -0.000322041 1.40977e-05)
(319.839 -8.37911e-05 -1.27769e-06)
(320.211 0.000647357 -3.15459e-05)
(320.581 -0.000457105 3.71258e-05)
(320.942 -0.000546558 1.19433e-06)
(321.281 0.000122962 1.65763e-06)
(321.586 -0.000616521 1.9847e-05)
(321.847 7.70278e-05 1.15645e-05)
(322.049 0.00368523 -0.000134732)
(322.165 0.00106472 -5.79378e-05)
(322.183 -0.00197209 4.95372e-05)
(322.181 -0.00179726 5.33769e-05)
(322.17 -0.00126081 4.63175e-05)
(322.151 -0.000840238 3.90999e-05)
(322.13 -0.000945198 4.89355e-05)
(322.108 -0.00120285 5.58768e-05)
(322.085 -0.00116294 5.2026e-05)
(322.064 -0.00091201 4.16913e-05)
(322.049 -0.000768086 2.51024e-05)
(322.038 -0.000795068 2.96505e-05)
(322.028 -0.000854601 3.09582e-05)
(322.011 -0.00089899 1.16521e-05)
(321.973 -0.0008972 2.56756e-05)
(321.883 -0.000614347 1.06862e-05)
(321.686 -0.000503872 -0.000147371)
(321.327 -0.00135655 -7.41585e-06)
(320.84 -0.000180712 0.00129433)
(320.384 0.00137394 -0.00112818)
(320.07 -0.00166734 -0.00158017)
(319.865 -0.00240925 0.00105046)
(319.71 -0.000158164 0.00175785)
(319.572 0.00129405 0.000223645)
(319.445 0.000641623 -0.00112308)
(319.33 -0.000746937 -0.000956309)
(319.228 -0.00130092 5.31876e-05)
(319.141 -0.00085112 0.000638975)
(319.07 -0.000152378 0.000458115)
(319.014 0.000180979 -5.58839e-05)
(318.97 8.99481e-06 -0.000310475)
(318.937 -0.000318512 -0.000124343)
(318.913 -0.000399277 0.000176165)
(318.897 -0.00019995 0.000252305)
(318.885 2.43738e-05 6.73226e-05)
(318.873 4.69089e-05 -6.98433e-05)
(318.862 -4.62171e-05 -0.000135919)
(318.851 -0.000246698 -8.24626e-05)
(318.84 -0.000362952 7.63753e-05)
(318.828 -0.000302599 0.000152887)
(318.815 -0.000192043 0.000105101)
(318.801 -0.000121355 2.78914e-05)
(318.787 -8.32601e-05 -3.06691e-07)
(318.773 -6.0402e-05 -1.74066e-06)
(318.759 -5.52003e-06 -1.16378e-05)
(318.744 5.35474e-05 -4.2442e-05)
(318.73 6.57426e-05 -6.46784e-05)
(318.716 1.33587e-05 -6.08246e-05)
(318.704 -1.09778e-05 -5.5273e-05)
(318.694 -5.62823e-05 -3.97247e-05)
(318.687 -9.94579e-05 -2.36137e-05)
(318.684 -0.000140794 -8.93679e-06)
(318.682 -0.000163339 -1.10094e-06)
(318.681 -0.000135456 -3.93287e-06)
(318.681 -7.92595e-05 -4.07077e-06)
(318.681 -1.35022e-05 9.8694e-06)
(318.68 3.82864e-05 2.44978e-05)
(318.681 5.79448e-05 2.74056e-05)
(318.681 4.67254e-05 1.84618e-05)
(318.68 3.31404e-05 1.0945e-05)
(318.679 -2.56772e-06 -1.11534e-05)
(318.677 -3.70514e-05 -5.97345e-05)
(318.674 -3.23185e-05 -0.000124697)
(318.671 -2.56763e-06 -0.000160944)
(318.666 1.94171e-05 -0.00015258)
(318.66 2.16098e-05 -0.000102157)
(318.653 -2.0564e-08 -3.41795e-05)
(318.647 -2.09926e-05 9.6772e-06)
(318.64 -5.76621e-05 6.22238e-05)
(318.634 -9.89263e-05 0.000111944)
(318.628 -0.00011405 0.000132963)
(318.623 -0.000124922 0.000148043)
(318.62 -7.62814e-05 0.000106113)
(318.619 -1.40631e-05 5.03782e-05)
(318.619 1.74854e-05 2.27932e-05)
(318.619 4.39865e-05 -1.8656e-06)
(318.62 7.1198e-05 -3.0245e-05)
(318.62 9.6724e-05 -5.62828e-05)
(318.619 9.11788e-05 -6.78383e-05)
(318.618 4.6057e-05 -5.95447e-05)
(318.617 -1.36167e-05 -3.60763e-05)
(318.616 -7.33976e-05 -4.95622e-06)
(318.614 -9.82826e-05 9.59526e-06)
(318.613 -0.000107248 1.73414e-05)
(318.612 -0.000111636 3.40621e-05)
(318.61 -8.96531e-05 5.07181e-05)
(318.607 -3.88172e-05 5.56947e-05)
(318.604 5.49365e-06 4.52401e-05)
(318.599 4.16342e-05 3.24393e-05)
(318.594 6.23344e-05 1.68411e-05)
(318.589 6.25886e-05 -2.2042e-06)
(318.583 4.16877e-05 -2.02461e-05)
(318.578 6.30154e-06 -3.33126e-05)
(318.573 -2.60303e-05 -3.89665e-05)
(318.568 -3.80113e-05 -3.78441e-05)
(318.563 -2.51805e-05 -3.11423e-05)
(318.559 -4.29632e-06 -2.39421e-05)
(318.555 1.0728e-05 -1.90069e-05)
(318.552 3.03914e-05 -1.0697e-05)
(318.549 3.59731e-05 -1.82682e-06)
(318.548 2.56146e-05 6.15316e-06)
(318.547 7.58278e-06 1.15722e-05)
(318.546 -1.36043e-05 1.44047e-05)
(318.545 -2.97995e-05 1.63419e-05)
(318.542 -3.3169e-05 1.52869e-05)
(318.539 -3.07472e-05 1.29415e-05)
(318.536 -2.21737e-05 6.20516e-06)
(318.534 -7.92366e-06 -2.33174e-06)
(318.532 6.26081e-06 -7.49863e-06)
(318.529 1.52259e-05 -9.49114e-06)
(318.527 1.46725e-05 -9.66374e-06)
(318.524 3.46621e-06 -6.37198e-06)
(318.522 -1.20505e-05 2.5508e-06)
(318.519 -2.36825e-05 1.76938e-05)
(318.516 -2.66906e-05 3.65178e-05)
(318.514 -2.09202e-05 5.42844e-05)
(318.511 -1.01405e-05 6.72398e-05)
(318.509 3.9409e-06 7.52064e-05)
(318.508 1.31209e-05 7.66492e-05)
(318.506 1.72632e-05 7.68393e-05)
(318.504 1.77706e-05 7.07474e-05)
(318.502 1.79547e-05 6.7724e-05)
(318.501 1.07366e-05 5.88587e-05)
(318.5 -5.00269e-06 4.84244e-05)
(318.501 -1.10779e-05 4.53584e-05)
(318.503 -2.1482e-05 4.2458e-05)
(318.505 -2.43101e-05 3.66885e-05)
(318.506 -2.06689e-05 3.90434e-05)
(318.507 -9.093e-06 4.18609e-05)
(318.505 8.58725e-07 4.36917e-05)
(318.502 1.07978e-05 4.38044e-05)
(318.499 1.76301e-05 4.08005e-05)
(318.496 1.81895e-05 3.38411e-05)
(318.494 1.4503e-05 2.84191e-05)
(318.491 1.06117e-05 2.48397e-05)
(318.489 1.27353e-06 1.77159e-05)
(318.486 -1.18133e-05 1.01669e-05)
(318.482 -2.5239e-05 5.46538e-06)
(318.479 -3.61407e-05 5.4328e-06)
(318.475 -4.17007e-05 9.51123e-06)
(318.473 -4.13767e-05 1.49391e-05)
(318.471 -3.59215e-05 2.07776e-05)
(318.47 -3.06047e-05 2.38563e-05)
(318.47 -2.61967e-05 2.53099e-05)
(318.469 -1.66945e-05 2.68919e-05)
(318.467 -5.32292e-06 2.70103e-05)
(318.465 6.69619e-06 2.52583e-05)
(318.464 1.71751e-05 2.08508e-05)
(318.464 2.22789e-05 1.48709e-05)
(318.464 2.3091e-05 9.14086e-06)
(318.465 1.96726e-05 4.10226e-06)
(318.465 1.17737e-05 -7.00551e-08)
(318.464 -4.12878e-06 -3.2267e-06)
(318.462 -1.87297e-05 -4.07223e-06)
(318.46 -3.54374e-05 -3.90964e-06)
(318.458 -4.53056e-05 -1.85519e-06)
(318.457 -4.88614e-05 1.13481e-06)
(318.456 -4.31662e-05 4.71665e-06)
(318.455 -2.96368e-05 8.57325e-06)
(318.456 -1.31939e-05 1.18046e-05)
(318.458 9.25213e-06 1.49837e-05)
(318.46 3.40337e-05 1.78522e-05)
(318.461 5.21049e-05 1.91614e-05)
(318.461 6.2927e-05 1.92441e-05)
(318.46 6.49236e-05 1.77484e-05)
(318.46 6.14671e-05 1.53901e-05)
(318.46 5.76305e-05 1.41042e-05)
(318.461 4.44565e-05 1.08764e-05)
(318.462 2.58842e-05 6.44765e-06)
(318.464 7.443e-06 1.62018e-06)
(318.465 -8.85624e-06 -3.22535e-06)
(318.466 -2.11441e-05 -6.97144e-06)
(318.467 -2.9245e-05 -1.02943e-05)
(318.467 -3.17142e-05 -1.34498e-05)
(318.467 -3.33331e-05 -1.55135e-05)
(318.467 -2.45124e-05 -1.92548e-05)
(318.467 -1.8663e-05 -2.1573e-05)
(318.467 -1.19324e-05 -2.35166e-05)
(318.467 -7.88407e-07 -2.70822e-05)
(318.465 1.00796e-05 -3.02161e-05)
(318.463 1.99705e-05 -3.08166e-05)
(318.461 2.67469e-05 -2.92212e-05)
(318.458 2.81355e-05 -2.55175e-05)
(318.456 2.61894e-05 -2.10006e-05)
(318.453 2.16036e-05 -1.53135e-05)
(318.452 1.30347e-05 -8.93617e-06)
(318.45 3.54469e-06 -2.79319e-06)
(318.449 -4.13218e-06 5.62474e-06)
(318.449 -8.69987e-06 1.50544e-05)
(318.448 -9.78527e-06 2.08473e-05)
(318.448 -9.25838e-06 2.86029e-05)
(318.447 -9.36232e-06 3.70122e-05)
(318.446 -1.01675e-05 4.47667e-05)
(318.446 -8.15304e-06 5.01189e-05)
(318.446 -3.16112e-06 5.2708e-05)
(318.445 1.55279e-06 5.31665e-05)
(318.443 4.44846e-06 5.04339e-05)
(318.442 6.7484e-06 4.43874e-05)
(318.44 9.61267e-06 3.60388e-05)
(318.437 1.03743e-05 2.87833e-05)
(318.434 9.06072e-06 2.37765e-05)
(318.432 3.98571e-06 1.39469e-05)
(318.43 -2.61153e-06 2.98028e-06)
(318.428 -1.37819e-05 -7.24337e-06)
(318.424 -2.59049e-05 -1.69101e-05)
(318.419 -3.58024e-05 -2.50941e-05)
(318.415 -3.96918e-05 -3.32808e-05)
(318.411 -3.9255e-05 -4.10254e-05)
(318.408 -3.50117e-05 -4.90985e-05)
(318.407 -2.32901e-05 -5.75874e-05)
(318.405 -1.14541e-05 -6.38898e-05)
(318.404 -1.00277e-06 -6.91736e-05)
(318.402 1.35682e-05 -7.54624e-05)
(318.4 2.97398e-05 -8.11819e-05)
(318.398 4.36369e-05 -8.65004e-05)
(318.397 4.98681e-05 -8.8887e-05)
(318.397 5.09352e-05 -8.95133e-05)
(318.399 5.04985e-05 -9.14127e-05)
(318.403 4.6377e-05 -9.18026e-05)
(318.409 4.09258e-05 -8.69896e-05)
(318.413 3.21714e-05 -8.51086e-05)
(318.414 2.21343e-05 -8.51292e-05)
(318.414 1.36954e-05 -8.35286e-05)
(318.414 8.77499e-06 -8.15917e-05)
(318.413 3.04018e-07 -7.5436e-05)
(318.413 -8.59167e-06 -6.66773e-05)
(318.414 -1.50737e-05 -5.75237e-05)
(318.414 -2.2314e-05 -4.81882e-05)
(318.413 -2.67159e-05 -3.93236e-05)
(318.411 -2.45783e-05 -3.19008e-05)
(318.408 -2.09693e-05 -2.61727e-05)
(318.404 -1.88172e-05 -2.17939e-05)
(318.401 -1.51307e-05 -1.88846e-05)
(318.4 -9.07563e-06 -1.76218e-05)
(318.399 -4.13417e-06 -1.72492e-05)
(318.399 3.42155e-08 -1.76326e-05)
(318.399 9.8426e-07 -1.86535e-05)
(318.399 1.78739e-06 -2.00671e-05)
(318.398 3.23082e-06 -2.16935e-05)
(318.398 2.7438e-06 -2.2982e-05)
(318.399 -9.74488e-07 -2.33508e-05)
(318.4 -4.65407e-06 -2.27475e-05)
(318.401 -3.0093e-06 -2.11806e-05)
(318.402 -3.32939e-07 -1.90331e-05)
(318.402 8.15138e-07 -1.65396e-05)
(318.401 1.35465e-06 -1.33065e-05)
(318.399 2.36892e-06 -1.0914e-05)
(318.397 3.02988e-06 -8.18907e-06)
(318.395 5.69907e-06 -4.66689e-06)
(318.393 6.00916e-06 -4.75867e-07)
(318.391 1.27028e-06 2.5161e-06)
(318.39 4.55599e-06 5.14446e-06)
(318.389 8.41824e-06 8.78682e-06)
(318.388 6.56099e-06 1.26587e-05)
(318.385 4.62771e-06 1.53098e-05)
(318.383 5.52225e-06 1.71621e-05)
(318.382 5.11729e-06 1.84257e-05)
(318.381 5.50114e-06 1.96192e-05)
(318.38 6.50345e-06 2.10056e-05)
(318.381 4.01988e-06 2.14878e-05)
(318.381 -1.29251e-06 2.19426e-05)
(318.381 -1.18949e-06 2.20091e-05)
(318.38 4.19256e-06 2.18318e-05)
(318.378 1.7291e-06 2.22176e-05)
(318.378 -6.10283e-06 2.52991e-05)
(318.378 -7.27207e-06 2.4411e-05)
(318.379 -2.68399e-06 3.06524e-05)
(318.379 -1.78026e-06 3.62168e-05)
(318.379 -2.20413e-06 3.97032e-05)
(318.379 -2.58895e-06 4.25251e-05)
(318.378 2.89023e-06 4.77638e-05)
(318.377 5.02307e-06 5.38846e-05)
(318.375 -1.15281e-07 5.86704e-05)
(318.375 1.755e-06 6.16201e-05)
(318.374 9.79667e-06 6.3288e-05)
(318.374 1.06072e-05 6.4595e-05)
(318.374 5.13383e-06 6.4786e-05)
(318.375 2.8161e-06 6.30111e-05)
(318.375 6.75477e-06 6.02119e-05)
(318.375 6.45407e-06 5.72905e-05)
(347.059 -4.2119e-11 -3.64907e-11)
(347.059 -4.06163e-11 -3.11295e-11)
(347.059 -4.27273e-11 -2.93476e-11)
(347.059 -3.92809e-11 -3.22712e-11)
(347.059 -3.94896e-11 -3.0095e-11)
(347.059 -3.95055e-11 -3.16483e-11)
(347.059 -4.02267e-11 -3.13691e-11)
(347.059 -4.10601e-11 -3.05008e-11)
(347.059 -4.42531e-11 -3.02481e-11)
(347.059 -4.14198e-11 -3.09674e-11)
(347.059 -3.21966e-11 -3.09878e-11)
(347.059 -2.59644e-11 -3.11419e-11)
(347.059 -2.94832e-11 -2.9585e-11)
(347.059 -3.30417e-11 -3.3846e-11)
(347.059 -3.75647e-11 -3.35709e-11)
(347.059 -3.70761e-11 -3.58937e-11)
(347.059 -3.47822e-11 -3.30357e-11)
(347.059 -2.77345e-11 -3.4846e-11)
(347.059 -2.12754e-11 -3.48708e-11)
(347.059 -1.68537e-11 -3.30345e-11)
(347.059 -1.16654e-11 -3.28456e-11)
(347.059 -5.32856e-12 -3.29374e-11)
(347.059 -5.24173e-12 -3.03275e-11)
(347.059 -2.59781e-12 -2.9455e-11)
(347.059 -1.08961e-12 -2.83968e-11)
(347.059 -1.58207e-12 -2.80095e-11)
(347.059 -3.94146e-12 -2.72e-11)
(347.059 -6.52301e-12 -2.65567e-11)
(347.059 -2.63013e-12 -2.53991e-11)
(347.059 3.95133e-13 -2.4725e-11)
(347.059 2.84583e-12 -2.47579e-11)
(347.059 4.40995e-12 -2.50643e-11)
(347.059 4.81226e-12 -2.68592e-11)
(347.059 -5.39163e-13 -2.66115e-11)
(347.059 -3.71687e-13 -2.60394e-11)
(347.059 -2.38326e-12 -2.43911e-11)
(347.059 -3.81573e-12 -2.31361e-11)
(347.059 -7.37507e-12 -2.28446e-11)
(347.059 -7.57819e-12 -2.28432e-11)
(347.059 -5.15935e-12 -2.3587e-11)
(347.059 -3.58079e-12 -2.42004e-11)
(347.059 -2.56203e-12 -2.48797e-11)
(347.059 3.82517e-10 -3.98447e-11)
(347.055 -3.08653e-08 1.28025e-09)
(346.944 1.34199e-06 -5.81371e-08)
(344.324 -3.6046e-05 1.56607e-06)
(327.419 0.000152057 -6.79969e-06)
(318.425 -1.74747e-05 7.56756e-07)
(318.275 -3.23517e-05 1.44017e-06)
(318.275 -4.50607e-05 2.00872e-06)
(318.275 -3.1987e-05 1.4268e-06)
(318.28 -2.60046e-05 1.16043e-06)
(318.284 -2.01025e-05 9.00049e-07)
(318.285 -1.49913e-06 9.27229e-08)
(318.283 2.52151e-05 -1.09193e-06)
(318.291 3.58254e-05 -1.56951e-06)
(318.306 3.27786e-05 -1.43293e-06)
(318.315 2.83296e-05 -1.23631e-06)
(318.327 1.37841e-05 -6.03635e-07)
(318.338 -7.87772e-06 3.51994e-07)
(318.343 -2.16581e-05 9.67268e-07)
(318.336 -2.88681e-05 1.27866e-06)
(318.329 -2.86101e-05 1.24627e-06)
(318.326 -2.53154e-05 1.09097e-06)
(318.323 -1.51136e-05 6.39508e-07)
(318.319 2.65544e-06 -1.4018e-07)
(318.317 1.3664e-05 -6.35363e-07)
(318.322 1.65792e-05 -7.44213e-07)
(318.328 1.4102e-05 -5.99252e-07)
(318.332 1.12804e-05 -4.69261e-07)
(318.336 1.41633e-06 -3.8766e-08)
(318.342 -1.20144e-05 5.37347e-07)
(318.346 -1.29059e-05 5.7174e-07)
(318.343 -8.41023e-06 3.75112e-07)
(318.339 -5.667e-06 2.57744e-07)
(318.332 -2.16704e-06 1.11851e-07)
(318.325 1.18069e-05 -5.0065e-07)
(318.315 1.62437e-05 -7.08154e-07)
(318.311 1.5986e-05 -7.1535e-07)
(318.309 1.17004e-05 -5.45913e-07)
(318.31 8.91335e-06 -4.31924e-07)
(318.313 2.45712e-06 -1.59675e-07)
(318.317 -8.77892e-06 3.35792e-07)
(318.32 -1.09787e-05 4.48937e-07)
(318.318 -1.08336e-05 4.48898e-07)
(318.313 -5.50385e-06 2.25063e-07)
(318.308 -4.04551e-06 1.67535e-07)
(318.303 4.23037e-06 -1.75315e-07)
(318.299 6.97804e-06 -2.93353e-07)
(318.297 7.06224e-06 -3.01911e-07)
(318.301 4.12324e-06 -1.8125e-07)
(318.305 1.84307e-06 -8.32826e-08)
(318.31 -3.18255e-06 1.24147e-07)
(318.317 -6.64377e-06 2.64978e-07)
(318.323 -7.72077e-06 3.10584e-07)
(318.327 -6.66972e-06 2.72251e-07)
(318.329 -4.44519e-06 1.90451e-07)
(318.33 -4.89744e-06 1.99124e-07)
(318.332 2.16243e-06 -6.62075e-08)
(318.331 7.13078e-06 -2.46352e-07)
(318.329 6.89272e-06 -2.37318e-07)
(318.328 5.10648e-06 -1.79531e-07)
(318.328 3.02745e-06 -9.47754e-08)
(318.327 1.16919e-06 -2.73586e-08)
(318.327 -1.3073e-06 3.8694e-08)
(318.329 -6.91186e-06 2.83397e-07)
(318.331 -7.41576e-06 3.06665e-07)
(318.33 -5.9549e-06 2.39225e-07)
(318.33 -4.27152e-06 1.64837e-07)
(318.329 -2.49213e-06 9.05678e-08)
(318.327 -3.20319e-07 4.51013e-09)
(318.322 8.23339e-07 -2.62737e-08)
(318.318 1.41186e-06 -4.45458e-08)
(318.316 -6.98761e-07 4.44459e-08)
(318.314 -2.29441e-06 1.11653e-07)
(318.314 -4.16814e-06 1.90246e-07)
(318.316 -5.86799e-06 2.42565e-07)
(318.32 -6.66052e-06 2.68548e-07)
(318.324 -5.57739e-06 2.1101e-07)
(318.326 -2.89355e-06 8.11261e-08)
(318.327 -1.02043e-06 -5.34276e-09)
(318.327 1.06511e-06 -9.42092e-08)
(318.324 4.89743e-06 -2.56535e-07)
(318.321 8.90074e-06 -4.2511e-07)
(318.316 7.64706e-06 -3.73151e-07)
(318.315 5.87445e-06 -2.99103e-07)
(318.315 4.68789e-06 -2.48323e-07)
(318.317 2.8157e-06 -1.6782e-07)
(318.319 -6.88014e-07 -1.42588e-08)
(318.321 -5.27117e-06 1.84097e-07)
(318.323 -7.20603e-06 2.59489e-07)
(318.323 -6.3959e-06 2.22484e-07)
(318.321 -4.1834e-06 1.33636e-07)
(318.32 -3.58976e-06 1.10545e-07)
(318.318 -2.36195e-06 6.754e-08)
(318.317 -2.85381e-07 -1.19441e-08)
(318.315 1.23067e-06 -7.7659e-08)
(318.316 1.10236e-06 -7.01198e-08)
(318.318 8.32123e-08 -3.0293e-08)
(318.32 -1.43057e-06 3.11131e-08)
(318.322 -1.90466e-06 5.21495e-08)
(318.324 -3.44634e-06 1.15393e-07)
(318.327 -3.8715e-06 1.30944e-07)
(318.329 -3.56002e-06 1.16783e-07)
(318.33 -2.83604e-06 8.73972e-08)
(318.331 -2.41943e-06 8.24565e-08)
(318.331 -3.08746e-06 7.8874e-08)
(318.331 -9.42843e-07 -2.15539e-08)
(318.327 -2.5111e-07 -4.3027e-08)
(318.325 1.06029e-06 -8.09482e-08)
(318.323 1.82517e-06 -1.05552e-07)
(318.322 2.05451e-06 -1.17629e-07)
(318.321 2.65424e-06 -1.42927e-07)
(318.321 3.97635e-06 -1.87904e-07)
(318.323 5.21803e-06 -2.38768e-07)
(318.324 5.33538e-06 -2.60339e-07)
(318.323 5.40382e-06 -2.88569e-07)
(318.322 5.69095e-06 -3.23364e-07)
(318.32 5.7119e-06 -3.22194e-07)
(318.318 5.40361e-06 -3.23512e-07)
(318.315 3.41481e-06 -2.46569e-07)
(318.313 3.18019e-06 -2.85088e-07)
(318.313 3.2417e-06 -2.74045e-07)
(318.315 5.31709e-07 -2.02737e-07)
(318.317 2.86223e-06 -2.51956e-07)
(318.321 1.84034e-06 -2.16126e-07)
(318.323 5.62361e-06 -3.31214e-07)
(318.321 1.35956e-06 -2.40653e-07)
(318.312 -8.46672e-06 2.16087e-07)
(318.307 5.1805e-07 -1.95304e-07)
(318.312 -5.76147e-07 2.97867e-07)
(318.341 -7.22001e-06 -6.38242e-07)
(318.424 9.8556e-05 -1.80811e-06)
(318.584 -0.000180676 5.7176e-06)
(318.824 0.00025741 -1.29107e-05)
(319.129 -9.83958e-06 4.17065e-06)
(319.474 -0.000318204 1.39455e-05)
(319.839 -1.4091e-05 -7.65151e-06)
(320.211 0.000478567 -1.84838e-05)
(320.581 -0.000298488 2.89132e-05)
(320.943 -0.000563447 -1.58339e-06)
(321.281 3.42947e-05 9.45406e-06)
(321.585 -0.000464651 1.48174e-05)
(321.845 3.34756e-05 6.74553e-06)
(322.048 0.00347439 -0.000134059)
(322.167 0.000977206 -5.46712e-05)
(322.184 -0.00198483 5.14264e-05)
(322.181 -0.00189772 5.8229e-05)
(322.169 -0.00102941 4.06462e-05)
(322.151 -0.000466821 2.7786e-05)
(322.13 -0.000702963 4.09082e-05)
(322.108 -0.00104833 5.11173e-05)
(322.085 -0.00100976 4.70728e-05)
(322.064 -0.000769003 3.61888e-05)
(322.049 -0.000648574 1.9501e-05)
(322.038 -0.000673995 2.37194e-05)
(322.028 -0.000728873 2.46835e-05)
(322.011 -0.000756621 4.93123e-06)
(321.973 -0.000743364 1.8841e-05)
(321.883 -0.000480493 4.99515e-06)
(321.686 -0.000363589 -0.000152333)
(321.327 -0.00120312 -8.43361e-06)
(320.84 -0.000129863 0.00127071)
(320.384 0.00149403 -0.00113197)
(320.07 -0.00150692 -0.00155332)
(319.865 -0.00232127 0.0010613)
(319.71 -0.000116361 0.00172553)
(319.572 0.00134663 0.000197463)
(319.445 0.000757309 -0.00111892)
(319.33 -0.000620431 -0.000950024)
(319.228 -0.00119686 5.48162e-05)
(319.141 -0.000753939 0.000636713)
(319.07 -5.95138e-05 0.000449895)
(319.014 0.000276917 -6.01159e-05)
(318.97 9.96911e-05 -0.000309506)
(318.937 -0.000255409 -0.000123035)
(318.913 -0.000370727 0.000175799)
(318.897 -0.000194988 0.000247464)
(318.885 2.77805e-05 6.44011e-05)
(318.873 5.64247e-05 -6.87576e-05)
(318.862 -2.93951e-05 -0.000132373)
(318.851 -0.000219117 -7.96033e-05)
(318.84 -0.000334202 7.58897e-05)
(318.828 -0.000273548 0.000151444)
(318.815 -0.000161236 0.000103978)
(318.801 -9.40321e-05 2.77471e-05)
(318.787 -6.56328e-05 -3.2237e-07)
(318.773 -4.28748e-05 -1.95837e-06)
(318.759 1.13246e-05 -1.2442e-05)
(318.744 6.73138e-05 -4.29698e-05)
(318.73 7.72264e-05 -6.45033e-05)
(318.716 2.6459e-05 -6.06148e-05)
(318.704 1.35146e-06 -5.50329e-05)
(318.694 -4.44713e-05 -3.98875e-05)
(318.687 -8.95502e-05 -2.32501e-05)
(318.684 -0.000133452 -7.97572e-06)
(318.682 -0.000159091 8.70784e-07)
(318.681 -0.000133219 -1.78381e-06)
(318.681 -7.80062e-05 -2.70947e-06)
(318.681 -1.17293e-05 9.67029e-06)
(318.68 4.24674e-05 2.25115e-05)
(318.681 6.35095e-05 2.44044e-05)
(318.681 5.44692e-05 1.47201e-05)
(318.68 4.30634e-05 6.78626e-06)
(318.679 9.23278e-06 -1.54751e-05)
(318.677 -2.79753e-05 -6.22808e-05)
(318.674 -2.87535e-05 -0.000121589)
(318.671 -7.78501e-08 -0.000152822)
(318.666 2.16357e-05 -0.000143029)
(318.66 1.99968e-05 -9.63047e-05)
(318.653 -1.86537e-06 -3.16087e-05)
(318.647 -2.1786e-05 1.11229e-05)
(318.64 -5.8283e-05 6.2157e-05)
(318.634 -9.88504e-05 0.000109844)
(318.628 -0.000113056 0.000129112)
(318.623 -0.000122794 0.000142535)
(318.621 -7.33661e-05 0.00010134)
(318.619 -1.11193e-05 4.70734e-05)
(318.619 2.00929e-05 2.02337e-05)
(318.619 4.60903e-05 -3.74344e-06)
(318.62 7.33092e-05 -3.11682e-05)
(318.62 9.88435e-05 -5.67103e-05)
(318.619 9.41401e-05 -6.76227e-05)
(318.618 5.06598e-05 -5.90567e-05)
(318.617 -8.54744e-06 -3.55714e-05)
(318.616 -6.93168e-05 -3.49602e-06)
(318.614 -9.52975e-05 1.23763e-05)
(318.613 -0.000105285 2.16249e-05)
(318.612 -0.000112336 3.97417e-05)
(318.61 -9.29402e-05 5.53459e-05)
(318.607 -4.29375e-05 5.76437e-05)
(318.604 3.35672e-06 4.5267e-05)
(318.599 4.12267e-05 3.1555e-05)
(318.594 6.33526e-05 1.54401e-05)
(318.589 6.53829e-05 -3.64017e-06)
(318.583 4.60096e-05 -2.14541e-05)
(318.578 1.13689e-05 -3.41357e-05)
(318.573 -2.15261e-05 -3.91382e-05)
(318.568 -3.46446e-05 -3.70854e-05)
(318.563 -2.36131e-05 -2.96954e-05)
(318.559 -3.85415e-06 -2.24085e-05)
(318.555 1.08773e-05 -1.74139e-05)
(318.552 3.02432e-05 -8.61195e-06)
(318.549 3.56588e-05 1.14463e-06)
(318.548 2.53515e-05 1.0307e-05)
(318.547 8.19886e-06 1.56534e-05)
(318.546 -1.29749e-05 1.75652e-05)
(318.545 -3.01041e-05 1.81621e-05)
(318.542 -3.46184e-05 1.60555e-05)
(318.539 -3.27589e-05 1.31338e-05)
(318.536 -2.37057e-05 5.01822e-06)
(318.534 -7.87506e-06 -4.92023e-06)
(318.532 7.80732e-06 -1.08664e-05)
(318.529 1.76858e-05 -1.309e-05)
(318.527 1.79026e-05 -1.29142e-05)
(318.524 7.12636e-06 -9.22275e-06)
(318.522 -8.57126e-06 -2.82449e-07)
(318.519 -2.04694e-05 1.41729e-05)
(318.516 -2.50889e-05 3.20707e-05)
(318.514 -2.09724e-05 4.9365e-05)
(318.511 -9.1322e-06 6.25215e-05)
(318.509 4.82899e-06 7.19198e-05)
(318.508 1.24143e-05 7.48991e-05)
(318.506 1.62147e-05 7.54375e-05)
(318.504 1.81843e-05 7.02307e-05)
(318.502 1.86047e-05 6.77521e-05)
(318.501 1.03432e-05 5.87238e-05)
(318.5 -3.57327e-06 5.06453e-05)
(318.501 -1.11193e-05 4.81192e-05)
(318.503 -2.25844e-05 4.46336e-05)
(318.505 -2.53179e-05 3.82128e-05)
(318.506 -2.14488e-05 3.99386e-05)
(318.507 -9.15888e-06 4.22516e-05)
(318.505 1.41261e-06 4.37337e-05)
(318.502 1.15136e-05 4.36902e-05)
(318.499 1.86218e-05 4.06102e-05)
(318.496 1.96605e-05 3.36324e-05)
(318.494 1.64658e-05 2.82568e-05)
(318.491 1.26609e-05 2.46892e-05)
(318.489 3.32967e-06 1.75861e-05)
(318.486 -9.02615e-06 1.05988e-05)
(318.482 -2.1001e-05 6.72615e-06)
(318.479 -3.11854e-05 7.26845e-06)
(318.475 -3.76031e-05 1.18997e-05)
(318.473 -3.86907e-05 1.76174e-05)
(318.471 -3.33862e-05 2.21928e-05)
(318.47 -2.85296e-05 2.44288e-05)
(318.47 -2.42499e-05 2.57475e-05)
(318.469 -1.52124e-05 2.71725e-05)
(318.467 -4.54148e-06 2.70526e-05)
(318.465 6.41266e-06 2.49074e-05)
(318.464 1.64637e-05 2.0017e-05)
(318.464 2.29584e-05 1.4007e-05)
(318.464 2.4572e-05 8.44208e-06)
(318.465 2.04985e-05 3.65576e-06)
(318.465 1.31142e-05 -4.16798e-07)
(318.464 -2.9283e-06 -3.71448e-06)
(318.462 -1.77985e-05 -4.54043e-06)
(318.46 -3.489e-05 -4.17617e-06)
(318.458 -4.5588e-05 -1.88949e-06)
(318.457 -4.84246e-05 1.23818e-06)
(318.456 -4.37902e-05 4.99486e-06)
(318.455 -3.12681e-05 8.81995e-06)
(318.456 -1.29689e-05 1.15775e-05)
(318.458 7.21125e-06 1.46976e-05)
(318.46 3.21691e-05 1.75544e-05)
(318.461 5.38107e-05 1.87809e-05)
(318.461 6.53241e-05 1.86708e-05)
(318.46 6.44778e-05 1.70098e-05)
(318.46 6.14929e-05 1.46888e-05)
(318.46 5.81257e-05 1.33284e-05)
(318.461 4.52231e-05 1.0132e-05)
(318.462 2.65576e-05 5.63545e-06)
(318.464 6.65042e-06 7.09672e-07)
(318.465 -1.05613e-05 -4.28945e-06)
(318.466 -2.19423e-05 -8.10897e-06)
(318.467 -2.8915e-05 -1.10112e-05)
(318.467 -3.17112e-05 -1.36907e-05)
(318.467 -3.38857e-05 -1.55787e-05)
(318.467 -2.44523e-05 -1.96005e-05)
(318.467 -1.88027e-05 -2.2228e-05)
(318.467 -1.27033e-05 -2.45369e-05)
(318.467 -1.9308e-06 -2.83064e-05)
(318.465 9.1763e-06 -3.11492e-05)
(318.463 1.97851e-05 -3.13124e-05)
(318.461 2.69312e-05 -2.93105e-05)
(318.458 2.76852e-05 -2.4869e-05)
(318.456 2.57161e-05 -1.9999e-05)
(318.453 2.22509e-05 -1.485e-05)
(318.452 1.48647e-05 -8.89097e-06)
(318.45 5.64707e-06 -3.07191e-06)
(318.449 -3.0432e-06 5.0495e-06)
(318.449 -8.56193e-06 1.42806e-05)
(318.448 -1.02309e-05 2.00375e-05)