/*--------------------------------*- C++ -*----------------------------------*\
| =========                 |                                                 |
| \\      /  F ield         | OpenFOAM: The Open Source CFD Toolbox           |
|  \\    /   O peration     | Version:  2406                                  |
|   \\  /    A nd           | Website:  www.openfoam.com                      |
|    \\/     M anipulation  |                                                 |
\*---------------------------------------------------------------------------*/
FoamFile
{
    version     2.0;
    format      ascii;
    arch        "LSB;label=32;scalar=64";
    class       volScalarField;
    location    "0.012";
    object      Ma;
}
// * * * * * * * * * * * * * * * * * * * * * * * * * * * * * * * * * * * * * //

dimensions      [0 0 0 0 0 0 0];

internalField   nonuniform List<scalar> 
81000
(
0.00126836
0.00126811
0.00126776
0.00126722
0.00126654
0.00126579
0.00126504
0.00126437
0.0012638
0.00126335
0.001263
0.00126274
0.00126254
0.00126239
0.00126228
0.00126221
0.00126218
0.00126218
0.0012622
0.00126226
0.00126236
0.00126251
0.0012627
0.00126292
0.00126315
0.00126336
0.00126353
0.00126364
0.00126369
0.0012637
0.00126366
0.00126359
0.0012635
0.00126339
0.00126326
0.00126313
0.001263
0.00126287
0.00126273
0.00126258
0.00126236
0.00126203
0.00126158
0.00126102
0.00126034
0.00125954
0.0012586
0.00125752
0.00125627
0.00125484
0.00125322
0.0012514
0.00124935
0.00124708
0.00124457
0.00124181
0.0012388
0.00123555
0.00123205
0.00122832
0.00122436
0.00122018
0.0012158
0.00121125
0.00120654
0.00120171
0.00119677
0.00119177
0.00118672
0.00118168
0.00117668
0.00117178
0.00116703
0.00116246
0.0011581
0.00115396
0.00115004
0.00114635
0.00114289
0.0011397
0.00113678
0.00113418
0.00113191
0.00112998
0.00112839
0.00112714
0.00112621
0.00112556
0.00112515
0.00112494
0.00112485
0.00112483
0.00112488
0.00112508
0.00112557
0.00112637
0.00112735
0.00112828
0.00112892
0.00112927
0.00320806
0.00320742
0.00320675
0.00320577
0.00320466
0.0032036
0.00320271
0.00320204
0.00320159
0.0032013
0.00320115
0.00320108
0.00320107
0.00320113
0.00320123
0.00320139
0.00320161
0.00320189
0.00320223
0.00320261
0.00320302
0.00320344
0.00320385
0.00320425
0.00320461
0.00320494
0.00320522
0.00320545
0.00320564
0.00320579
0.00320594
0.00320607
0.00320621
0.00320634
0.00320646
0.00320657
0.00320664
0.00320668
0.00320666
0.00320658
0.00320645
0.00320625
0.00320598
0.00320564
0.0032052
0.00320465
0.00320396
0.00320312
0.00320211
0.00320089
0.00319944
0.00319775
0.00319579
0.00319354
0.00319101
0.00318819
0.00318509
0.00318173
0.00317815
0.00317437
0.00317043
0.00316637
0.00316222
0.00315804
0.00315384
0.00314965
0.00314549
0.00314135
0.00313721
0.00313307
0.00312888
0.00312464
0.00312035
0.00311602
0.00311169
0.00310739
0.00310317
0.00309911
0.00309527
0.00309179
0.00308878
0.00308635
0.00308457
0.00308341
0.00308279
0.00308253
0.00308247
0.00308256
0.00308282
0.00308333
0.00308422
0.00308558
0.00308756
0.00309024
0.00309362
0.00309751
0.00310151
0.00310504
0.0031075
0.00310895
0.00386444
0.00386377
0.00386361
0.00386324
0.00386268
0.00386208
0.00386161
0.00386134
0.00386124
0.00386123
0.00386125
0.00386132
0.00386144
0.00386162
0.00386185
0.00386215
0.0038625
0.0038629
0.00386334
0.0038638
0.00386427
0.00386473
0.00386517
0.00386559
0.00386599
0.00386638
0.00386676
0.00386713
0.00386751
0.0038679
0.00386828
0.00386866
0.00386899
0.00386926
0.00386946
0.00386959
0.00386965
0.00386962
0.00386948
0.00386922
0.00386881
0.00386825
0.00386751
0.00386657
0.00386542
0.00386404
0.00386239
0.00386046
0.00385824
0.00385572
0.0038529
0.0038498
0.00384648
0.00384299
0.00383941
0.00383584
0.00383239
0.00382919
0.00382637
0.00382407
0.0038224
0.00382144
0.00382126
0.0038219
0.00382341
0.00382574
0.00382875
0.00383224
0.00383606
0.00384008
0.00384419
0.00384829
0.00385233
0.00385624
0.00386005
0.00386378
0.0038675
0.00387127
0.00387518
0.00387927
0.00388361
0.00388817
0.00389308
0.00389836
0.00390412
0.00391031
0.00391701
0.0039241
0.0039316
0.00393935
0.00394737
0.00395559
0.00396414
0.00397297
0.0039821
0.00399126
0.0040001
0.00400774
0.00401316
0.0040164
0.0069285
0.00692625
0.00692468
0.0069228
0.00692105
0.00691962
0.00691853
0.00691773
0.00691715
0.0069167
0.00691635
0.00691608
0.00691589
0.00691577
0.0069157
0.00691568
0.00691568
0.0069157
0.00691578
0.00691593
0.00691616
0.00691645
0.00691679
0.00691717
0.00691758
0.00691802
0.0069185
0.00691905
0.00691967
0.00692036
0.00692112
0.00692195
0.00692288
0.0069239
0.00692503
0.00692629
0.00692768
0.00692923
0.00693093
0.00693279
0.0069348
0.00693696
0.00693925
0.00694165
0.00694414
0.00694671
0.00694934
0.00695203
0.00695482
0.00695777
0.00696095
0.00696438
0.00696805
0.00697187
0.00697578
0.00697965
0.00698339
0.00698695
0.00699029
0.00699337
0.00699621
0.00699881
0.00700123
0.00700353
0.0070058
0.00700811
0.00701054
0.00701313
0.00701592
0.00701892
0.00702208
0.00702535
0.0070287
0.00703213
0.00703559
0.00703904
0.00704243
0.00704571
0.00704882
0.00705173
0.00705441
0.00705686
0.00705908
0.00706111
0.00706299
0.00706475
0.00706641
0.00706803
0.00706961
0.00707111
0.0070725
0.00707381
0.00707508
0.00707632
0.00707768
0.00707902
0.00708058
0.00708211
0.00708336
0.00708501
0.014841
0.0148352
0.0148344
0.0148336
0.0148331
0.0148329
0.0148325
0.0148325
0.0148323
0.0148322
0.0148321
0.0148321
0.014832
0.0148321
0.0148321
0.0148322
0.0148324
0.0148326
0.0148329
0.0148333
0.0148337
0.0148343
0.0148349
0.0148355
0.0148363
0.0148372
0.0148381
0.0148391
0.0148401
0.0148412
0.0148424
0.0148436
0.0148448
0.0148461
0.0148474
0.0148487
0.0148499
0.0148513
0.0148527
0.0148541
0.0148558
0.0148576
0.0148595
0.0148616
0.0148639
0.0148663
0.0148688
0.0148714
0.0148739
0.0148764
0.0148788
0.014881
0.0148832
0.0148852
0.0148873
0.0148894
0.0148916
0.014894
0.0148966
0.0148994
0.0149025
0.0149059
0.0149096
0.0149135
0.0149177
0.014922
0.0149267
0.0149315
0.0149364
0.0149415
0.0149467
0.0149519
0.0149571
0.0149622
0.0149672
0.0149721
0.0149768
0.0149814
0.0149857
0.0149897
0.0149935
0.0149969
0.015
0.0150027
0.0150051
0.0150073
0.0150092
0.0150109
0.0150123
0.0150136
0.0150146
0.0150155
0.0150161
0.0150166
0.015017
0.0150172
0.0150174
0.0150174
0.0150174
0.0149973
0.0276542
0.0277854
0.0277856
0.0277856
0.0277856
0.0277856
0.0277856
0.0277856
0.0277856
0.0277856
0.0277856
0.0277856
0.0277856
0.0277856
0.0277856
0.0277856
0.0277856
0.0277855
0.0277855
0.0277854
0.0277853
0.0277853
0.0277852
0.0277851
0.0277849
0.0277848
0.0277847
0.0277846
0.0277844
0.0277843
0.0277842
0.0277841
0.0277841
0.0277841
0.0277842
0.0277843
0.0277846
0.0277849
0.0277854
0.027786
0.0277867
0.0277876
0.0277886
0.0277898
0.0277912
0.0277926
0.0277943
0.027796
0.0277979
0.0277999
0.027802
0.0278041
0.0278062
0.0278084
0.0278107
0.0278129
0.027815
0.027817
0.027819
0.0278209
0.0278229
0.0278247
0.0278265
0.0278281
0.0278296
0.0278309
0.0278322
0.0278335
0.0278348
0.0278362
0.0278376
0.0278393
0.0278411
0.0278432
0.0278453
0.0278476
0.0278499
0.0278524
0.0278549
0.0278574
0.0278599
0.0278622
0.0278645
0.0278666
0.0278685
0.0278703
0.0278718
0.027873
0.027874
0.0278749
0.0278755
0.027876
0.0278763
0.0278766
0.0278767
0.0278768
0.0278768
0.0278769
0.0278767
0.0277843
0.042195
0.0424252
0.0424257
0.0424256
0.0424256
0.0424256
0.0424256
0.0424255
0.0424255
0.0424254
0.0424254
0.0424253
0.0424251
0.042425
0.0424248
0.0424246
0.0424243
0.042424
0.0424237
0.0424233
0.0424229
0.0424225
0.042422
0.0424215
0.0424211
0.0424206
0.04242
0.0424195
0.042419
0.0424185
0.042418
0.0424176
0.0424171
0.0424167
0.0424164
0.0424161
0.0424159
0.0424158
0.0424157
0.0424158
0.042416
0.0424161
0.0424164
0.0424167
0.042417
0.0424174
0.0424178
0.0424182
0.0424187
0.0424192
0.0424197
0.0424202
0.0424208
0.0424215
0.0424222
0.042423
0.0424238
0.0424246
0.0424253
0.0424261
0.0424268
0.0424275
0.0424282
0.0424289
0.0424297
0.0424306
0.0424315
0.0424327
0.042434
0.0424355
0.0424373
0.0424393
0.0424415
0.042444
0.0424468
0.0424496
0.0424526
0.0424557
0.0424587
0.0424617
0.0424646
0.0424674
0.04247
0.0424724
0.0424747
0.0424767
0.0424784
0.04248
0.0424813
0.0424824
0.0424832
0.042484
0.0424845
0.042485
0.0424853
0.0424855
0.0424857
0.0424857
0.0424843
0.0423019
0.0524142
0.0526211
0.0526222
0.0526223
0.0526221
0.052622
0.0526218
0.0526216
0.0526214
0.0526212
0.052621
0.0526208
0.0526205
0.0526203
0.05262
0.0526197
0.0526194
0.052619
0.0526187
0.0526183
0.0526179
0.0526175
0.0526171
0.0526167
0.0526162
0.0526158
0.0526153
0.0526148
0.0526144
0.052614
0.0526136
0.0526133
0.052613
0.0526129
0.0526128
0.0526129
0.0526129
0.0526131
0.0526133
0.0526135
0.0526138
0.0526141
0.0526143
0.0526146
0.0526149
0.0526152
0.0526154
0.0526156
0.0526158
0.0526159
0.052616
0.0526161
0.0526162
0.0526163
0.0526164
0.0526165
0.0526163
0.0526162
0.052616
0.0526157
0.0526155
0.0526152
0.052615
0.0526149
0.052615
0.0526152
0.0526158
0.0526167
0.052618
0.0526196
0.0526215
0.0526239
0.0526265
0.0526294
0.0526325
0.0526358
0.0526392
0.0526426
0.052646
0.0526493
0.0526525
0.0526554
0.0526582
0.0526607
0.052663
0.0526651
0.0526669
0.0526685
0.0526699
0.0526711
0.0526721
0.0526729
0.0526736
0.0526741
0.0526745
0.0526747
0.052675
0.0526753
0.0526734
0.0524783
0.055637
0.055772
0.0557725
0.0557725
0.0557723
0.0557722
0.055772
0.0557718
0.0557716
0.0557714
0.0557712
0.0557709
0.0557706
0.0557703
0.05577
0.0557697
0.0557693
0.0557689
0.0557685
0.0557681
0.0557677
0.0557673
0.0557668
0.0557663
0.0557658
0.0557653
0.0557648
0.0557643
0.0557638
0.0557633
0.0557628
0.0557624
0.0557619
0.0557614
0.055761
0.0557605
0.0557601
0.0557597
0.0557593
0.0557589
0.0557586
0.0557582
0.0557579
0.0557576
0.0557573
0.055757
0.0557567
0.0557564
0.0557561
0.0557558
0.0557555
0.0557552
0.055755
0.0557547
0.0557546
0.0557545
0.0557545
0.0557546
0.0557547
0.0557549
0.0557552
0.0557556
0.055756
0.0557566
0.0557573
0.0557581
0.0557591
0.0557602
0.0557615
0.055763
0.0557647
0.0557665
0.0557683
0.05577
0.0557717
0.0557734
0.0557751
0.0557768
0.0557785
0.0557801
0.0557816
0.055783
0.0557842
0.0557854
0.0557864
0.0557874
0.0557882
0.055789
0.0557896
0.0557902
0.0557906
0.055791
0.0557912
0.0557914
0.0557915
0.0557916
0.0557916
0.055792
0.0557914
0.0556767
0.0541464
0.0542199
0.0542202
0.0542202
0.0542201
0.05422
0.05422
0.0542199
0.0542198
0.0542197
0.0542195
0.0542194
0.0542192
0.0542191
0.0542189
0.0542187
0.0542185
0.0542183
0.054218
0.0542178
0.0542175
0.0542173
0.054217
0.0542167
0.0542164
0.0542161
0.0542158
0.0542155
0.0542152
0.0542149
0.0542147
0.0542144
0.0542143
0.0542141
0.0542139
0.0542138
0.0542136
0.0542135
0.0542134
0.0542134
0.0542133
0.0542132
0.0542131
0.054213
0.0542128
0.0542127
0.0542125
0.0542123
0.054212
0.0542118
0.0542116
0.0542113
0.0542111
0.0542108
0.0542106
0.0542105
0.0542104
0.0542105
0.0542107
0.0542112
0.0542116
0.0542119
0.0542123
0.054213
0.0542139
0.0542151
0.0542164
0.0542179
0.0542194
0.054221
0.0542226
0.0542241
0.0542256
0.0542271
0.0542286
0.05423
0.0542315
0.0542329
0.0542342
0.0542356
0.0542369
0.0542381
0.0542393
0.0542405
0.0542415
0.0542425
0.0542433
0.0542441
0.0542447
0.0542452
0.0542456
0.0542459
0.0542461
0.0542463
0.0542464
0.0542465
0.0542465
0.0542465
0.0542464
0.0541959
0.00126841
0.00126811
0.00126798
0.00126766
0.00126714
0.00126648
0.00126577
0.00126512
0.0012646
0.00126424
0.00126403
0.00126392
0.00126388
0.00126388
0.0012639
0.00126396
0.00126409
0.00126432
0.00126465
0.00126506
0.00126554
0.00126607
0.00126661
0.00126715
0.00126766
0.00126812
0.00126852
0.00126886
0.00126914
0.00126935
0.0012695
0.0012696
0.00126967
0.0012697
0.00126972
0.00126972
0.00126971
0.00126969
0.00126965
0.00126959
0.00126946
0.00126921
0.00126883
0.00126834
0.00126773
0.001267
0.00126614
0.00126514
0.00126397
0.00126264
0.00126111
0.00125939
0.00125744
0.00125525
0.00125283
0.00125015
0.00124721
0.00124402
0.00124057
0.00123688
0.00123294
0.00122878
0.00122441
0.00121984
0.00121509
0.00121019
0.00120515
0.0012
0.00119477
0.0011895
0.00118424
0.00117903
0.00117392
0.00116894
0.00116413
0.00115949
0.00115503
0.00115077
0.00114674
0.00114295
0.00113945
0.00113627
0.00113344
0.001131
0.00112898
0.00112738
0.00112618
0.00112534
0.00112482
0.00112454
0.00112443
0.00112441
0.00112445
0.00112465
0.00112512
0.0011259
0.00112689
0.00112785
0.00112854
0.00112907
0.00318056
0.00317965
0.00317947
0.0031791
0.00317855
0.00317786
0.00317716
0.00317653
0.00317609
0.00317581
0.00317568
0.00317565
0.00317571
0.00317585
0.00317608
0.00317644
0.00317691
0.00317748
0.00317815
0.00317887
0.00317963
0.00318039
0.00318114
0.00318185
0.00318251
0.00318312
0.00318366
0.00318414
0.00318456
0.00318491
0.00318523
0.00318551
0.00318576
0.00318598
0.00318617
0.00318632
0.00318643
0.0031865
0.00318654
0.00318651
0.00318642
0.00318628
0.00318606
0.00318577
0.0031854
0.00318493
0.00318433
0.00318361
0.00318272
0.00318165
0.00318038
0.00317889
0.00317718
0.00317523
0.00317303
0.00317058
0.00316787
0.00316491
0.00316169
0.00315823
0.00315454
0.00315062
0.0031465
0.0031422
0.00313772
0.0031331
0.00312833
0.00312343
0.00311838
0.00311318
0.00310779
0.0031022
0.00309645
0.00309057
0.00308462
0.00307867
0.00307281
0.00306712
0.00306173
0.00305676
0.00305232
0.00304853
0.00304545
0.00304311
0.00304148
0.00304046
0.00303992
0.0030397
0.00303965
0.00303971
0.00304
0.00304071
0.00304205
0.00304413
0.00304692
0.00305018
0.00305346
0.00305621
0.00305801
0.00305976
0.00376541
0.00376405
0.00376369
0.00376314
0.00376244
0.00376168
0.00376094
0.0037603
0.00375981
0.00375951
0.00375937
0.00375933
0.00375933
0.00375935
0.00375943
0.00375958
0.00375981
0.0037601
0.00376045
0.00376084
0.00376126
0.0037617
0.00376215
0.00376259
0.00376305
0.00376351
0.00376398
0.00376445
0.00376494
0.00376543
0.00376593
0.00376645
0.00376696
0.00376747
0.00376795
0.0037684
0.00376883
0.00376924
0.00376964
0.00377001
0.00377037
0.00377071
0.00377103
0.00377135
0.00377164
0.00377193
0.00377219
0.00377242
0.00377263
0.00377281
0.00377297
0.00377311
0.00377325
0.0037734
0.00377358
0.00377384
0.00377421
0.00377478
0.00377558
0.00377669
0.00377814
0.00377999
0.00378225
0.00378491
0.00378794
0.0037913
0.00379487
0.00379851
0.00380209
0.00380549
0.00380859
0.00381129
0.00381345
0.00381498
0.00381587
0.00381615
0.00381586
0.00381512
0.00381413
0.00381315
0.00381237
0.00381197
0.003812
0.0038126
0.00381368
0.00381545
0.00381791
0.00382119
0.00382507
0.00382968
0.0038348
0.00384067
0.00384696
0.00385377
0.00386041
0.00386658
0.00387131
0.00387428
0.00387543
0.00387747
0.00688796
0.00688564
0.00688552
0.00688516
0.00688456
0.00688379
0.00688301
0.00688234
0.00688183
0.00688147
0.00688125
0.00688113
0.00688106
0.00688103
0.00688102
0.00688103
0.00688106
0.00688112
0.00688121
0.00688134
0.0068815
0.0068817
0.00688193
0.00688218
0.00688246
0.00688275
0.00688308
0.00688344
0.00688384
0.00688427
0.00688474
0.00688525
0.00688581
0.00688641
0.00688708
0.00688781
0.00688861
0.00688951
0.00689051
0.00689162
0.00689284
0.00689417
0.00689563
0.00689721
0.00689893
0.00690078
0.00690277
0.00690492
0.00690729
0.00690992
0.00691287
0.00691616
0.00691975
0.00692357
0.00692758
0.0069317
0.00693589
0.00694012
0.00694437
0.00694863
0.00695289
0.00695715
0.0069614
0.00696566
0.00696997
0.00697434
0.00697882
0.00698341
0.00698813
0.00699298
0.00699796
0.007003
0.00700802
0.00701296
0.00701778
0.00702244
0.00702688
0.00703108
0.007035
0.00703862
0.00704193
0.00704492
0.00704761
0.00705003
0.00705221
0.00705416
0.00705592
0.0070575
0.00705899
0.00706039
0.00706166
0.00706284
0.00706397
0.00706506
0.00706614
0.00706719
0.0070683
0.00706935
0.00707025
0.00707376
0.0147944
0.0148012
0.0148012
0.0148011
0.014801
0.0148008
0.0148005
0.0148003
0.0148002
0.0148001
0.0148001
0.0148001
0.0148001
0.0148001
0.0148002
0.0148004
0.0148005
0.0148007
0.0148009
0.0148011
0.0148014
0.0148017
0.0148021
0.0148026
0.0148031
0.0148037
0.0148043
0.014805
0.0148058
0.0148066
0.0148075
0.0148084
0.0148094
0.0148104
0.0148114
0.0148125
0.0148137
0.0148149
0.0148162
0.0148177
0.0148193
0.014821
0.014823
0.0148251
0.0148275
0.0148299
0.0148325
0.0148352
0.014838
0.0148408
0.0148436
0.0148465
0.0148493
0.0148521
0.0148551
0.0148581
0.0148611
0.0148643
0.0148677
0.0148712
0.0148748
0.0148786
0.0148825
0.0148866
0.0148909
0.0148952
0.0148997
0.0149042
0.0149088
0.0149134
0.0149179
0.0149225
0.0149269
0.0149313
0.0149356
0.0149398
0.0149439
0.0149477
0.0149514
0.0149549
0.0149581
0.014961
0.0149637
0.0149662
0.0149685
0.0149705
0.0149722
0.0149738
0.0149753
0.0149766
0.0149777
0.0149786
0.0149794
0.0149801
0.0149806
0.0149809
0.0149811
0.0149811
0.0149809
0.0149439
0.0276051
0.0277446
0.0277449
0.0277449
0.0277449
0.0277449
0.0277449
0.027745
0.027745
0.027745
0.027745
0.027745
0.0277451
0.0277451
0.0277451
0.0277452
0.0277452
0.0277453
0.0277454
0.0277455
0.0277456
0.0277458
0.027746
0.0277462
0.0277464
0.0277467
0.0277471
0.0277474
0.0277478
0.0277483
0.0277488
0.0277493
0.0277499
0.0277506
0.0277513
0.027752
0.0277529
0.0277537
0.0277547
0.0277558
0.0277569
0.0277581
0.0277594
0.0277608
0.0277622
0.0277638
0.0277654
0.027767
0.0277688
0.0277706
0.0277726
0.0277746
0.0277766
0.0277788
0.0277809
0.0277831
0.0277852
0.0277872
0.0277892
0.0277913
0.0277932
0.0277952
0.027797
0.0277988
0.0278005
0.0278022
0.0278037
0.0278053
0.0278069
0.0278086
0.0278104
0.0278122
0.0278141
0.0278161
0.0278181
0.0278202
0.0278224
0.0278246
0.0278268
0.027829
0.0278312
0.0278333
0.0278353
0.0278372
0.027839
0.0278405
0.0278419
0.027843
0.027844
0.0278447
0.0278453
0.0278457
0.027846
0.0278462
0.0278463
0.0278464
0.0278464
0.0278465
0.027846
0.0277425
0.0421679
0.0424007
0.0424012
0.0424012
0.0424012
0.0424012
0.0424012
0.0424011
0.0424011
0.0424011
0.042401
0.042401
0.0424009
0.0424009
0.0424008
0.0424007
0.0424006
0.0424005
0.0424004
0.0424003
0.0424002
0.0424001
0.0424
0.0424
0.0423999
0.0423999
0.0423998
0.0423998
0.0423998
0.0423998
0.0423999
0.0423999
0.0424
0.0424002
0.0424003
0.0424006
0.0424008
0.0424011
0.0424013
0.0424016
0.042402
0.0424023
0.0424026
0.042403
0.0424033
0.0424037
0.042404
0.0424043
0.0424046
0.0424049
0.0424053
0.0424057
0.0424063
0.0424068
0.0424075
0.0424082
0.0424089
0.0424097
0.0424104
0.0424111
0.0424118
0.0424125
0.0424131
0.0424138
0.0424145
0.0424152
0.0424161
0.0424171
0.0424182
0.0424194
0.0424208
0.0424224
0.0424242
0.0424262
0.0424284
0.0424307
0.0424331
0.0424355
0.042438
0.0424404
0.0424428
0.042445
0.0424471
0.0424491
0.0424508
0.0424524
0.0424538
0.0424551
0.0424561
0.042457
0.0424577
0.0424583
0.0424588
0.0424591
0.0424594
0.0424596
0.0424598
0.0424599
0.0424588
0.0422689
0.0524106
0.0526196
0.0526203
0.0526203
0.0526201
0.05262
0.0526198
0.0526197
0.0526195
0.0526193
0.0526191
0.0526189
0.0526187
0.0526185
0.0526183
0.0526181
0.0526179
0.0526177
0.0526175
0.0526173
0.052617
0.0526168
0.0526166
0.0526164
0.0526161
0.0526159
0.0526157
0.0526155
0.0526153
0.0526151
0.052615
0.0526148
0.0526148
0.0526148
0.0526148
0.0526149
0.052615
0.0526151
0.0526152
0.0526153
0.0526154
0.0526155
0.0526155
0.0526155
0.0526155
0.0526154
0.0526154
0.0526153
0.0526152
0.0526152
0.0526151
0.0526151
0.0526151
0.0526152
0.0526152
0.0526154
0.0526152
0.0526151
0.052615
0.0526149
0.0526148
0.0526148
0.0526149
0.052615
0.0526153
0.0526158
0.0526165
0.0526175
0.0526186
0.0526201
0.0526219
0.052624
0.0526264
0.0526291
0.0526319
0.0526349
0.052638
0.0526411
0.0526442
0.0526472
0.0526501
0.0526527
0.0526552
0.0526574
0.0526594
0.0526612
0.0526629
0.0526643
0.0526655
0.0526666
0.0526675
0.0526682
0.0526688
0.0526692
0.0526696
0.0526699
0.0526701
0.0526706
0.0526697
0.0524623
0.0556402
0.055776
0.0557764
0.0557764
0.0557762
0.0557761
0.0557759
0.0557757
0.0557755
0.0557753
0.055775
0.0557748
0.0557745
0.0557742
0.0557739
0.0557735
0.0557732
0.0557728
0.0557724
0.055772
0.0557715
0.0557711
0.0557706
0.0557702
0.0557698
0.0557693
0.0557689
0.0557685
0.055768
0.0557676
0.0557671
0.0557667
0.0557662
0.0557658
0.0557653
0.0557648
0.0557644
0.0557639
0.0557634
0.0557629
0.0557625
0.055762
0.0557616
0.0557612
0.0557608
0.0557603
0.0557599
0.0557595
0.0557591
0.0557587
0.0557583
0.055758
0.0557577
0.0557575
0.0557574
0.0557573
0.0557573
0.0557574
0.0557575
0.0557578
0.0557581
0.0557586
0.0557592
0.0557599
0.0557608
0.0557619
0.0557631
0.0557645
0.0557659
0.0557674
0.0557689
0.0557705
0.0557721
0.055774
0.0557758
0.0557777
0.0557795
0.0557813
0.0557831
0.0557847
0.0557863
0.0557877
0.055789
0.0557902
0.0557912
0.0557922
0.055793
0.0557938
0.0557944
0.055795
0.0557955
0.0557958
0.0557961
0.0557962
0.0557964
0.0557964
0.0557965
0.0557968
0.0557962
0.0556839
0.0541514
0.0542219
0.0542221
0.054222
0.0542219
0.0542219
0.0542218
0.0542217
0.0542216
0.0542215
0.0542214
0.0542212
0.0542211
0.0542209
0.0542207
0.0542206
0.0542204
0.0542201
0.0542199
0.0542197
0.0542195
0.0542192
0.054219
0.0542187
0.0542185
0.0542184
0.0542182
0.0542181
0.054218
0.0542179
0.0542177
0.0542176
0.0542175
0.0542174
0.0542173
0.0542172
0.0542171
0.054217
0.0542169
0.0542168
0.0542167
0.0542165
0.0542164
0.0542163
0.0542161
0.054216
0.0542158
0.0542156
0.0542153
0.0542151
0.0542149
0.0542146
0.0542144
0.0542142
0.0542141
0.0542139
0.0542138
0.0542138
0.0542136
0.0542134
0.0542133
0.0542135
0.0542138
0.0542143
0.054215
0.0542161
0.0542173
0.0542189
0.0542205
0.0542223
0.054224
0.0542257
0.0542274
0.0542291
0.0542307
0.0542322
0.0542338
0.0542352
0.0542367
0.0542381
0.0542395
0.0542408
0.054242
0.0542432
0.0542443
0.0542453
0.0542461
0.0542469
0.0542475
0.0542481
0.0542485
0.0542488
0.054249
0.0542492
0.0542493
0.0542494
0.0542494
0.0542495
0.0542493
0.0541996
0.00126456
0.00126401
0.00126359
0.00126296
0.00126221
0.00126144
0.00126072
0.00126014
0.00125972
0.00125948
0.00125937
0.00125935
0.00125936
0.00125943
0.00125959
0.00125991
0.00126038
0.00126101
0.00126177
0.00126263
0.00126357
0.00126453
0.0012655
0.00126643
0.00126731
0.00126812
0.00126883
0.00126945
0.00126999
0.00127045
0.00127084
0.00127115
0.00127142
0.00127163
0.00127181
0.00127197
0.00127209
0.0012722
0.00127227
0.0012723
0.00127224
0.00127208
0.00127179
0.00127138
0.00127085
0.0012702
0.00126942
0.0012685
0.00126743
0.00126618
0.00126475
0.00126312
0.00126126
0.00125917
0.00125682
0.00125422
0.00125135
0.0012482
0.00124479
0.00124111
0.00123717
0.00123298
0.00122856
0.00122391
0.00121906
0.00121401
0.0012088
0.00120344
0.00119795
0.00119238
0.00118676
0.00118114
0.00117556
0.00117006
0.00116467
0.00115942
0.00115433
0.00114942
0.00114473
0.00114031
0.0011362
0.00113245
0.00112913
0.00112625
0.00112388
0.00112201
0.00112066
0.00111979
0.00111931
0.00111912
0.00111907
0.00111908
0.00111917
0.00111944
0.00111999
0.00112085
0.00112195
0.00112308
0.00112395
0.00112471
0.00314936
0.00314809
0.00314785
0.00314745
0.00314691
0.00314625
0.00314557
0.00314493
0.00314443
0.00314408
0.0031439
0.00314383
0.00314386
0.003144
0.00314426
0.00314469
0.00314529
0.00314604
0.00314691
0.00314785
0.00314884
0.00314983
0.0031508
0.00315173
0.00315261
0.00315342
0.00315416
0.00315483
0.00315543
0.00315596
0.00315644
0.00315688
0.00315727
0.00315763
0.00315794
0.00315821
0.00315844
0.00315861
0.00315874
0.00315882
0.00315886
0.00315886
0.00315882
0.00315872
0.00315856
0.00315832
0.00315797
0.00315752
0.00315694
0.00315621
0.00315533
0.00315429
0.00315306
0.00315164
0.00315
0.00314813
0.00314601
0.00314362
0.00314096
0.00313799
0.00313471
0.00313112
0.0031272
0.00312296
0.0031184
0.00311353
0.00310835
0.00310288
0.0030971
0.00309102
0.00308462
0.00307792
0.00307094
0.00306377
0.00305648
0.00304916
0.00304191
0.00303485
0.00302811
0.00302182
0.00301608
0.003011
0.00300663
0.00300301
0.00300015
0.00299802
0.00299656
0.00299569
0.00299527
0.00299514
0.00299514
0.00299534
0.00299599
0.00299731
0.00299936
0.00300195
0.00300463
0.00300691
0.0030084
0.00301059
0.00368199
0.00368013
0.0036798
0.00367948
0.0036791
0.00367857
0.00367789
0.00367712
0.00367643
0.00367587
0.0036755
0.0036753
0.00367521
0.00367519
0.00367519
0.00367521
0.0036753
0.00367547
0.00367575
0.00367614
0.00367661
0.00367714
0.00367772
0.00367833
0.00367897
0.00367963
0.00368032
0.00368102
0.00368175
0.00368249
0.00368326
0.00368406
0.0036849
0.00368577
0.00368668
0.00368763
0.00368862
0.00368967
0.00369078
0.00369196
0.00369323
0.00369461
0.00369611
0.00369775
0.00369954
0.00370148
0.00370357
0.00370583
0.00370826
0.00371086
0.00371364
0.00371659
0.0037197
0.00372294
0.00372632
0.00372981
0.00373341
0.00373711
0.00374091
0.00374479
0.00374875
0.00375275
0.00375684
0.00376102
0.00376528
0.00376956
0.00377375
0.00377776
0.00378144
0.00378468
0.0037873
0.00378912
0.00378991
0.0037896
0.00378819
0.00378568
0.00378218
0.0037778
0.00377286
0.0037675
0.00376213
0.00375689
0.00375216
0.00374798
0.00374467
0.0037422
0.00374068
0.00373993
0.00373977
0.00374007
0.00374104
0.00374289
0.00374602
0.00374967
0.00375365
0.00375672
0.00375882
0.0037597
0.00375993
0.00375577
0.00685004
0.00686707
0.00686719
0.00686715
0.00686703
0.00686682
0.00686654
0.00686631
0.00686616
0.0068661
0.00686608
0.00686609
0.00686612
0.00686619
0.00686627
0.00686635
0.00686642
0.00686649
0.00686657
0.00686665
0.00686673
0.00686682
0.00686691
0.00686701
0.00686711
0.00686721
0.00686731
0.0068674
0.00686749
0.00686756
0.00686764
0.00686772
0.0068678
0.00686791
0.00686801
0.0068681
0.00686818
0.00686825
0.0068683
0.00686835
0.00686844
0.0068686
0.00686888
0.00686932
0.00686995
0.00687082
0.00687194
0.00687338
0.00687517
0.00687739
0.00688008
0.00688322
0.00688678
0.00689069
0.00689492
0.00689945
0.00690425
0.00690936
0.00691478
0.00692053
0.00692661
0.006933
0.00693967
0.00694659
0.0069537
0.00696097
0.00696832
0.00697569
0.00698304
0.0069903
0.00699735
0.00700421
0.00701088
0.00701734
0.00702353
0.00702937
0.00703483
0.00703986
0.00704447
0.00704865
0.00705242
0.00705578
0.00705878
0.00706144
0.00706379
0.00706587
0.00706771
0.00706932
0.00707079
0.00707216
0.00707341
0.0070746
0.00707579
0.00707695
0.00707801
0.00707888
0.00707946
0.00707975
0.00707983
0.00708144
0.0147394
0.0147545
0.0147547
0.0147547
0.0147547
0.0147547
0.0147547
0.0147546
0.0147546
0.0147547
0.0147547
0.0147548
0.0147549
0.014755
0.0147551
0.0147551
0.0147551
0.0147551
0.0147551
0.0147551
0.0147551
0.0147552
0.0147552
0.0147553
0.0147554
0.0147556
0.0147558
0.014756
0.0147562
0.0147565
0.0147568
0.0147571
0.0147576
0.0147581
0.0147587
0.0147594
0.0147603
0.0147613
0.0147624
0.0147638
0.0147654
0.0147671
0.0147692
0.0147714
0.0147738
0.0147765
0.0147793
0.0147824
0.0147856
0.014789
0.0147925
0.0147961
0.0147998
0.0148035
0.0148071
0.0148107
0.0148143
0.0148177
0.014821
0.0148243
0.0148275
0.0148307
0.014834
0.0148373
0.0148408
0.0148444
0.0148479
0.0148515
0.0148551
0.0148588
0.0148625
0.0148662
0.0148698
0.0148734
0.014877
0.0148805
0.0148838
0.0148871
0.0148903
0.0148933
0.0148962
0.0148988
0.0149013
0.0149034
0.0149054
0.0149071
0.0149086
0.01491
0.0149113
0.0149125
0.0149135
0.0149143
0.0149152
0.0149161
0.0149172
0.0149181
0.0149189
0.0149193
0.0149202
0.0149267
0.0276816
0.0278059
0.0278063
0.0278063
0.0278063
0.0278064
0.0278064
0.0278064
0.0278064
0.0278064
0.0278064
0.0278065
0.0278065
0.0278065
0.0278066
0.0278067
0.0278068
0.0278069
0.0278071
0.0278073
0.0278075
0.0278078
0.0278082
0.0278086
0.0278091
0.0278097
0.0278103
0.027811
0.0278118
0.0278127
0.0278135
0.0278145
0.0278155
0.0278165
0.0278175
0.0278185
0.0278196
0.0278207
0.0278218
0.027823
0.0278242
0.0278255
0.0278267
0.027828
0.0278293
0.0278305
0.0278318
0.0278332
0.0278346
0.0278362
0.0278378
0.0278396
0.0278416
0.0278436
0.0278458
0.0278479
0.0278501
0.0278522
0.0278544
0.0278566
0.0278587
0.0278608
0.0278628
0.0278648
0.0278667
0.0278686
0.0278704
0.0278721
0.0278737
0.0278754
0.027877
0.0278786
0.0278803
0.0278821
0.0278839
0.0278857
0.0278876
0.0278896
0.0278915
0.0278935
0.0278954
0.0278972
0.027899
0.0279006
0.0279021
0.0279034
0.0279046
0.0279057
0.0279066
0.0279073
0.0279078
0.0279083
0.0279086
0.0279088
0.027909
0.0279091
0.0279091
0.0279092
0.0279088
0.0278257
0.0422471
0.0424701
0.0424707
0.0424707
0.0424707
0.0424707
0.0424706
0.0424706
0.0424706
0.0424706
0.0424705
0.0424705
0.0424705
0.0424704
0.0424704
0.0424704
0.0424703
0.0424703
0.0424703
0.0424703
0.0424703
0.0424704
0.0424705
0.0424707
0.0424709
0.0424711
0.0424713
0.0424716
0.0424718
0.0424721
0.0424725
0.0424728
0.0424731
0.0424735
0.0424738
0.042474
0.0424743
0.0424745
0.0424748
0.042475
0.0424752
0.0424754
0.0424756
0.0424758
0.0424759
0.042476
0.0424762
0.0424763
0.0424765
0.0424767
0.042477
0.0424774
0.0424779
0.0424785
0.0424792
0.0424801
0.042481
0.0424819
0.0424828
0.0424838
0.0424847
0.0424857
0.0424867
0.0424877
0.0424887
0.0424897
0.0424908
0.0424919
0.042493
0.0424942
0.0424955
0.042497
0.0424985
0.0425001
0.0425017
0.0425034
0.0425052
0.042507
0.0425089
0.0425108
0.0425127
0.0425145
0.0425162
0.0425178
0.0425192
0.0425205
0.0425216
0.0425226
0.0425235
0.0425242
0.0425248
0.0425254
0.0425258
0.0425261
0.0425264
0.0425267
0.0425269
0.0425271
0.0425262
0.0423438
0.0524692
0.0526702
0.0526705
0.0526706
0.0526704
0.0526702
0.05267
0.0526699
0.0526697
0.0526694
0.0526692
0.052669
0.0526687
0.0526684
0.0526681
0.0526678
0.0526674
0.052667
0.0526666
0.0526662
0.0526657
0.0526651
0.0526646
0.052664
0.0526633
0.0526626
0.0526618
0.0526611
0.0526603
0.0526594
0.0526586
0.0526577
0.0526569
0.0526561
0.0526552
0.0526544
0.0526537
0.052653
0.0526525
0.0526519
0.0526515
0.0526512
0.0526509
0.0526507
0.0526505
0.0526504
0.0526503
0.0526502
0.0526501
0.05265
0.0526499
0.05265
0.0526501
0.0526504
0.0526507
0.0526511
0.0526514
0.0526517
0.052652
0.0526524
0.0526528
0.0526534
0.0526541
0.0526551
0.0526563
0.0526578
0.0526596
0.0526616
0.0526638
0.0526662
0.0526688
0.0526714
0.052674
0.0526767
0.0526797
0.0526828
0.0526861
0.0526893
0.0526924
0.0526954
0.0526981
0.0527007
0.0527031
0.0527053
0.0527074
0.0527092
0.0527108
0.0527122
0.0527134
0.0527145
0.0527154
0.0527162
0.0527168
0.0527173
0.0527176
0.052718
0.0527182
0.0527189
0.0527187
0.0525187
0.0556633
0.0558024
0.0558032
0.0558032
0.055803
0.0558029
0.0558027
0.0558025
0.0558023
0.055802
0.0558018
0.0558015
0.0558012
0.0558009
0.0558005
0.0558001
0.0557996
0.0557992
0.0557986
0.0557981
0.0557975