/*--------------------------------*- C++ -*----------------------------------*\
| =========                 |                                                 |
| \\      /  F ield         | OpenFOAM: The Open Source CFD Toolbox           |
|  \\    /   O peration     | Version:  2406                                  |
|   \\  /    A nd           | Website:  www.openfoam.com                      |
|    \\/     M anipulation  |                                                 |
\*---------------------------------------------------------------------------*/
FoamFile
{
    version     2.0;
    format      ascii;
    arch        "LSB;label=32;scalar=64";
    class       volVectorField;
    location    "0.012";
    object      U;
}
// * * * * * * * * * * * * * * * * * * * * * * * * * * * * * * * * * * * * * //

dimensions      [0 1 -1 0 0 0 0];

internalField   nonuniform List<vector> 
81000
(
(0.251369 0.356141 0)
(0.251324 0.35602 0)
(0.251323 0.355875 0)
(0.251321 0.355649 0)
(0.251317 0.355365 0)
(0.251311 0.355052 0)
(0.251306 0.354742 0)
(0.251302 0.354461 0)
(0.251301 0.354222 0)
(0.251302 0.35403 0)
(0.251305 0.353882 0)
(0.251309 0.35377 0)
(0.251314 0.353683 0)
(0.25132 0.353616 0)
(0.251324 0.353566 0)
(0.251329 0.353533 0)
(0.251334 0.353515 0)
(0.25134 0.35351 0)
(0.251347 0.353515 0)
(0.251357 0.353532 0)
(0.251371 0.353565 0)
(0.251391 0.353614 0)
(0.251419 0.353677 0)
(0.251452 0.353745 0)
(0.251494 0.353811 0)
(0.251545 0.353862 0)
(0.251608 0.353889 0)
(0.251681 0.353885 0)
(0.251761 0.353851 0)
(0.251847 0.353791 0)
(0.25194 0.35371 0)
(0.25204 0.353609 0)
(0.252145 0.353495 0)
(0.252255 0.35337 0)
(0.252369 0.353236 0)
(0.252487 0.353097 0)
(0.252607 0.352955 0)
(0.252731 0.35281 0)
(0.252857 0.352662 0)
(0.252983 0.352506 0)
(0.253096 0.352331 0)
(0.253185 0.352128 0)
(0.253249 0.351894 0)
(0.253293 0.351624 0)
(0.253322 0.351316 0)
(0.253338 0.350964 0)
(0.253343 0.350563 0)
(0.253338 0.350106 0)
(0.253322 0.349588 0)
(0.253293 0.349003 0)
(0.253251 0.348347 0)
(0.253191 0.347615 0)
(0.253113 0.346803 0)
(0.253014 0.345908 0)
(0.252891 0.344927 0)
(0.252742 0.34386 0)
(0.252567 0.342707 0)
(0.252364 0.341467 0)
(0.252133 0.340143 0)
(0.251872 0.338738 0)
(0.251581 0.337257 0)
(0.251259 0.335705 0)
(0.250905 0.334092 0)
(0.250516 0.332426 0)
(0.250091 0.33072 0)
(0.24963 0.328985 0)
(0.24913 0.327233 0)
(0.248595 0.325478 0)
(0.24803 0.323728 0)
(0.247449 0.321989 0)
(0.246874 0.320265 0)
(0.246333 0.318556 0)
(0.245853 0.316862 0)
(0.245449 0.315187 0)
(0.245125 0.31354 0)
(0.244872 0.31193 0)
(0.244678 0.310368 0)
(0.24453 0.308868 0)
(0.244417 0.307441 0)
(0.244331 0.306105 0)
(0.244265 0.304876 0)
(0.244214 0.30377 0)
(0.244175 0.3028 0)
(0.244144 0.301972 0)
(0.244119 0.301291 0)
(0.244099 0.300753 0)
(0.244086 0.30035 0)
(0.244078 0.30007 0)
(0.244073 0.299895 0)
(0.24407 0.299801 0)
(0.244069 0.299764 0)
(0.244068 0.299756 0)
(0.244068 0.299776 0)
(0.244068 0.299868 0)
(0.244069 0.300083 0)
(0.244072 0.300434 0)
(0.244077 0.300865 0)
(0.244082 0.301271 0)
(0.244087 0.301551 0)
(0.244125 0.301711 0)
(0.274573 1.06785 0)
(0.274515 1.06751 0)
(0.27452 1.06727 0)
(0.274529 1.06692 0)
(0.274541 1.06653 0)
(0.274558 1.06615 0)
(0.274582 1.06583 0)
(0.27461 1.06558 0)
(0.274641 1.06541 0)
(0.274672 1.0653 0)
(0.274701 1.06524 0)
(0.274729 1.06521 0)
(0.274757 1.0652 0)
(0.274784 1.06521 0)
(0.274811 1.06524 0)
(0.274839 1.06529 0)
(0.27487 1.06536 0)
(0.274906 1.06545 0)
(0.274945 1.06556 0)
(0.274988 1.06568 0)
(0.275036 1.06582 0)
(0.275087 1.06595 0)
(0.275144 1.06608 0)
(0.275208 1.06621 0)
(0.275281 1.06632 0)
(0.275365 1.06641 0)
(0.275463 1.06649 0)
(0.275571 1.06654 0)
(0.275686 1.06658 0)
(0.275806 1.0666 0)
(0.275926 1.06662 0)
(0.276043 1.06664 0)
(0.276154 1.06666 0)
(0.276256 1.06668 0)
(0.276346 1.0667 0)
(0.276426 1.06672 0)
(0.276494 1.06673 0)
(0.276552 1.06672 0)
(0.276601 1.06671 0)
(0.27664 1.06667 0)
(0.276667 1.06661 0)
(0.276686 1.06654 0)
(0.276699 1.06644 0)
(0.276705 1.06632 0)
(0.276706 1.06616 0)
(0.276702 1.06597 0)
(0.276691 1.06573 0)
(0.276671 1.06543 0)
(0.276638 1.06508 0)
(0.276589 1.06466 0)
(0.27652 1.06417 0)
(0.276427 1.06359 0)
(0.276306 1.06292 0)
(0.276155 1.06217 0)
(0.275973 1.06131 0)
(0.275759 1.06037 0)
(0.275509 1.05933 0)
(0.275223 1.05821 0)
(0.274894 1.05703 0)
(0.274519 1.05578 0)
(0.274089 1.05449 0)
(0.273599 1.05318 0)
(0.273038 1.05185 0)
(0.2724 1.05053 0)
(0.271677 1.04923 0)
(0.270873 1.04795 0)
(0.269995 1.0467 0)
(0.269067 1.04547 0)
(0.268117 1.04425 0)
(0.267179 1.04302 0)
(0.266287 1.04176 0)
(0.265475 1.04046 0)
(0.264768 1.03912 0)
(0.264179 1.03774 0)
(0.263705 1.03632 0)
(0.263329 1.03489 0)
(0.263032 1.03347 0)
(0.262795 1.03209 0)
(0.262605 1.03078 0)
(0.262449 1.02958 0)
(0.262318 1.02855 0)
(0.262205 1.02771 0)
(0.262107 1.0271 0)
(0.262026 1.02672 0)
(0.261964 1.02651 0)
(0.261918 1.02643 0)
(0.261878 1.02642 0)
(0.261848 1.02646 0)
(0.26181 1.02656 0)
(0.261765 1.02675 0)
(0.261711 1.02708 0)
(0.26165 1.02758 0)
(0.261582 1.0283 0)
(0.261513 1.02926 0)
(0.261451 1.03048 0)
(0.261404 1.03187 0)
(0.261375 1.03329 0)
(0.261362 1.03455 0)
(0.26136 1.03542 0)
(0.261422 1.03604 0)
(0.73023 1.10947 0)
(0.729983 1.10908 0)
(0.729989 1.10901 0)
(0.729996 1.10885 0)
(0.730004 1.10861 0)
(0.730011 1.10836 0)
(0.730017 1.10816 0)
(0.730021 1.10805 0)
(0.730024 1.10801 0)
(0.730026 1.108 0)
(0.730026 1.10801 0)
(0.730027 1.10804 0)
(0.730028 1.10809 0)
(0.730027 1.10816 0)
(0.730026 1.10826 0)
(0.730025 1.10838 0)
(0.730025 1.10853 0)
(0.730025 1.10869 0)
(0.730026 1.10887 0)
(0.730029 1.10906 0)
(0.730034 1.10925 0)
(0.730043 1.10944 0)
(0.730057 1.10961 0)
(0.73008 1.10977 0)
(0.730117 1.10991 0)
(0.730177 1.11003 0)
(0.730266 1.11013 0)
(0.730378 1.11021 0)
(0.730507 1.11028 0)
(0.730651 1.11034 0)
(0.730808 1.1104 0)
(0.730981 1.11044 0)
(0.731172 1.11045 0)
(0.73138 1.11042 0)
(0.731605 1.11036 0)
(0.731849 1.11025 0)
(0.732113 1.1101 0)
(0.732397 1.1099 0)
(0.732701 1.10965 0)
(0.733027 1.10932 0)
(0.733376 1.10893 0)
(0.73375 1.10845 0)
(0.734152 1.10788 0)
(0.734585 1.1072 0)
(0.73505 1.10642 0)
(0.735549 1.10552 0)
(0.736085 1.10448 0)
(0.73666 1.1033 0)
(0.737276 1.10197 0)
(0.737937 1.10049 0)
(0.738643 1.09885 0)
(0.739398 1.09706 0)
(0.740203 1.09514 0)
(0.741061 1.09311 0)
(0.741976 1.091 0)
(0.74295 1.08885 0)
(0.743985 1.08671 0)
(0.74508 1.08462 0)
(0.746234 1.08265 0)
(0.74744 1.08086 0)
(0.74869 1.07929 0)
(0.749966 1.078 0)
(0.751254 1.07703 0)
(0.752538 1.07641 0)
(0.753801 1.07615 0)
(0.755013 1.07628 0)
(0.756145 1.07675 0)
(0.757195 1.07748 0)
(0.758189 1.07838 0)
(0.759154 1.07939 0)
(0.760117 1.08044 0)
(0.761086 1.08148 0)
(0.762062 1.08249 0)
(0.763027 1.08345 0)
(0.763966 1.08439 0)
(0.764852 1.08533 0)
(0.76568 1.08631 0)
(0.766436 1.08736 0)
(0.76712 1.08852 0)
(0.767726 1.08981 0)
(0.768229 1.09128 0)
(0.768607 1.09293 0)
(0.768903 1.09478 0)
(0.769145 1.09682 0)
(0.769349 1.09909 0)
(0.769522 1.10156 0)
(0.769669 1.10427 0)
(0.769796 1.10715 0)
(0.769909 1.1102 0)
(0.770015 1.11336 0)
(0.770123 1.11664 0)
(0.770241 1.11999 0)
(0.77038 1.12345 0)
(0.770533 1.12703 0)
(0.770648 1.13074 0)
(0.770709 1.13451 0)
(0.770732 1.13817 0)
(0.770734 1.14133 0)
(0.770727 1.14358 0)
(0.771026 1.14505 0)
(2.05614 1.20132 0)
(2.05524 1.20031 0)
(2.0552 1.19931 0)
(2.05514 1.19813 0)
(2.05508 1.19703 0)
(2.05502 1.19617 0)
(2.05495 1.19553 0)
(2.0549 1.19508 0)
(2.05486 1.19474 0)
(2.05483 1.19449 0)
(2.05481 1.19429 0)
(2.05479 1.19414 0)
(2.05478 1.19403 0)
(2.05477 1.19397 0)
(2.05476 1.19394 0)
(2.05476 1.19394 0)
(2.05475 1.19394 0)
(2.05475 1.19397 0)
(2.05474 1.19404 0)
(2.05473 1.19416 0)
(2.05473 1.19432 0)
(2.05473 1.19451 0)
(2.05474 1.19473 0)
(2.05476 1.19496 0)
(2.05479 1.19519 0)
(2.05483 1.19543 0)
(2.05488 1.19567 0)
(2.05495 1.19592 0)
(2.05506 1.19616 0)
(2.05519 1.19641 0)
(2.05534 1.19666 0)
(2.05552 1.19693 0)
(2.05573 1.1972 0)
(2.05597 1.19748 0)
(2.05625 1.19778 0)
(2.05657 1.19809 0)
(2.05692 1.19844 0)
(2.05732 1.19882 0)
(2.05775 1.19923 0)
(2.05822 1.19969 0)
(2.05874 1.20017 0)
(2.05931 1.20068 0)
(2.05992 1.20118 0)
(2.06059 1.20167 0)
(2.06132 1.20212 0)
(2.06212 1.2025 0)
(2.063 1.20279 0)
(2.06395 1.20299 0)
(2.06497 1.20314 0)
(2.06606 1.20329 0)
(2.0672 1.20349 0)
(2.0684 1.20377 0)
(2.06967 1.2041 0)
(2.07101 1.2044 0)
(2.07245 1.2046 0)
(2.07399 1.2046 0)
(2.07561 1.20437 0)
(2.07731 1.20387 0)
(2.07908 1.2031 0)
(2.08091 1.20207 0)
(2.08278 1.20077 0)
(2.08468 1.19925 0)
(2.08663 1.19753 0)
(2.0886 1.19569 0)
(2.09059 1.19376 0)
(2.09261 1.19183 0)
(2.09464 1.18995 0)
(2.09667 1.18817 0)
(2.0987 1.18653 0)
(2.1007 1.18507 0)
(2.10267 1.1838 0)
(2.10458 1.18269 0)
(2.10642 1.18176 0)
(2.10819 1.181 0)
(2.10989 1.1804 0)
(2.11149 1.17996 0)
(2.11301 1.17964 0)
(2.11442 1.1794 0)
(2.11574 1.17923 0)
(2.11697 1.17908 0)
(2.1181 1.17893 0)
(2.11915 1.17877 0)
(2.12012 1.1786 0)
(2.121 1.17844 0)
(2.12182 1.17829 0)
(2.12256 1.1782 0)
(2.12322 1.17818 0)
(2.1238 1.17827 0)
(2.12428 1.17853 0)
(2.12464 1.17895 0)
(2.12488 1.17948 0)
(2.12506 1.18009 0)
(2.12519 1.18075 0)
(2.12528 1.18147 0)
(2.12537 1.18226 0)
(2.1254 1.18317 0)
(2.12545 1.18418 0)
(2.12547 1.18522 0)
(2.12548 1.18608 0)
(2.1262 1.18693 0)
(4.88997 1.45136 0)
(4.88721 1.44988 0)
(4.88728 1.44866 0)
(4.88741 1.44729 0)
(4.88755 1.44617 0)
(4.8877 1.4454 0)
(4.88772 1.4449 0)
(4.88782 1.44458 0)
(4.88781 1.44433 0)
(4.88783 1.44412 0)
(4.88786 1.44394 0)
(4.88788 1.44382 0)
(4.8879 1.44374 0)
(4.88792 1.44371 0)
(4.88795 1.44371 0)
(4.88797 1.44374 0)
(4.888 1.44383 0)
(4.88804 1.44398 0)
(4.88808 1.4442 0)
(4.88814 1.44449 0)
(4.8882 1.44483 0)
(4.88828 1.44523 0)
(4.88836 1.44568 0)
(4.88845 1.44619 0)
(4.88856 1.44675 0)
(4.88869 1.44735 0)
(4.88883 1.448 0)
(4.88898 1.44868 0)
(4.88915 1.44939 0)
(4.88933 1.45013 0)
(4.88952 1.45088 0)
(4.88973 1.45165 0)
(4.88994 1.45241 0)
(4.89017 1.45316 0)
(4.89041 1.45389 0)
(4.89067 1.45458 0)
(4.89094 1.45523 0)
(4.89123 1.45583 0)
(4.89157 1.45637 0)
(4.89196 1.45686 0)
(4.89242 1.45728 0)
(4.89296 1.45763 0)
(4.89356 1.45793 0)
(4.89424 1.45819 0)
(4.89499 1.45841 0)
(4.8958 1.45857 0)
(4.89669 1.45863 0)
(4.89764 1.45854 0)
(4.89864 1.45823 0)
(4.89969 1.45769 0)
(4.90077 1.45689 0)
(4.90189 1.45586 0)
(4.90303 1.45463 0)
(4.9042 1.45322 0)
(4.90538 1.4517 0)
(4.9066 1.45014 0)
(4.90784 1.44865 0)
(4.9091 1.44728 0)
(4.91038 1.4461 0)
(4.91168 1.44516 0)
(4.91299 1.44448 0)
(4.91432 1.4441 0)
(4.91566 1.44402 0)
(4.91701 1.44422 0)
(4.91836 1.44469 0)
(4.91971 1.44541 0)
(4.92108 1.44637 0)
(4.92246 1.44753 0)
(4.92384 1.44887 0)
(4.92523 1.45035 0)
(4.92662 1.45192 0)
(4.928 1.45354 0)
(4.92936 1.45517 0)
(4.93071 1.4568 0)
(4.93203 1.45839 0)
(4.93333 1.45992 0)
(4.93459 1.46136 0)
(4.93582 1.4627 0)
(4.937 1.46392 0)
(4.93812 1.46502 0)
(4.93917 1.46598 0)
(4.94014 1.46681 0)
(4.94103 1.4675 0)
(4.94184 1.46805 0)
(4.9426 1.46845 0)
(4.94329 1.4687 0)
(4.94393 1.46885 0)
(4.94449 1.46894 0)
(4.94497 1.46908 0)
(4.94534 1.46934 0)
(4.9456 1.46971 0)
(4.94577 1.47013 0)
(4.94588 1.47055 0)
(4.94595 1.47092 0)
(4.946 1.47118 0)
(4.94604 1.47133 0)
(4.94606 1.47139 0)
(4.94607 1.47141 0)
(4.94611 1.47123 0)
(4.94692 1.44775 0)
(9.33713 1.77097 0)
(9.38272 1.76573 0)
(9.38282 1.76545 0)
(9.38283 1.76545 0)
(9.38283 1.76545 0)
(9.38283 1.76545 0)
(9.38283 1.76545 0)
(9.38284 1.76544 0)
(9.38284 1.76543 0)
(9.38285 1.76541 0)
(9.38286 1.76538 0)
(9.38287 1.76533 0)
(9.38289 1.76525 0)
(9.3829 1.76515 0)
(9.38292 1.76502 0)
(9.38295 1.76485 0)
(9.38298 1.76465 0)
(9.38301 1.76439 0)
(9.38306 1.76409 0)
(9.38311 1.76373 0)
(9.38317 1.7633 0)
(9.38323 1.7628 0)
(9.38331 1.76223 0)
(9.3834 1.76158 0)
(9.3835 1.76085 0)
(9.38361 1.76005 0)
(9.38373 1.75918 0)
(9.38386 1.75826 0)
(9.384 1.75728 0)
(9.38415 1.75627 0)
(9.3843 1.75525 0)
(9.38447 1.75423 0)
(9.38464 1.75323 0)
(9.38482 1.75228 0)
(9.38501 1.75141 0)
(9.38521 1.75063 0)
(9.38541 1.74997 0)
(9.38562 1.74946 0)
(9.38586 1.74908 0)
(9.3861 1.74884 0)
(9.38638 1.74871 0)
(9.38668 1.74872 0)
(9.38701 1.74886 0)
(9.38737 1.74915 0)
(9.38775 1.74956 0)
(9.38816 1.7501 0)
(9.3886 1.75074 0)
(9.38908 1.75144 0)
(9.38959 1.75219 0)
(9.39013 1.75295 0)
(9.39071 1.75368 0)
(9.39131 1.75436 0)
(9.39195 1.75497 0)
(9.39262 1.75549 0)
(9.39331 1.75595 0)
(9.39399 1.75639 0)
(9.39464 1.75684 0)
(9.39527 1.75729 0)
(9.39589 1.75768 0)
(9.39652 1.75797 0)
(9.39717 1.7581 0)
(9.39783 1.75808 0)
(9.39848 1.75789 0)
(9.39911 1.75753 0)
(9.39971 1.75702 0)
(9.4003 1.7564 0)
(9.40089 1.7557 0)
(9.40147 1.75497 0)
(9.40207 1.75425 0)
(9.40267 1.75358 0)
(9.40328 1.75299 0)
(9.40393 1.75257 0)
(9.40462 1.75236 0)
(9.40532 1.75235 0)
(9.40603 1.75253 0)
(9.40676 1.75287 0)
(9.40749 1.75336 0)
(9.40823 1.75396 0)
(9.40898 1.75465 0)
(9.40971 1.7554 0)
(9.41042 1.75616 0)
(9.4111 1.75692 0)
(9.41174 1.75766 0)
(9.41235 1.75836 0)
(9.4129 1.75903 0)
(9.41338 1.75966 0)
(9.41379 1.76025 0)
(9.41412 1.76081 0)
(9.41437 1.76132 0)
(9.41457 1.76177 0)
(9.41472 1.76216 0)
(9.41483 1.76247 0)
(9.41491 1.7627 0)
(9.41496 1.76286 0)
(9.41499 1.76297 0)
(9.41501 1.76303 0)
(9.41502 1.76306 0)
(9.41503 1.76307 0)
(9.41495 1.76313 0)
(9.38498 1.75758 0)
(14.3677 1.9427 0)
(14.4492 1.92253 0)
(14.4494 1.92219 0)
(14.4494 1.92217 0)
(14.4493 1.92217 0)
(14.4493 1.92217 0)
(14.4493 1.92216 0)
(14.4493 1.92214 0)
(14.4493 1.9221 0)
(14.4493 1.92205 0)
(14.4493 1.92197 0)
(14.4493 1.92186 0)
(14.4493 1.9217 0)
(14.4492 1.92149 0)
(14.4492 1.92123 0)
(14.4492 1.92089 0)
(14.4491 1.92049 0)
(14.4491 1.92 0)
(14.449 1.91943 0)
(14.449 1.91876 0)
(14.449 1.91801 0)
(14.4489 1.91716 0)
(14.4489 1.91622 0)
(14.4489 1.9152 0)
(14.4489 1.91411 0)
(14.4488 1.91294 0)
(14.4488 1.91172 0)
(14.4488 1.91046 0)
(14.4488 1.90917 0)
(14.4488 1.90788 0)
(14.4488 1.9066 0)
(14.4488 1.90536 0)
(14.4488 1.90418 0)
(14.4488 1.90308 0)
(14.4488 1.90208 0)
(14.4489 1.90118 0)
(14.4489 1.90038 0)
(14.4489 1.89973 0)
(14.449 1.89929 0)
(14.449 1.8991 0)
(14.449 1.89907 0)
(14.4491 1.89912 0)
(14.4491 1.89926 0)
(14.4492 1.89952 0)
(14.4493 1.89987 0)
(14.4493 1.90031 0)
(14.4494 1.9008 0)
(14.4495 1.90131 0)
(14.4496 1.90181 0)
(14.4497 1.90228 0)
(14.4498 1.90269 0)
(14.4499 1.90302 0)
(14.4501 1.90328 0)
(14.4503 1.90345 0)
(14.4505 1.90356 0)
(14.4508 1.90363 0)
(14.4511 1.90371 0)
(14.4513 1.90382 0)
(14.4516 1.90394 0)
(14.4518 1.90403 0)
(14.4521 1.90408 0)
(14.4523 1.90408 0)
(14.4526 1.90402 0)
(14.4528 1.90392 0)
(14.4531 1.90381 0)
(14.4534 1.90369 0)
(14.4538 1.90361 0)
(14.4542 1.90355 0)
(14.4546 1.90358 0)
(14.4551 1.90377 0)
(14.4557 1.90413 0)
(14.4563 1.90468 0)
(14.457 1.90542 0)
(14.4578 1.90634 0)
(14.4586 1.90743 0)
(14.4594 1.90866 0)
(14.4602 1.90999 0)
(14.4611 1.91139 0)
(14.462 1.91282 0)
(14.4628 1.91425 0)
(14.4636 1.91566 0)
(14.4644 1.91701 0)
(14.4651 1.91827 0)
(14.4658 1.91943 0)
(14.4664 1.92046 0)
(14.467 1.92136 0)
(14.4675 1.92211 0)
(14.4679 1.92273 0)
(14.4683 1.92321 0)
(14.4686 1.92357 0)
(14.4689 1.92381 0)
(14.4691 1.92395 0)
(14.4693 1.92401 0)
(14.4695 1.924 0)
(14.4696 1.92395 0)
(14.4697 1.92389 0)
(14.4697 1.92383 0)
(14.4698 1.92378 0)
(14.4693 1.9235 0)
(14.4019 1.96317 0)
(17.9058 1.91426 0)
(17.977 1.90807 0)
(17.9773 1.90936 0)
(17.9773 1.90958 0)
(17.9772 1.90961 0)
(17.9771 1.90965 0)
(17.9771 1.90966 0)
(17.977 1.90965 0)
(17.977 1.90963 0)
(17.9769 1.9096 0)
(17.9768 1.90955 0)
(17.9768 1.90948 0)
(17.9767 1.9094 0)
(17.9766 1.90929 0)
(17.9765 1.90915 0)
(17.9764 1.90899 0)
(17.9763 1.9088 0)
(17.9763 1.90858 0)
(17.9762 1.90832 0)
(17.9761 1.90804 0)
(17.976 1.90774 0)
(17.9758 1.90741 0)
(17.9757 1.90706 0)
(17.9756 1.9067 0)
(17.9755 1.90633 0)
(17.9754 1.90597 0)
(17.9753 1.90562 0)
(17.9751 1.90528 0)
(17.975 1.90497 0)
(17.9749 1.9047 0)
(17.9748 1.90446 0)
(17.9747 1.90427 0)
(17.9746 1.90412 0)
(17.9746 1.90403 0)
(17.9745 1.90399 0)
(17.9745 1.904 0)
(17.9746 1.90404 0)
(17.9746 1.9041 0)
(17.9746 1.90419 0)
(17.9747 1.90429 0)
(17.9748 1.9044 0)
(17.9749 1.90451 0)
(17.9749 1.90462 0)
(17.975 1.90471 0)
(17.9751 1.90477 0)
(17.9752 1.90479 0)
(17.9753 1.90475 0)
(17.9754 1.90464 0)
(17.9754 1.90444 0)
(17.9755 1.90417 0)
(17.9756 1.90383 0)
(17.9757 1.90343 0)
(17.9757 1.903 0)
(17.9758 1.90254 0)
(17.9759 1.90203 0)
(17.976 1.90148 0)
(17.976 1.90083 0)
(17.9761 1.90007 0)
(17.9761 1.89917 0)
(17.9761 1.89814 0)
(17.9762 1.89695 0)
(17.9762 1.89563 0)
(17.9763 1.89418 0)
(17.9764 1.89265 0)
(17.9766 1.89104 0)
(17.9769 1.88941 0)
(17.9773 1.88778 0)
(17.9778 1.88619 0)
(17.9783 1.88468 0)
(17.9791 1.88325 0)
(17.9799 1.88194 0)
(17.9808 1.88074 0)
(17.9818 1.87967 0)
(17.9829 1.87871 0)
(17.9841 1.87786 0)
(17.9853 1.87713 0)
(17.9865 1.87653 0)
(17.9877 1.87608 0)
(17.9889 1.87576 0)
(17.9901 1.87555 0)
(17.9911 1.87544 0)
(17.9922 1.8754 0)
(17.9931 1.87542 0)
(17.994 1.87546 0)
(17.9947 1.87553 0)
(17.9954 1.87561 0)
(17.9961 1.87568 0)
(17.9966 1.87574 0)
(17.9971 1.87576 0)
(17.9975 1.87576 0)
(17.9978 1.87571 0)
(17.9981 1.8756 0)
(17.9984 1.87546 0)
(17.9986 1.87527 0)
(17.9987 1.87507 0)
(17.9988 1.87487 0)
(17.9989 1.87468 0)
(17.9991 1.87452 0)
(17.9985 1.87387 0)
(17.928 1.91241 0)
(19.0619 1.41659 0)
(19.1083 1.41419 0)
(19.1084 1.41501 0)
(19.1084 1.41521 0)
(19.1083 1.41526 0)
(19.1082 1.41534 0)
(19.1082 1.41542 0)
(19.1081 1.4155 0)
(19.108 1.41558 0)
(19.1079 1.41568 0)
(19.1079 1.41578 0)
(19.1078 1.4159 0)
(19.1077 1.41602 0)
(19.1075 1.41616 0)
(19.1074 1.41631 0)
(19.1073 1.41648 0)
(19.1072 1.41665 0)
(19.107 1.41684 0)
(19.1069 1.41704 0)
(19.1067 1.41725 0)
(19.1065 1.41748 0)
(19.1064 1.41771 0)
(19.1062 1.41796 0)
(19.106 1.41821 0)
(19.1058 1.41847 0)
(19.1056 1.41874 0)
(19.1054 1.41902 0)
(19.1052 1.41931 0)
(19.105 1.4196 0)
(19.1048 1.41989 0)
(19.1047 1.42019 0)
(19.1045 1.42047 0)
(19.1043 1.42075 0)
(19.1041 1.42101 0)
(19.1039 1.42125 0)
(19.1038 1.42146 0)
(19.1036 1.42162 0)
(19.1035 1.42174 0)
(19.1033 1.4218 0)
(19.1032 1.4218 0)
(19.1031 1.42174 0)
(19.103 1.42161 0)
(19.1029 1.42141 0)
(19.1028 1.42114 0)
(19.1027 1.42081 0)
(19.1027 1.42041 0)
(19.1026 1.41995 0)
(19.1025 1.41944 0)
(19.1025 1.41887 0)
(19.1024 1.41825 0)
(19.1024 1.4176 0)
(19.1023 1.41692 0)
(19.1023 1.41621 0)
(19.1023 1.41546 0)
(19.1023 1.41468 0)
(19.1023 1.41386 0)
(19.1024 1.413 0)
(19.1025 1.4121 0)
(19.1026 1.41117 0)
(19.1027 1.4102 0)
(19.1029 1.40919 0)
(19.1031 1.40813 0)
(19.1033 1.40702 0)
(19.1036 1.40586 0)
(19.1039 1.40463 0)
(19.1043 1.40334 0)
(19.1047 1.402 0)
(19.1052 1.40062 0)
(19.1058 1.39921 0)
(19.1064 1.3978 0)
(19.1071 1.39638 0)
(19.1078 1.39499 0)
(19.1085 1.39361 0)
(19.1092 1.39221 0)
(19.1099 1.39082 0)
(19.1105 1.38943 0)
(19.1112 1.38805 0)
(19.1119 1.38671 0)
(19.1126 1.38541 0)
(19.1132 1.38416 0)
(19.1138 1.38296 0)
(19.1144 1.38182 0)
(19.1149 1.38074 0)
(19.1153 1.37975 0)
(19.1158 1.37883 0)
(19.1162 1.37801 0)
(19.1165 1.37729 0)
(19.1168 1.37666 0)
(19.1171 1.37612 0)
(19.1173 1.37565 0)
(19.1175 1.37525 0)
(19.1176 1.37491 0)
(19.1177 1.37462 0)
(19.1178 1.37437 0)
(19.1179 1.37416 0)
(19.1179 1.37399 0)
(19.1179 1.37383 0)
(19.118 1.37372 0)
(19.1179 1.37321 0)
(19.0782 1.38149 0)
(18.6005 0.285179 0)
(18.6255 0.271365 0)
(18.6256 0.271507 0)
(18.6256 0.271536 0)
(18.6256 0.271576 0)
(18.6256 0.271628 0)
(18.6255 0.271691 0)
(18.6255 0.271768 0)
(18.6255 0.27186 0)
(18.6254 0.271968 0)
(18.6254 0.272095 0)
(18.6253 0.272244 0)
(18.6253 0.272416 0)
(18.6252 0.272613 0)
(18.6251 0.272838 0)
(18.6251 0.273091 0)
(18.625 0.273376 0)
(18.6249 0.273692 0)
(18.6248 0.274041 0)
(18.6247 0.274423 0)
(18.6247 0.274839 0)
(18.6246 0.275287 0)
(18.6245 0.275765 0)
(18.6244 0.276268 0)
(18.6242 0.276792 0)
(18.6241 0.277332 0)
(18.624 0.277894 0)
(18.6239 0.278473 0)
(18.6238 0.27906 0)
(18.6237 0.279646 0)
(18.6236 0.28022 0)
(18.6235 0.280776 0)
(18.6234 0.281305 0)
(18.6234 0.281794 0)
(18.6233 0.28222 0)
(18.6233 0.282554 0)
(18.6232 0.282766 0)
(18.6232 0.282859 0)
(18.6231 0.282874 0)
(18.6231 0.282853 0)
(18.6231 0.282787 0)
(18.6231 0.282669 0)
(18.623 0.282495 0)
(18.623 0.282261 0)
(18.623 0.281965 0)
(18.6229 0.281602 0)
(18.6229 0.281167 0)
(18.6228 0.28065 0)
(18.6227 0.280036 0)
(18.6227 0.279309 0)
(18.6226 0.278452 0)
(18.6225 0.277447 0)
(18.6225 0.276279 0)
(18.6224 0.274933 0)
(18.6224 0.273401 0)
(18.6223 0.27168 0)
(18.6224 0.269777 0)
(18.6224 0.267708 0)
(18.6225 0.265509 0)
(18.6227 0.263221 0)
(18.6229 0.260874 0)
(18.623 0.258464 0)
(18.6232 0.255991 0)
(18.6235 0.253481 0)
(18.6238 0.250984 0)
(18.6243 0.248547 0)
(18.6248 0.246206 0)
(18.6253 0.243975 0)
(18.6258 0.241862 0)
(18.6264 0.239865 0)
(18.627 0.23798 0)
(18.6275 0.236206 0)
(18.6281 0.234539 0)
(18.6286 0.23298 0)
(18.6291 0.231527 0)
(18.6296 0.23018 0)
(18.6301 0.228937 0)
(18.6306 0.227798 0)
(18.6311 0.226762 0)
(18.6316 0.225825 0)
(18.632 0.224985 0)
(18.6325 0.224239 0)
(18.6329 0.223581 0)
(18.6333 0.223007 0)
(18.6337 0.22251 0)
(18.634 0.222083 0)
(18.6343 0.22172 0)
(18.6346 0.221414 0)
(18.6348 0.221157 0)
(18.635 0.220944 0)
(18.6351 0.220771 0)
(18.6352 0.220633 0)
(18.6353 0.220527 0)
(18.6353 0.220449 0)
(18.6354 0.220395 0)
(18.6354 0.220362 0)
(18.6354 0.220343 0)
(18.6354 0.220334 0)
(18.6354 0.220296 0)
(18.6181 0.23686 0)
(0.251948 0.355794 0)
(0.251838 0.35564 0)
(0.251828 0.355589 0)
(0.251815 0.355465 0)
(0.2518 0.355258 0)
(0.251788 0.354987 0)
(0.251779 0.354695 0)
(0.251775 0.354424 0)
(0.251775 0.354206 0)
(0.251779 0.354051 0)
(0.251782 0.353957 0)
(0.251786 0.353909 0)
(0.251789 0.353892 0)
(0.251791 0.353889 0)
(0.251794 0.353894 0)
(0.251797 0.353917 0)
(0.251804 0.353969 0)
(0.251813 0.354059 0)
(0.251826 0.354188 0)
(0.251842 0.35435 0)
(0.251863 0.354538 0)
(0.25189 0.354741 0)
(0.251922 0.354948 0)
(0.251961 0.355147 0)
(0.252006 0.355329 0)
(0.252058 0.355486 0)
(0.25212 0.355612 0)
(0.252193 0.355705 0)
(0.252277 0.355762 0)
(0.252369 0.355785 0)
(0.252467 0.355779 0)
(0.252569 0.35575 0)
(0.252674 0.355702 0)
(0.252784 0.355639 0)
(0.252898 0.355565 0)
(0.253016 0.355481 0)
(0.253138 0.35539 0)
(0.253264 0.355291 0)
(0.253391 0.355186 0)
(0.253517 0.35507 0)
(0.253631 0.354931 0)
(0.253721 0.354761 0)
(0.253786 0.354557 0)
(0.25383 0.354317 0)
(0.25386 0.354039 0)
(0.253877 0.353718 0)
(0.253883 0.35335 0)
(0.253878 0.352928 0)
(0.253863 0.352447 0)
(0.253835 0.351901 0)
(0.253792 0.351286 0)
(0.253733 0.350595 0)
(0.253655 0.349825 0)
(0.253556 0.34897 0)
(0.253432 0.348028 0)
(0.253284 0.346997 0)
(0.253108 0.345876 0)
(0.252904 0.344665 0)
(0.252672 0.343365 0)
(0.25241 0.341981 0)
(0.252117 0.340516 0)
(0.251794 0.338976 0)
(0.251437 0.337368 0)
(0.251046 0.335701 0)
(0.250618 0.333983 0)
(0.250152 0.332224 0)
(0.249648 0.330434 0)
(0.249108 0.328623 0)
(0.24854 0.326799 0)
(0.247957 0.324968 0)
(0.24738 0.323133 0)
(0.246837 0.321293 0)
(0.246352 0.319449 0)
(0.245943 0.317604 0)
(0.245613 0.315765 0)
(0.245356 0.313943 0)
(0.245158 0.312151 0)
(0.245007 0.310408 0)
(0.244892 0.308731 0)
(0.244802 0.30714 0)
(0.244734 0.305655 0)
(0.24468 0.304295 0)
(0.244639 0.30308 0)
(0.244609 0.302029 0)
(0.244589 0.301152 0)
(0.244574 0.300454 0)
(0.244564 0.299928 0)
(0.244557 0.299563 0)
(0.244553 0.299335 0)
(0.24455 0.299214 0)
(0.244549 0.299167 0)
(0.244548 0.299157 0)
(0.244548 0.299176 0)
(0.244549 0.299263 0)
(0.244551 0.299469 0)
(0.244557 0.299812 0)
(0.244565 0.300243 0)
(0.244575 0.300662 0)
(0.244585 0.300961 0)
(0.244687 0.301208 0)
(0.275343 1.05802 0)
(0.275212 1.05744 0)
(0.275244 1.05737 0)
(0.275274 1.05723 0)
(0.275293 1.05703 0)
(0.275314 1.05677 0)
(0.275337 1.05652 0)
(0.275366 1.05629 0)
(0.275397 1.05612 0)
(0.275428 1.05602 0)
(0.275456 1.05596 0)
(0.275482 1.05595 0)
(0.275508 1.05596 0)
(0.275534 1.056 0)
(0.275562 1.05608 0)
(0.275594 1.0562 0)
(0.275629 1.05635 0)
(0.275668 1.05655 0)
(0.27571 1.05678 0)
(0.275756 1.05702 0)
(0.275804 1.05728 0)
(0.275856 1.05754 0)
(0.275912 1.05779 0)
(0.275974 1.05802 0)
(0.276044 1.05824 0)
(0.276125 1.05843 0)
(0.276219 1.0586 0)
(0.276325 1.05874 0)
(0.276442 1.05886 0)
(0.276563 1.05896 0)
(0.276682 1.05904 0)
(0.276797 1.05911 0)
(0.276903 1.05917 0)
(0.276999 1.05922 0)
(0.277085 1.05927 0)
(0.277161 1.0593 0)
(0.277226 1.05932 0)
(0.27728 1.05934 0)
(0.277327 1.05933 0)
(0.277364 1.05932 0)
(0.277391 1.05928 0)
(0.277409 1.05922 0)
(0.277418 1.05914 0)
(0.277422 1.05904 0)
(0.277419 1.05891 0)
(0.277409 1.05874 0)
(0.277392 1.05854 0)
(0.277364 1.05828 0)
(0.277322 1.05798 0)
(0.277264 1.05762 0)
(0.277184 1.05719 0)
(0.277082 1.05668 0)
(0.276952 1.05611 0)
(0.276793 1.05546 0)
(0.276602 1.05473 0)
(0.276379 1.05391 0)
(0.276121 1.05302 0)
(0.275824 1.05205 0)
(0.275485 1.05099 0)
(0.275097 1.04986 0)
(0.274652 1.04867 0)
(0.274146 1.04741 0)
(0.273572 1.0461 0)
(0.272926 1.04474 0)
(0.272203 1.04333 0)
(0.271404 1.0419 0)
(0.270533 1.04043 0)
(0.269603 1.03894 0)
(0.26864 1.03739 0)
(0.267679 1.03579 0)
(0.266765 1.03412 0)
(0.265941 1.03235 0)
(0.265235 1.03049 0)
(0.264654 1.02855 0)
(0.264189 1.02656 0)
(0.263824 1.02454 0)
(0.263539 1.02253 0)
(0.263318 1.02057 0)
(0.263145 1.0187 0)
(0.263008 1.01697 0)
(0.262896 1.01542 0)
(0.262801 1.0141 0)
(0.262719 1.01303 0)
(0.262648 1.01222 0)
(0.26259 1.01165 0)
(0.262545 1.0113 0)
(0.262511 1.01112 0)
(0.262487 1.01104 0)
(0.262467 1.01103 0)
(0.262447 1.01106 0)
(0.262412 1.01117 0)
(0.262362 1.01143 0)
(0.2623 1.01192 0)
(0.262234 1.01268 0)
(0.262174 1.01369 0)
(0.262126 1.01485 0)
(0.262095 1.01603 0)
(0.262078 1.01701 0)
(0.26207 1.01765 0)
(0.262233 1.01856 0)
(0.729708 1.06909 0)
(0.729228 1.06834 0)
(0.729226 1.06819 0)
(0.729234 1.06796 0)
(0.729243 1.06766 0)
(0.729249 1.06734 0)
(0.729255 1.06703 0)
(0.729259 1.06676 0)
(0.729263 1.06656 0)
(0.729265 1.06643 0)
(0.729266 1.06637 0)
(0.729267 1.06635 0)
(0.729267 1.06635 0)
(0.729268 1.06636 0)
(0.729268 1.06639 0)
(0.729268 1.06646 0)
(0.729269 1.06655 0)
(0.72927 1.06667 0)
(0.729272 1.06682 0)
(0.729277 1.06698 0)
(0.729284 1.06715 0)
(0.729294 1.06733 0)
(0.729311 1.0675 0)
(0.729337 1.06767 0)
(0.729377 1.06783 0)
(0.729439 1.06798 0)
(0.729526 1.06812 0)
(0.729638 1.06824 0)
(0.72977 1.06835 0)
(0.729917 1.06845 0)
(0.730078 1.06855 0)
(0.730252 1.06865 0)
(0.730442 1.06874 0)
(0.73065 1.06881 0)
(0.730877 1.06885 0)
(0.731123 1.06887 0)
(0.731388 1.06887 0)
(0.731673 1.06885 0)
(0.731978 1.0688 0)
(0.732305 1.06874 0)
(0.732656 1.06865 0)
(0.733032 1.06853 0)
(0.733435 1.06839 0)
(0.733869 1.06822 0)
(0.734335 1.06803 0)
(0.734836 1.0678 0)
(0.735375 1.06754 0)
(0.735953 1.06724 0)
(0.736574 1.0669 0)
(0.737238 1.06651 0)
(0.737951 1.06609 0)
(0.738713 1.06562 0)
(0.739528 1.06511 0)
(0.740396 1.06457 0)
(0.741319 1.06401 0)
(0.742298 1.06343 0)
(0.743336 1.06286 0)
(0.744432 1.06233 0)
(0.745588 1.06186 0)
(0.746796 1.06148 0)
(0.748047 1.0612 0)
(0.749327 1.06108 0)
(0.750621 1.06111 0)
(0.751904 1.06132 0)
(0.753152 1.06172 0)
(0.754343 1.06229 0)
(0.755466 1.06299 0)
(0.756527 1.06377 0)
(0.757542 1.06456 0)
(0.75853 1.06529 0)
(0.75951 1.0659 0)
(0.760492 1.06633 0)
(0.761486 1.06654 0)
(0.762472 1.06648 0)
(0.763431 1.06617 0)
(0.764332 1.06564 0)
(0.765157 1.06492 0)
(0.76588 1.06409 0)
(0.766505 1.06322 0)
(0.767023 1.06242 0)
(0.767443 1.06179 0)
(0.767772 1.06138 0)
(0.768037 1.06119 0)
(0.768288 1.06126 0)
(0.768478 1.06158 0)
(0.768654 1.0622 0)
(0.768811 1.06313 0)
(0.768959 1.06441 0)
(0.769093 1.06595 0)
(0.769228 1.06781 0)
(0.769368 1.06987 0)
(0.769528 1.07224 0)
(0.769688 1.07478 0)
(0.769832 1.07756 0)
(0.769934 1.08029 0)
(0.769999 1.08284 0)
(0.770034 1.08481 0)
(0.770052 1.08605 0)
(0.77006 1.08653 0)
(0.770764 1.08758 0)
(2.05629 1.17384 0)
(2.05454 1.17359 0)
(2.05454 1.17352 0)
(2.05452 1.17331 0)
(2.05448 1.17295 0)
(2.05443 1.17251 0)
(2.05438 1.17207 0)
(2.05432 1.17169 0)
(2.05428 1.17141 0)
(2.05424 1.17123 0)
(2.05422 1.17112 0)
(2.0542 1.17107 0)
(2.05418 1.17105 0)
(2.05417 1.17106 0)
(2.05416 1.17107 0)
(2.05415 1.1711 0)
(2.05414 1.17114 0)
(2.05413 1.1712 0)
(2.05413 1.17127 0)
(2.05413 1.17136 0)
(2.05413 1.17146 0)
(2.05415 1.17158 0)
(2.05417 1.17171 0)
(2.05419 1.17183 0)
(2.05423 1.17196 0)
(2.05428 1.17208 0)
(2.05435 1.17219 0)
(2.05443 1.17229 0)
(2.05455 1.17236 0)
(2.05469 1.17242 0)
(2.05486 1.17245 0)
(2.05506 1.17246 0)
(2.05528 1.17245 0)
(2.05554 1.17243 0)
(2.05583 1.17238 0)
(2.05615 1.17231 0)
(2.05652 1.17223 0)
(2.05693 1.17214 0)
(2.05738 1.17205 0)
(2.05788 1.17194 0)
(2.05842 1.17183 0)
(2.05902 1.17171 0)
(2.05966 1.17158 0)
(2.06037 1.17145 0)
(2.06113 1.1713 0)
(2.06195 1.17114 0)
(2.06284 1.17097 0)
(2.06378 1.1708 0)
(2.06479 1.17067 0)
(2.06587 1.1706 0)
(2.06701 1.17064 0)
(2.06822 1.17081 0)
(2.06949 1.17106 0)
(2.07083 1.17136 0)
(2.07226 1.17164 0)
(2.07377 1.17184 0)
(2.07537 1.17194 0)
(2.07704 1.17192 0)
(2.07878 1.17181 0)
(2.08058 1.1716 0)
(2.08242 1.17131 0)
(2.0843 1.17094 0)
(2.08622 1.17051 0)
(2.08815 1.17005 0)
(2.09011 1.16958 0)
(2.09208 1.16914 0)
(2.09405 1.16875 0)
(2.09602 1.16846 0)
(2.09799 1.16826 0)
(2.09993 1.1682 0)
(2.10187 1.16823 0)
(2.10378 1.16835 0)
(2.10564 1.16856 0)
(2.10742 1.16884 0)
(2.10911 1.1692 0)
(2.11071 1.16961 0)
(2.11222 1.17003 0)
(2.11364 1.17045 0)
(2.11496 1.17085 0)
(2.11618 1.1712 0)
(2.11732 1.17148 0)
(2.11837 1.17171 0)
(2.11933 1.17188 0)
(2.1202 1.17201 0)
(2.121 1.17212 0)
(2.12172 1.1722 0)
(2.12236 1.17228 0)
(2.12293 1.17237 0)
(2.12341 1.17256 0)
(2.12377 1.1729 0)
(2.12401 1.17336 0)
(2.12417 1.17391 0)
(2.12428 1.17451 0)
(2.12436 1.17514 0)
(2.12442 1.1758 0)
(2.12446 1.17648 0)
(2.12449 1.1772 0)
(2.1245 1.17793 0)
(2.12451 1.17854 0)
(2.12622 1.17981 0)
(4.88807 1.4029 0)
(4.88638 1.41125 0)
(4.88638 1.41122 0)
(4.88639 1.41111 0)
(4.8864 1.41088 0)
(4.8864 1.4106 0)
(4.8864 1.41032 0)
(4.8864 1.41009 0)
(4.88641 1.40991 0)
(4.88641 1.40978 0)
(4.88642 1.40969 0)
(4.88644 1.40964 0)
(4.88646 1.40961 0)
(4.88649 1.4096 0)
(4.88652 1.4096 0)
(4.88656 1.40961 0)
(4.88661 1.40962 0)
(4.88667 1.40964 0)
(4.88674 1.40967 0)
(4.88681 1.40972 0)
(4.8869 1.40978 0)
(4.88699 1.40987 0)
(4.8871 1.40997 0)
(4.88723 1.41009 0)
(4.88737 1.41024 0)