/*--------------------------------*- C++ -*----------------------------------*\
| =========                 |                                                 |
| \\      /  F ield         | OpenFOAM: The Open Source CFD Toolbox           |
|  \\    /   O peration     | Version:  2406                                  |
|   \\  /    A nd           | Website:  www.openfoam.com                      |
|    \\/     M anipulation  |                                                 |
\*---------------------------------------------------------------------------*/
FoamFile
{
    version     2.0;
    format      ascii;
    arch        "LSB;label=32;scalar=64";
    class       volScalarField;
    location    "0.095";
    object      Ma;
}
// * * * * * * * * * * * * * * * * * * * * * * * * * * * * * * * * * * * * * //

dimensions      [0 0 0 0 0 0 0];

internalField   nonuniform List<scalar> 
13946
(
6.75617e-14
6.57267e-14
6.42109e-14
6.64357e-14
7.1382e-14
6.74075e-14
6.77721e-14
6.64088e-14
6.63313e-14
7.50431e-14
7.24283e-14
8.15587e-14
8.34017e-14
7.81573e-14
7.75326e-14
8.20463e-14
8.27265e-14
9.00858e-14
9.17809e-14
9.12783e-14
8.77434e-14
9.13644e-14
9.37686e-14
9.45464e-14
9.4916e-14
9.32965e-14
8.72743e-14
8.00518e-14
7.68952e-14
6.96164e-14
7.41135e-14
7.60764e-14
7.72855e-14
7.91297e-14
7.98971e-14
7.73274e-14
6.96924e-14
5.83966e-14
5.8553e-14
6.9755e-14
7.58188e-14
8.28516e-14
7.9154e-14
6.91886e-14
7.01379e-14
7.42246e-14
8.51047e-14
9.86073e-14
1.04172e-13
1.06364e-13
1.09691e-13
1.12475e-13
1.13138e-13
1.12224e-13
1.13347e-13
1.12863e-13
1.05468e-13
9.37992e-14
8.01993e-14
7.56589e-14
7.29636e-14
7.02797e-14
6.79973e-14
6.29944e-14
6.44416e-14
6.62849e-14
6.66548e-14
7.37692e-14
7.35433e-14
6.8831e-14
6.46013e-14
6.35933e-14
6.6934e-14
6.20982e-14
5.88514e-14
5.4415e-14
5.44447e-14
5.46143e-14
5.0487e-14
5.59981e-14
5.91535e-14
5.66315e-14
5.50291e-14
5.75097e-14
5.61277e-14
6.04587e-14
6.31482e-14
6.35896e-14
6.05985e-14
5.77722e-14
6.29867e-14
6.42959e-14
7.85324e-14
7.73988e-14
8.12048e-14
8.22067e-14
8.29251e-14
8.77664e-14
9.19956e-14
8.54249e-14
8.39981e-14
9.06304e-14
8.97808e-14
1.01113e-13
1.0275e-13
9.71731e-14
9.5113e-14
9.94824e-14
1.02061e-13
1.05734e-13
1.01884e-13
1.03979e-13
1.01758e-13
1.03229e-13
1.01526e-13
1.04422e-13
1.05235e-13
1.04394e-13
1.00793e-13
9.49902e-14
8.96983e-14
8.35931e-14
8.82263e-14
9.0346e-14
9.37429e-14
9.12252e-14
9.12628e-14
8.57461e-14
8.43488e-14
7.45633e-14
7.79795e-14
8.72854e-14
9.27886e-14
9.341e-14
9.20265e-14
8.53464e-14
8.56617e-14
9.26981e-14
1.00022e-13
1.11502e-13
1.17769e-13
1.18537e-13
1.24561e-13
1.29047e-13
1.32087e-13
1.29445e-13
1.35073e-13
1.32177e-13
1.24138e-13
1.14187e-13
1.01233e-13
9.30967e-14
9.19155e-14
8.96685e-14
8.88041e-14
8.35662e-14
8.44528e-14
8.50124e-14
8.65686e-14
9.05982e-14
8.66648e-14
8.53382e-14
8.27727e-14
8.14682e-14
8.26769e-14
8.14231e-14
7.83171e-14
7.56613e-14
7.29099e-14
7.61345e-14
7.35257e-14
7.07488e-14
7.24987e-14
7.03891e-14
7.26374e-14
6.85604e-14
7.12654e-14
7.49694e-14
7.56766e-14
7.47317e-14
6.88483e-14
7.20059e-14
7.00072e-14
6.485e-14
8.24041e-14
8.45812e-14
9.0234e-14
9.09689e-14
8.92597e-14
9.59014e-14
9.27985e-14
8.97327e-14
8.93406e-14
8.6994e-14
9.16118e-14
1.03579e-13
1.12947e-13
1.06184e-13
1.02941e-13
9.99099e-14
1.0729e-13
1.08601e-13
1.06305e-13
1.0267e-13
1.05594e-13
9.84402e-14
1.03372e-13
1.03921e-13
1.05593e-13
1.01703e-13
1.0134e-13
1.02533e-13
1.01704e-13
9.90273e-14
8.70011e-14
8.79954e-14
9.54209e-14
9.43802e-14
8.71082e-14
8.64976e-14
8.50458e-14
8.8424e-14
9.07332e-14
8.64866e-14
8.11327e-14
8.2089e-14
8.14364e-14
8.6206e-14
8.73347e-14
1.02793e-13
1.02134e-13
1.09007e-13
1.17564e-13
1.23262e-13
1.28586e-13
1.38128e-13
1.42824e-13
1.40115e-13
1.49316e-13
1.53752e-13
1.44925e-13
1.24878e-13
1.0937e-13
1.00358e-13
9.16041e-14
9.13574e-14
9.19777e-14
9.07975e-14
9.02873e-14
9.34435e-14
9.75971e-14
9.24141e-14
9.01982e-14
9.59951e-14
9.14094e-14
9.22304e-14
8.99514e-14
9.05266e-14
8.33901e-14
8.27518e-14
7.62285e-14
8.28475e-14
8.39268e-14
7.91846e-14
7.17853e-14
7.89576e-14
8.84698e-14
8.16907e-14
8.40715e-14
8.53764e-14
8.43923e-14
8.06608e-14
7.04093e-14
6.89323e-14
6.08929e-14
5.65584e-14
5.75006e-14
7.44134e-14
8.88571e-14
9.34687e-14
9.35071e-14
8.36744e-14
8.30727e-14
7.57836e-14
7.39989e-14
6.92656e-14
6.95624e-14
7.97017e-14
8.96061e-14
1.01608e-13
1.01213e-13
9.85219e-14
9.18462e-14
9.32893e-14
9.38036e-14
9.48733e-14
8.94267e-14
9.38221e-14
9.08889e-14
9.37009e-14
9.24739e-14
9.27784e-14
8.74589e-14
8.35255e-14
9.05578e-14
8.6045e-14
8.45919e-14
7.54989e-14
7.36804e-14
7.80895e-14
8.1095e-14
8.08838e-14
7.90346e-14
7.9471e-14
8.16175e-14
8.00857e-14
7.01783e-14
6.1548e-14
6.55985e-14
6.40956e-14
6.99872e-14
7.28167e-14
8.87686e-14
9.56568e-14
1.10414e-13
1.12825e-13
1.1775e-13
1.23334e-13
1.39627e-13
1.4684e-13
1.53382e-13
1.5556e-13
1.59173e-13
1.48841e-13
1.27962e-13
1.02205e-13
9.17501e-14
7.98365e-14
7.37525e-14
7.31163e-14
7.69183e-14
8.05414e-14
8.43698e-14
8.34257e-14
7.82001e-14
8.33832e-14
8.8186e-14
8.70194e-14
8.62104e-14
8.23965e-14
8.38481e-14
7.73017e-14
7.46761e-14
7.17227e-14
7.2859e-14
7.40274e-14
7.40759e-14
7.13318e-14
8.04161e-14
8.87821e-14
8.94352e-14
9.205e-14
8.82269e-14
9.14022e-14
7.82721e-14
6.18066e-14
5.09835e-14
4.18328e-14
4.07645e-14
4.14534e-14
4.56659e-14
7.06362e-14
8.72632e-14
8.99331e-14
8.69229e-14
7.34127e-14
5.67587e-14
5.27435e-14
5.5227e-14
5.26757e-14
5.0746e-14
6.54201e-14
8.04864e-14
8.73902e-14
9.23471e-14
9.04867e-14
8.78784e-14
7.92528e-14
7.79667e-14
8.0767e-14
7.84131e-14
7.59892e-14
7.90709e-14
7.85641e-14
7.84285e-14
7.40665e-14
7.50145e-14
6.96374e-14
7.59106e-14
6.71254e-14
6.32499e-14
7.58467e-14
6.93744e-14
7.0283e-14
7.16382e-14
8.14249e-14
7.42289e-14
7.35383e-14
6.93397e-14
6.93398e-14
5.48622e-14
5.0559e-14
5.21757e-14
5.35891e-14
6.19785e-14
6.24965e-14
7.48357e-14
9.4781e-14
1.15845e-13
1.21249e-13
1.24265e-13
1.33032e-13
1.39685e-13
1.4562e-13
1.47251e-13
1.55212e-13
1.57498e-13
1.47753e-13
1.21686e-13
9.07111e-14
6.83815e-14
6.96876e-14
6.05848e-14
6.16507e-14
6.36897e-14
6.85132e-14
7.28445e-14
6.83593e-14
7.13883e-14
7.99364e-14
8.11236e-14
7.8062e-14
8.0148e-14
7.71876e-14
7.70835e-14
7.87589e-14
7.22933e-14
7.22173e-14
6.74956e-14
6.56522e-14
6.39695e-14
6.69382e-14
7.11946e-14
7.78639e-14
8.4553e-14
8.78247e-14
8.17123e-14
7.9386e-14
6.55105e-14
5.2869e-14
4.39426e-14
3.35615e-14
3.29738e-14
3.07453e-14
5.17115e-14
7.77442e-14
1.0566e-13
1.04482e-13
9.71144e-14
7.21483e-14
4.92311e-14
6.30931e-14
6.83113e-14
6.64998e-14
5.47502e-14
5.99467e-14
7.84389e-14
8.3773e-14
9.2404e-14
8.85329e-14
8.82107e-14
7.9265e-14
7.73424e-14
8.55039e-14
8.15538e-14
7.94125e-14
8.44148e-14
8.52122e-14
8.5774e-14
8.14565e-14
8.37366e-14
7.5774e-14
6.95942e-14
6.92973e-14
6.22315e-14
7.59558e-14
7.12498e-14
7.598e-14
8.11153e-14
8.09597e-14
7.52339e-14
7.97757e-14
7.31091e-14
6.65923e-14
5.56718e-14
5.84307e-14
5.77271e-14
6.38072e-14
7.386e-14
7.23014e-14
7.67046e-14
9.83256e-14
1.22747e-13
1.32196e-13
1.3503e-13
1.39262e-13
1.46725e-13
1.52215e-13
1.56092e-13
1.66066e-13
1.69499e-13
1.6065e-13
1.31099e-13
9.5247e-14
6.40773e-14
6.96025e-14
6.45666e-14
6.96476e-14
7.32315e-14
7.63329e-14
8.02497e-14
7.41308e-14
8.17079e-14
8.51268e-14
8.31236e-14
8.29983e-14
8.72148e-14
8.72607e-14
8.60179e-14
8.27984e-14
8.30443e-14
8.46174e-14
8.08599e-14
7.41272e-14
7.2157e-14
6.89245e-14
7.52497e-14
7.56978e-14
8.22324e-14
8.45236e-14
8.70564e-14
7.5575e-14
6.53362e-14
6.12281e-14
5.70066e-14
4.13459e-14
4.43589e-14
3.72532e-14
5.99253e-14
8.83035e-14
1.17696e-13
1.17264e-13
1.08898e-13
7.23202e-14
5.91551e-14
7.97018e-14
7.07505e-14
6.78182e-14
6.61734e-14
6.35447e-14
7.46608e-14
8.93675e-14
9.31881e-14
9.3316e-14
8.40594e-14
9.00071e-14
8.61885e-14
8.74166e-14
8.85396e-14
8.1648e-14
7.84499e-14
7.99893e-14
9.09962e-14
9.31612e-14
9.25454e-14
8.43742e-14
6.44503e-14
6.95813e-14
7.28141e-14
6.24502e-14
7.46024e-14
7.18599e-14
7.99974e-14
7.044e-14
7.90183e-14
7.65283e-14
8.07554e-14
6.964e-14
6.78865e-14
7.11291e-14
7.00424e-14
7.47112e-14
7.06774e-14
6.7128e-14
6.39105e-14
8.63183e-14
1.14929e-13
1.42334e-13
1.41126e-13
1.47002e-13
1.54644e-13
1.57418e-13
1.63676e-13
1.82599e-13
1.86919e-13
1.77348e-13
1.38028e-13
9.1688e-14
7.29318e-14
6.30577e-14
6.20183e-14
6.30678e-14
6.92029e-14
6.9411e-14
7.61826e-14
7.48697e-14
8.05182e-14
8.43114e-14
9.23725e-14
9.42908e-14
8.62681e-14
8.80826e-14
8.82218e-14
8.77071e-14
9.46842e-14
9.78903e-14
8.44275e-14
7.69153e-14
7.44138e-14
7.55934e-14
7.49291e-14
8.09124e-14
8.59829e-14
8.39634e-14
8.04502e-14
7.68896e-14
7.23936e-14
7.17344e-14
5.94751e-14
4.97756e-14
4.46057e-14
4.5642e-14
7.23329e-14
9.81851e-14
1.03651e-13
9.72226e-14
8.77698e-14
6.89476e-14
6.75772e-14
7.48119e-14
6.53132e-14
6.23473e-14
6.75772e-14
7.0055e-14
7.14269e-14
7.82075e-14
7.63696e-14
8.00908e-14
7.59857e-14
8.51972e-14
8.40786e-14
8.1148e-14
8.72165e-14
8.57095e-14
7.46944e-14
6.36191e-14
8.0304e-14
8.96679e-14
8.70665e-14
8.9687e-14
8.33522e-14
8.24998e-14
8.53586e-14
6.91917e-14
7.72111e-14
7.21384e-14
7.6912e-14
6.98426e-14
8.19168e-14
8.12088e-14
8.60115e-14
7.89011e-14
8.10218e-14
7.57724e-14
7.95789e-14
6.91643e-14
5.61319e-14
5.11079e-14
4.93705e-14
7.77524e-14
1.01749e-13
1.2527e-13
1.3021e-13
1.36011e-13
1.4229e-13
1.45895e-13
1.53231e-13
1.6323e-13
1.58629e-13
1.52301e-13
1.29097e-13
8.74643e-14
6.99694e-14
6.45437e-14
6.0876e-14
6.38475e-14
6.38908e-14
6.72752e-14
7.04076e-14
7.88411e-14
7.64828e-14
8.40114e-14
8.97435e-14
1.00808e-13
8.95122e-14
9.12796e-14
9.13101e-14
9.17108e-14
9.67895e-14
8.98833e-14
7.99372e-14
8.11623e-14
8.01986e-14
8.26798e-14
7.69195e-14
8.18917e-14
8.68868e-14
8.7856e-14
8.20162e-14
8.16131e-14
7.68575e-14
7.41444e-14
6.5769e-14
6.05666e-14
5.14762e-14
4.50507e-14
7.43628e-14
8.3081e-14
9.8387e-14
9.87206e-14
9.15568e-14
7.28912e-14
6.03559e-14
5.72476e-14
5.33614e-14
5.70743e-14
5.54619e-14
6.26919e-14
6.31839e-14
5.29375e-14
5.52369e-14
5.52248e-14
5.78891e-14
6.53706e-14
6.82315e-14
7.41828e-14
7.39036e-14
8.28526e-14
8.77931e-14
8.7962e-14
8.87232e-14
8.41396e-14
7.97367e-14
8.36284e-14
8.36007e-14
8.90799e-14
8.63514e-14
8.11655e-14
8.26771e-14
7.96838e-14
8.22949e-14
7.62855e-14
7.22958e-14
7.28266e-14
7.6303e-14
6.75569e-14
7.00353e-14
7.38855e-14
7.09058e-14
6.76226e-14
6.64674e-14
5.67048e-14
5.14474e-14
5.77977e-14
7.69569e-14
1.02741e-13
1.1247e-13
1.10613e-13
1.14229e-13
1.15224e-13
1.13799e-13
1.17055e-13
1.15062e-13
1.07662e-13
1.05135e-13
1.094e-13
9.09251e-14
6.50514e-14
7.21389e-14
7.90362e-14
8.19335e-14
8.53998e-14
8.28993e-14
7.6961e-14
7.60402e-14
7.14713e-14
7.53256e-14
7.60481e-14
8.68333e-14
9.29491e-14
9.07342e-14
9.4465e-14
9.05038e-14
8.85924e-14
8.34899e-14
8.22666e-14
8.85721e-14
8.38098e-14
8.30333e-14
8.1708e-14
8.07314e-14
7.56912e-14
7.83988e-14
7.28281e-14
7.16822e-14
6.21549e-14
5.37347e-14
5.89336e-14
5.97225e-14
5.14245e-14
4.7647e-14
5.54294e-14
6.4339e-14
7.11962e-14
7.66639e-14
7.62048e-14
6.73984e-14
5.37356e-14
4.80671e-14
4.38489e-14
4.36516e-14
4.28548e-14
5.05584e-14
5.88034e-14
6.15697e-14
6.76389e-14
7.4469e-14
7.75889e-14
7.36795e-14
8.21953e-14
8.26607e-14
8.0841e-14
7.99347e-14
8.68947e-14
8.72088e-14
9.20968e-14
8.78461e-14
8.84617e-14
8.3244e-14
8.07007e-14
7.87765e-14
7.23532e-14
6.57919e-14
7.07389e-14
6.66433e-14
6.85691e-14
6.0555e-14
5.44989e-14
4.73619e-14
4.91397e-14
4.65465e-14
4.98337e-14
5.22036e-14
5.38346e-14
4.80584e-14
5.46812e-14
5.76693e-14
5.72134e-14
6.36748e-14
7.3294e-14
8.35126e-14
8.50427e-14
8.67166e-14
8.21375e-14
7.81561e-14
7.09971e-14
7.47319e-14
7.50594e-14
7.5373e-14
7.38176e-14
7.00101e-14
6.87731e-14
5.94074e-14
5.6985e-14
6.5615e-14
7.01636e-14
7.46054e-14
7.24003e-14
6.45736e-14
5.57282e-14
4.89807e-14
5.87252e-14
6.82496e-14
7.04023e-14
7.82183e-14
8.20495e-14
8.07362e-14
7.82738e-14
6.99983e-14
6.96425e-14
6.5044e-14
6.67881e-14
6.44242e-14
6.68159e-14
6.79816e-14
6.21842e-14
5.15148e-14
5.29023e-14
4.87886e-14
4.41009e-14
3.36392e-14
3.02897e-14
3.24075e-14
3.74018e-14
2.85394e-14
3.136e-14
3.41417e-14
3.49157e-14
3.10447e-14
3.46696e-14
3.44436e-14
4.14992e-14
4.99256e-14
5.67278e-14
5.67252e-14
5.12614e-14
4.05878e-14
3.90202e-14
3.72362e-14
3.45794e-14
3.70544e-14
4.55639e-14
5.68383e-14
6.83415e-14
7.78101e-14
8.25464e-14
9.0393e-14
9.75985e-14
9.98376e-14
1.05122e-13
1.09135e-13
1.07817e-13
1.05176e-13
1.04668e-13
9.99625e-14
9.71021e-14
9.57326e-14
9.14892e-14
8.66762e-14
7.97949e-14
6.72267e-14
5.54804e-14
4.85212e-14
4.89371e-14
4.60766e-14
3.8163e-14
3.29398e-14
2.54584e-14
2.64198e-14
3.16059e-14
3.46749e-14
3.93411e-14
4.00818e-14
4.25055e-14
4.39765e-14
4.52295e-14
5.14933e-14
5.198e-14
5.9395e-14
6.21566e-14
6.57076e-14
5.65874e-14
5.15189e-14
4.18223e-14
3.57481e-14
3.68307e-14
3.79888e-14
4.00788e-14
3.89288e-14
3.58029e-14
3.81641e-14
3.68589e-14
3.07482e-14
3.47074e-14
4.20765e-14
4.73892e-14
4.71513e-14
4.44848e-14
4.16675e-14
4.13395e-14
4.03579e-14
4.87794e-14
5.30801e-14
6.20292e-14
6.60823e-14
6.31137e-14
6.06594e-14
5.39303e-14
4.61288e-14
4.30582e-14
3.7703e-14
3.70006e-14
3.68441e-14
4.08626e-14
3.78418e-14
3.59848e-14
3.21522e-14
2.98583e-14
2.8021e-14
2.54255e-14
1.77366e-14
1.66303e-14
2.17456e-14
2.54204e-14
1.96929e-14
3.54024e-14
3.57907e-14
3.22251e-14
3.27241e-14
3.51826e-14
4.08975e-14
5.1826e-14
5.55547e-14
5.20323e-14
4.52966e-14
3.70736e-14
3.54542e-14
4.12738e-14
4.70681e-14
4.60166e-14
5.74102e-14
6.96442e-14
8.01472e-14
8.75991e-14
9.62769e-14
1.05956e-13
1.1392e-13
1.18464e-13
1.23544e-13
1.2925e-13
1.30232e-13
1.24692e-13
1.23159e-13
1.18736e-13
1.14022e-13
1.12915e-13
1.08648e-13
1.01914e-13
9.22166e-14
7.97465e-14
6.5509e-14
4.96028e-14
3.99614e-14
3.24211e-14
3.94429e-14
3.05734e-14
3.11511e-14
3.18854e-14
4.04274e-14
4.2809e-14
4.60722e-14
4.74757e-14
4.97594e-14
5.00319e-14
5.09749e-14
5.1899e-14
5.08707e-14
4.8394e-14
4.68897e-14
4.63353e-14
3.26152e-14
2.76128e-14
2.57874e-14
2.47938e-14
1.66235e-14
1.3705e-14
1.58754e-14
1.82821e-14
2.732e-14
3.11288e-14
3.30279e-14
2.8907e-14
3.56001e-14
4.52527e-14
5.43055e-14
5.19332e-14
4.89311e-14
4.39524e-14
4.08458e-14
3.87475e-14
5.08641e-14
5.45307e-14
5.99587e-14
5.59372e-14
5.26029e-14
4.9749e-14
5.19703e-14
4.15649e-14
4.10739e-14
3.82234e-14
3.33558e-14
3.17173e-14
3.53095e-14
3.26417e-14
3.46088e-14
3.08221e-14
2.48183e-14
2.8741e-14
2.9305e-14
2.65289e-14
2.3474e-14
2.12667e-14
2.59482e-14
2.57088e-14
2.71823e-14
2.40271e-14
1.80117e-14
2.06977e-14
2.61067e-14
3.12493e-14
4.01132e-14
4.14595e-14
3.84983e-14
3.70069e-14
3.52615e-14
3.956e-14
4.16773e-14
5.09043e-14
5.45254e-14
6.27378e-14
7.40172e-14
8.3858e-14
8.88537e-14
9.77318e-14
1.07788e-13
1.16116e-13
1.23351e-13
1.27797e-13
1.33569e-13
1.36677e-13
1.32079e-13
1.3e-13
1.24627e-13
1.22471e-13
1.23693e-13
1.25584e-13
1.1863e-13
1.06811e-13
8.98347e-14
6.93427e-14
4.65827e-14
2.8885e-14
1.95802e-14
2.60248e-14
2.91961e-14
3.23888e-14
3.92021e-14
5.23374e-14
5.24067e-14
5.1542e-14
5.25845e-14
5.24854e-14
5.46035e-14
5.63867e-14
5.38537e-14
4.97761e-14
4.54491e-14
3.94487e-14
3.04302e-14
2.65468e-14
2.02459e-14
1.55716e-14
7.18247e-15
1.19209e-14
1.7237e-14
1.20238e-14
1.4342e-14
1.10864e-14
9.12025e-15
1.35773e-14
9.40348e-15
2.75657e-14
4.9298e-14
6.5136e-14
5.61112e-14
4.7405e-14
3.50689e-14
2.14859e-14
2.65711e-14
3.60359e-14
4.34399e-14
4.17131e-14
3.70774e-14
3.84256e-14
3.29555e-14
3.19934e-14
3.46497e-14
3.40497e-14
2.93351e-14
1.84726e-14
1.95556e-14
1.68374e-14
1.60149e-14
1.9855e-14
2.19656e-14
1.80668e-14
2.04549e-14
1.86643e-14
1.58927e-14
2.03748e-14
1.89453e-14
1.47041e-14
1.27778e-14
3.297e-14
2.86859e-14
2.23284e-14
1.71451e-14
2.3375e-14
1.75057e-14
1.15443e-14
1.76243e-14
1.09781e-14
1.32744e-14
1.43783e-14
1.85116e-14
2.42268e-14
2.80777e-14
3.1278e-14
3.35933e-14
3.12507e-14
3.26107e-14
4.1207e-14
4.28568e-14
5.33452e-14
6.26189e-14
6.89354e-14
7.96278e-14
8.43361e-14
8.8209e-14
9.66144e-14
1.06418e-13
1.1635e-13
1.27629e-13
1.34332e-13
1.40764e-13
1.40898e-13
1.38265e-13
1.35586e-13
1.33224e-13
1.32152e-13
1.2971e-13
1.38997e-13
1.29322e-13
1.15392e-13
9.52906e-14
7.72618e-14
4.73791e-14
2.33276e-14
2.24143e-14
2.72039e-14
3.18278e-14
3.67972e-14
4.76872e-14
5.74846e-14
5.85595e-14
5.72027e-14
5.89592e-14
6.03841e-14
6.17152e-14
6.16483e-14
6.25972e-14
5.83955e-14
5.26563e-14
4.16864e-14
3.41338e-14
2.74187e-14
2.12636e-14
1.74229e-14
1.82421e-14
2.44135e-14
2.56043e-14
2.32158e-14
2.88025e-14
3.82761e-14
2.92121e-14
2.47961e-14
2.30519e-14
3.91993e-14
5.23146e-14
6.21729e-14
5.61716e-14
4.50114e-14
2.50654e-14
1.13944e-14
1.21818e-14
1.73206e-14
1.56515e-14
2.36793e-14
2.08597e-14
2.16936e-14
2.56568e-14
2.94466e-14
2.19781e-14
1.81775e-14
1.87498e-14
1.5522e-14
8.83994e-15
1.00434e-14
1.35578e-14
1.78441e-14
1.05855e-14
1.11108e-14
1.73721e-14
2.27613e-14
1.73475e-14
2.32257e-14
3.10519e-14
2.32579e-14
1.93916e-14
3.0734e-14
2.84998e-14
2.08198e-14
1.87427e-14
1.35208e-14
1.24866e-14
1.42601e-14
2.45724e-14
1.56446e-14
5.99931e-15
8.0342e-15
1.52588e-14
1.96902e-14
3.1277e-14
2.86464e-14
2.80732e-14
2.90197e-14
2.99391e-14
3.55792e-14
4.66882e-14
5.48765e-14
5.08122e-14
6.78844e-14
8.04071e-14
8.04567e-14
8.06148e-14
9.06016e-14
1.0325e-13
1.13198e-13
1.2455e-13
1.38103e-13
1.47405e-13
1.40585e-13
1.38003e-13
1.36676e-13
1.34005e-13
1.35783e-13
1.33859e-13
1.35817e-13
1.28454e-13
1.1469e-13
9.14538e-14
6.74356e-14
4.34748e-14
2.15333e-14
8.54304e-15
3.04253e-14
4.22778e-14
5.63138e-14
6.16569e-14
6.48817e-14
6.85916e-14
6.84397e-14
6.66717e-14
6.59068e-14
7.5613e-14
8.16992e-14
8.20803e-14
7.35707e-14
6.00882e-14
4.55644e-14
3.83423e-14
2.74249e-14
2.29915e-14
2.15318e-14
2.62245e-14
3.30719e-14
2.70494e-14
3.50156e-14
3.69285e-14
4.54457e-14
5.21972e-14
4.40627e-14
3.42679e-14
4.67967e-14
6.09553e-14
6.62864e-14
6.07845e-14
5.30673e-14
4.06202e-14
2.99013e-14
2.00769e-14
1.87061e-14
2.38873e-14
1.80022e-14
1.35997e-14
1.40678e-14
2.62651e-14
3.30109e-14
3.3424e-14
2.98329e-14
2.39374e-14
1.84954e-14
2.12233e-14
2.35328e-14
2.9955e-14
3.48605e-14
2.76626e-14
2.5442e-14
2.60108e-14
2.19488e-14
2.92655e-14
3.37857e-14
2.73923e-14
1.7471e-14
2.04302e-14
2.55101e-14
2.44761e-14
2.17158e-14
2.28471e-14
1.9422e-14
1.67357e-14
2.27265e-14
3.56898e-14
3.28599e-14
3.08306e-14
2.92086e-14
3.56244e-14
3.26517e-14
3.48935e-14
3.67999e-14
4.32518e-14
4.52254e-14
4.21891e-14
4.73473e-14
5.2998e-14
5.23177e-14
5.90354e-14
6.26591e-14
6.70048e-14
7.15632e-14
8.28892e-14
8.5874e-14
9.37584e-14
1.05039e-13
1.1437e-13
1.31381e-13
1.39807e-13
1.37766e-13
1.35257e-13
1.28057e-13
1.22571e-13
1.24216e-13
1.23941e-13
1.24711e-13
1.20644e-13
1.07009e-13
8.32382e-14
5.56088e-14
2.7241e-14
2.47495e-14
2.0324e-14
4.15982e-14
5.85959e-14
7.39784e-14
7.0792e-14
7.13968e-14
7.65714e-14
8.19098e-14
8.41855e-14
8.61982e-14
9.7737e-14
1.00304e-13
1.00063e-13
9.35795e-14
8.26416e-14
6.20083e-14
5.2495e-14
4.3799e-14
4.4742e-14
4.55165e-14
5.1745e-14
5.12693e-14
4.72402e-14
5.26897e-14
5.65123e-14
5.39976e-14
5.8706e-14
5.10018e-14
5.10292e-14
4.09555e-14
5.15363e-14
5.52108e-14
5.10922e-14
4.82495e-14
5.00559e-14
4.64787e-14
4.47805e-14
4.16482e-14
3.86429e-14
3.41785e-14
3.08179e-14
3.08741e-14
3.85977e-14
5.11065e-14
5.08578e-14
3.92647e-14
3.48696e-14
3.61271e-14
4.3814e-14
4.44491e-14
4.69052e-14
5.43225e-14
5.27383e-14
4.79684e-14
4.33399e-14
4.33744e-14
4.49996e-14
3.92574e-14
3.45848e-14
3.01382e-14
2.79392e-14
3.95872e-14
3.31209e-14
2.98468e-14
3.2372e-14
3.73561e-14
4.21874e-14
3.35559e-14
3.15981e-14
4.35497e-14
5.63696e-14
6.9763e-14
7.0641e-14
6.43556e-14
5.80377e-14
5.69013e-14
5.06403e-14
5.2069e-14
5.07052e-14
5.43398e-14
4.61834e-14
5.3349e-14
5.17146e-14
6.24802e-14
6.36466e-14
6.68676e-14
7.1759e-14
7.45436e-14
6.83898e-14
6.5997e-14
7.54407e-14
8.71873e-14
9.76306e-14
1.0663e-13
1.10733e-13
1.12597e-13
1.08463e-13
1.07106e-13
1.10849e-13
1.09278e-13
1.06484e-13
9.90251e-14
7.82307e-14
5.32329e-14
3.82187e-14
2.07367e-14
3.30686e-14
3.75896e-14
4.91351e-14
6.56646e-14
7.74824e-14
8.43413e-14
9.13973e-14
9.95185e-14
1.07281e-13
1.0892e-13
1.07896e-13
1.06986e-13
1.09335e-13
1.16044e-13
1.16407e-13
1.06702e-13
8.75449e-14
8.20827e-14
7.61242e-14
6.92814e-14
6.90567e-14
6.31108e-14
5.83489e-14
6.4491e-14
6.1144e-14
5.63004e-14
6.20836e-14
6.27398e-14
6.06567e-14
5.80504e-14
4.92981e-14
4.17834e-14
4.62509e-14
4.37103e-14
5.09815e-14
5.22595e-14
4.603e-14
4.82446e-14
5.0874e-14
5.22072e-14
5.02082e-14
5.15414e-14
5.52919e-14
5.9684e-14
5.64717e-14
5.60807e-14
5.24175e-14
5.72289e-14
6.03595e-14
6.5366e-14
6.12803e-14
6.15464e-14
5.93533e-14
7.05961e-14
6.68499e-14
6.38454e-14
5.647e-14
5.39725e-14
5.50376e-14
5.27673e-14
5.60525e-14
5.24552e-14
6.73667e-14
6.34205e-14
6.01993e-14
6.30844e-14
6.20413e-14
6.28078e-14
6.77706e-14
6.691e-14
7.05933e-14
8.94526e-14
9.98522e-14
9.65683e-14
9.5474e-14
9.27823e-14
8.34529e-14
7.60766e-14
7.00663e-14
7.05488e-14
6.90124e-14
6.25931e-14
6.52154e-14
6.73885e-14
7.19075e-14
7.32041e-14
7.07682e-14
6.66463e-14
6.33351e-14
6.48943e-14
6.18793e-14
6.21679e-14
7.24304e-14
7.89866e-14
7.89032e-14
8.80499e-14
9.94068e-14
1.07248e-13
1.05858e-13
9.90343e-14
9.90675e-14
9.78706e-14
8.13945e-14
6.57315e-14
5.43127e-14
6.97261e-14
7.4201e-14
7.82858e-14
7.54909e-14
7.42759e-14
8.46056e-14
9.62488e-14
1.05213e-13
1.10452e-13
1.19887e-13
1.23251e-13
1.24408e-13
1.24503e-13
1.26766e-13
1.24719e-13
1.24832e-13
1.26501e-13
1.18444e-13
1.11779e-13
1.11623e-13
1.01371e-13
9.53782e-14
8.58469e-14
8.05584e-14
7.83148e-14
7.62611e-14
6.97722e-14
6.42445e-14
6.45446e-14
6.21866e-14
6.29162e-14
6.32881e-14
6.88511e-14
6.50966e-14
6.91881e-14
7.04476e-14
7.23225e-14
7.45338e-14
7.34933e-14
6.73523e-14
7.29391e-14
7.48575e-14
8.20974e-14
7.89364e-14
8.05192e-14
7.95635e-14
8.05833e-14
7.56164e-14
7.56697e-14
8.02589e-14
8.46576e-14
8.38274e-14
8.21658e-14
7.75208e-14
7.84828e-14
7.45539e-14
7.81606e-14
6.92217e-14
6.89612e-14
6.46373e-14
6.90644e-14
6.62349e-14
6.62098e-14
6.11027e-14
8.09119e-14
8.19502e-14
7.29149e-14
7.10527e-14
6.05706e-14
5.87206e-14
5.69633e-14
7.40378e-14
8.00619e-14
7.56318e-14
9.79884e-14
1.0716e-13
1.02889e-13
1.02305e-13
1.01873e-13
9.62271e-14
9.14374e-14
8.26083e-14
7.03323e-14
6.67236e-14
7.3251e-14
6.88024e-14
7.62299e-14
7.02036e-14
7.58712e-14
6.70811e-14
5.48009e-14
5.08522e-14
5.07425e-14
6.67161e-14
7.35701e-14
8.1566e-14
8.7429e-14
8.50637e-14
8.50846e-14
8.88348e-14
9.45179e-14
9.64379e-14
8.79526e-14
8.49087e-14
9.18879e-14
8.7229e-14
7.33809e-14
8.5214e-14
9.91595e-14
1.03069e-13
9.89598e-14
9.79442e-14
9.49269e-14
1.02233e-13
1.02565e-13
1.09997e-13
1.13213e-13
1.25101e-13
1.25817e-13
1.3219e-13
1.35333e-13
1.41013e-13
1.37353e-13
1.31392e-13
1.30022e-13
1.24511e-13
1.2643e-13
1.19493e-13
1.08844e-13
1.04503e-13
9.7638e-14
9.69601e-14
8.81499e-14
7.78252e-14
6.89015e-14
6.66089e-14
5.9336e-14
5.25574e-14
4.60504e-14
5.3331e-14
6.65434e-14
7.35677e-14
7.16916e-14
6.80543e-14
6.55692e-14
7.51632e-14
8.35949e-14
7.53414e-14
8.22206e-14
7.64383e-14
8.38473e-14
8.48627e-14
8.99178e-14
8.34793e-14
8.40286e-14
7.86083e-14
8.33177e-14
8.55699e-14
9.06334e-14
8.79702e-14
8.64588e-14
7.17266e-14
6.87528e-14
6.57775e-14
6.98165e-14
6.47903e-14
7.46395e-14
6.8792e-14
7.0991e-14
5.8261e-14
6.01291e-14
5.86566e-14
7.28933e-14
6.36667e-14
5.169e-14
5.52822e-14
5.04581e-14
5.3587e-14
5.73181e-14
5.64926e-14
6.52814e-14
7.04805e-14
9.02812e-14
1.05306e-13
1.06355e-13
9.54369e-14
9.02799e-14
8.27987e-14
7.48846e-14
5.76681e-14
4.38621e-14
3.67315e-14
4.71124e-14
5.47853e-14
6.86824e-14
7.1101e-14
6.06102e-14
5.10399e-14
4.66627e-14
5.08673e-14
4.50419e-14
4.86495e-14
5.71874e-14
5.53685e-14
6.2206e-14
6.02483e-14
5.45053e-14
4.97069e-14
5.3671e-14
6.26271e-14
7.14724e-14
7.05024e-14
6.63683e-14
6.51296e-14
7.18357e-14
8.40657e-14
9.97403e-14
1.02942e-13
9.45359e-14
9.91725e-14
1.01144e-13
1.01271e-13
9.65208e-14
1.00442e-13
1.13591e-13
1.16887e-13
1.12049e-13
1.145e-13
1.18196e-13
1.18338e-13
1.16864e-13
1.19284e-13
1.22607e-13
1.2088e-13
1.24509e-13
1.10592e-13
1.04093e-13
1.01916e-13
9.96611e-14
8.87534e-14
7.78278e-14
7.24452e-14
6.3834e-14
5.30249e-14
3.83593e-14
4.16259e-14
3.4308e-14
3.841e-14
4.08989e-14
5.37405e-14
6.32432e-14
5.81609e-14
6.03485e-14
6.8123e-14
7.35688e-14
6.94022e-14
7.10648e-14
7.48633e-14
7.74919e-14
8.09263e-14
8.92492e-14
8.40208e-14
8.21581e-14
8.08053e-14
8.50769e-14
8.6876e-14
8.76229e-14
7.98927e-14
7.06955e-14
6.3691e-14
6.25448e-14
6.61837e-14
6.52541e-14
7.03696e-14
7.46248e-14
6.94108e-14
6.42261e-14
6.28463e-14
6.38811e-14
6.38454e-14
5.98859e-14
5.12219e-14
3.49625e-14
3.46668e-14
3.81083e-14
3.77613e-14
3.70458e-14
3.46329e-14
4.17662e-14
5.43817e-14
6.68234e-14
7.81158e-14
7.8389e-14
7.11545e-14
5.94472e-14
5.34597e-14
3.81307e-14
1.8474e-14
1.18513e-14
7.69967e-15
1.76308e-14
2.81823e-14
4.19691e-14
4.87045e-14
4.72196e-14
4.39453e-14
4.26143e-14
3.89566e-14
2.82195e-14
2.41634e-14
2.15793e-14
2.45325e-14
2.51779e-14
3.0798e-14
2.8327e-14
2.88341e-14
2.84327e-14
2.97287e-14
3.6864e-14
4.13658e-14
3.3397e-14
3.09992e-14
4.29945e-14
5.7155e-14
7.24835e-14
7.75406e-14
8.20352e-14
8.1147e-14
8.69146e-14
8.45036e-14
9.32378e-14
1.00204e-13
1.03685e-13
9.84985e-14
9.96875e-14
1.06324e-13
1.02277e-13
1.01129e-13
9.74505e-14
9.38552e-14
8.99328e-14
9.83247e-14
1.03956e-13
1.03048e-13
1.00523e-13
9.23529e-14
9.12621e-14
8.66058e-14
8.52135e-14
8.34908e-14
7.33115e-14
5.95717e-14
4.41e-14
3.69947e-14
3.28989e-14
2.79596e-14
2.52136e-14
2.84956e-14
3.33834e-14
3.77183e-14
3.7496e-14
4.00209e-14
4.01183e-14
4.2574e-14
4.29736e-14
5.50507e-14
5.75832e-14
5.74526e-14
6.25214e-14
6.28381e-14
6.07279e-14
6.32955e-14
6.14783e-14
5.89736e-14
5.52459e-14
4.92451e-14
4.89364e-14
4.05153e-14
4.46605e-14
4.05696e-14
4.06838e-14
4.35614e-14
4.13605e-14
4.19017e-14
4.23728e-14
4.88073e-14
4.24408e-14
4.53371e-14
3.29973e-14
2.08474e-14
2.1383e-14
1.26819e-14
1.14956e-14
1.0575e-14
1.09374e-14
1.9346e-14
2.12072e-14
3.45534e-14
4.31279e-14
5.02019e-14
4.99725e-14
4.73689e-14
3.97762e-14
2.67541e-14
1.27567e-14
2.82947e-15
1.53739e-14
1.78501e-14
1.62737e-14
3.1333e-14
3.85051e-14
4.32419e-14
4.6255e-14
5.38041e-14
4.62472e-14
3.26563e-14
2.31561e-14
2.39995e-14
2.14143e-14
1.02469e-14
1.13375e-14
1.42828e-14
1.83783e-14
2.14737e-14
2.41847e-14
2.49059e-14
2.21871e-14
2.41832e-14
1.80765e-14
1.68151e-14
2.49303e-14
3.84083e-14
4.59576e-14
5.68683e-14
6.44929e-14
6.6568e-14
6.96122e-14
7.84215e-14
9.01329e-14
8.78468e-14
8.57295e-14
8.54812e-14
9.31696e-14
9.13517e-14
8.99973e-14
8.87414e-14
8.53734e-14
8.27692e-14
7.75785e-14
8.57994e-14
9.23592e-14
9.38637e-14
9.16067e-14
9.0243e-14
9.36623e-14
9.0828e-14
8.07542e-14
7.9797e-14
7.14339e-14
6.32202e-14
5.12103e-14
4.41223e-14
3.65856e-14
2.60211e-14
1.88312e-14
2.22912e-14
1.95728e-14
2.22568e-14
1.98344e-14
2.17274e-14
2.66259e-14
2.38426e-14
2.53889e-14
3.43023e-14
4.00283e-14
3.89586e-14
4.18994e-14
4.11041e-14
4.061e-14
3.90035e-14
3.64835e-14
3.5441e-14
3.47149e-14
3.09163e-14
1.90698e-14
2.36351e-14
2.33234e-14
1.77649e-14
2.04786e-14
2.33133e-14
2.05291e-14
2.44882e-14
2.93296e-14
3.10607e-14
3.00426e-14
3.09424e-14
1.21247e-14
1.94185e-14
2.02555e-14
2.03417e-14
1.59283e-14
1.55761e-14
2.18266e-14
2.37713e-14
3.30236e-14
3.35729e-14
3.26753e-14
3.16521e-14
3.17127e-14
2.96852e-14
3.18657e-14
2.76356e-14
2.26196e-14
2.35669e-14
2.2394e-14
2.17743e-14
2.54221e-14
3.2094e-14
3.95964e-14
4.28297e-14
4.33645e-14
4.30531e-14
4.131e-14
3.46407e-14
2.56894e-14
2.64403e-14
1.69187e-14
1.18171e-14
1.49347e-14
1.99153e-14
2.39534e-14
2.21081e-14
2.00862e-14
2.49446e-14
2.7627e-14
2.14728e-14
1.97499e-14
2.4542e-14
2.92703e-14
3.58826e-14
4.33599e-14
5.4716e-14
5.83115e-14
6.4017e-14
7.12799e-14
7.68777e-14
8.00445e-14
7.79882e-14
7.70002e-14
7.3633e-14
7.08542e-14
6.95644e-14
6.84302e-14
6.81212e-14
6.80543e-14
6.77146e-14
6.85503e-14
7.11092e-14
7.55656e-14
8.13252e-14
8.28874e-14
8.41804e-14
8.15408e-14
7.80045e-14
7.76151e-14
7.3169e-14
7.1324e-14
6.45601e-14
5.42048e-14
5.04245e-14
4.58739e-14
3.21197e-14
2.95321e-14
2.31753e-14
1.93688e-14
1.81567e-14
2.03512e-14
1.31305e-14
1.31489e-14
1.77372e-14
1.80545e-14
1.7996e-14
2.00699e-14
2.15211e-14
2.55727e-14
2.576e-14
2.33206e-14
2.54869e-14
2.55535e-14
1.82148e-14
1.79145e-14
1.28271e-14
1.9076e-14
3.07001e-14
2.99332e-14
3.63908e-14
4.60067e-14
4.26489e-14
4.0408e-14
4.48728e-14
4.63496e-14
4.7516e-14
4.56317e-14
4.36694e-14
6.27107e-14
5.96071e-14
5.31358e-14
5.99845e-14
5.77233e-14
5.49141e-14
5.31493e-14
5.45245e-14
5.91598e-14
5.36647e-14
5.70089e-14
5.56375e-14
5.08837e-14
5.23666e-14
5.41353e-14
5.72349e-14
5.34155e-14
5.96399e-14
6.06823e-14
5.83599e-14
6.42902e-14
6.70029e-14
6.87533e-14
7.27796e-14
7.07176e-14
6.76824e-14
6.73576e-14
6.37959e-14
5.77406e-14
5.62373e-14
4.79045e-14
5.18512e-14
5.54068e-14
5.45748e-14
5.42355e-14
5.11886e-14
4.921e-14
5.64318e-14
5.12016e-14
5.34241e-14
4.84045e-14
5.60192e-14
5.54166e-14
6.27497e-14
6.80765e-14
7.44237e-14
7.93572e-14
8.26944e-14
8.82696e-14
8.94816e-14
9.11783e-14
9.00468e-14
8.90583e-14
8.02316e-14
7.00416e-14
6.70438e-14
6.64531e-14
7.00765e-14
6.87085e-14
7.5399e-14
7.96614e-14
8.36199e-14
8.57312e-14
8.62848e-14
9.07455e-14
9.27841e-14
9.01588e-14
8.61975e-14
8.1251e-14
7.75289e-14
8.15969e-14
7.54271e-14
7.42437e-14
6.88041e-14
6.16667e-14
5.97602e-14
5.90089e-14
5.83217e-14
5.38231e-14
5.2272e-14
5.874e-14
5.73517e-14
5.66072e-14
5.61567e-14
5.54027e-14
5.40055e-14
5.72448e-14
5.62523e-14
5.3054e-14
4.63939e-14
4.30882e-14
4.43292e-14
4.63189e-14
4.84547e-14
4.40956e-14
4.79333e-14
5.12685e-14
6.21075e-14
6.73353e-14
7.96132e-14
7.95663e-14
6.98157e-14
6.92232e-14
6.98029e-14
6.93867e-14
7.0314e-14
6.50475e-14
6.79907e-14
8.91687e-14
8.84669e-14
8.6251e-14
8.57777e-14
8.01865e-14
7.01645e-14
6.6076e-14
6.33667e-14
5.65694e-14
5.53109e-14
5.84522e-14
6.22462e-14
6.59438e-14
6.58761e-14
6.59644e-14
6.33176e-14
6.83004e-14
7.01655e-14
7.00679e-14
6.67773e-14
7.25988e-14
8.03638e-14
8.53687e-14
8.35333e-14
8.0609e-14
8.32759e-14
8.11934e-14
7.00536e-14
6.92507e-14
6.91046e-14
6.98522e-14
6.85522e-14
7.11221e-14
7.8848e-14
7.83787e-14