/*--------------------------------*- C++ -*----------------------------------*\
| =========                 |                                                 |
| \\      /  F ield         | OpenFOAM: The Open Source CFD Toolbox           |
|  \\    /   O peration     | Version:  2406                                  |
|   \\  /    A nd           | Website:  www.openfoam.com                      |
|    \\/     M anipulation  |                                                 |
\*---------------------------------------------------------------------------*/
FoamFile
{
    version     2.0;
    format      ascii;
    arch        "LSB;label=32;scalar=64";
    class       volScalarField;
    location    "0.025";
    object      Ma;
}
// * * * * * * * * * * * * * * * * * * * * * * * * * * * * * * * * * * * * * //

dimensions      [0 0 0 0 0 0 0];

internalField   nonuniform List<scalar> 
13962
(
1.132
1.132
1.132
1.132
1.132
1.132
1.132
1.132
1.132
1.132
1.132
1.13199
1.13153
1.12128
1.05682
1.02147
1.02027
1.02016
1.0201
1.02002
1.01993
1.01986
1.01981
1.01976
1.01965
1.0195
1.01935
1.01922
1.01911
1.019
1.01895
1.01894
1.01896
1.01897
1.01899
1.01899
1.01895
1.0189
1.01886
1.01884
1.01884
1.01886
1.0189
1.01896
1.01899
1.01902
1.01904
1.01905
1.01905
1.01905
1.01906
1.01906
1.01907
1.0191
1.01912
1.01913
1.01913
1.01914
1.01915
1.01915
1.01915
1.01915
1.01915
1.01915
1.01914
1.01912
1.01911
1.0191
1.01908
1.01907
1.01907
1.01907
1.01907
1.01906
1.01905
1.01904
1.01902
1.01901
1.019
1.01901
1.01901
1.01903
1.01906
1.01908
1.01909
1.0191
1.0191
1.0191
1.0191
1.01909
1.01909
1.0191
1.01911
1.01911
1.01911
1.01911
1.01911
1.01911
1.0191
1.0191
1.0191
1.01911
1.01911
1.0191
1.0191
1.01909
1.01908
1.01908
1.01908
1.01908
1.01909
1.01909
1.01908
1.01907
1.01907
1.01906
1.01906
1.01906
1.01906
1.01907
1.01908
1.01908
1.01908
1.01908
1.01908
1.01907
1.01908
1.01908
1.01909
1.0191
1.0191
1.0191
1.0191
1.0191
1.0191
1.01909
1.01909
1.0191
1.0191
1.0191
1.01909
1.01909
1.01909
1.01908
1.01908
1.01908
1.01909
1.01909
1.01909
1.01909
1.01909
1.01908
1.01908
1.01907
1.01907
1.01908
1.01908
1.01908
1.01909
1.01909
1.01908
1.01899
1.01879
1.01872
1.01937
1.02152
1.0251
1.02897
1.0319
1.03344
1.03386
1.03366
1.0333
1.03295
1.03261
1.03208
1.03116
1.02961
1.0271
1.02325
1.01757
1.00938
0.998459
0.983307
0.964727
0.941445
0.912072
0.88055
0.849135
0.81988
0.795405
0.778433
0.770182
0.7674
0.766591
0.766201
0.765966
0.765838
0.76581
0.76586
0.76594
0.766017
0.766031
0.765882
0.765721
0.765567
0.765408
0.76524
0.765084
0.764943
0.764856
0.76481
0.764801
0.764829
0.764893
0.764984
0.765072
0.765147
0.765208
0.765257
0.765297
0.765331
0.765363
0.765396
0.76544
0.765494
0.765538
0.765543
0.76553
0.7655
0.765448
0.765371
0.765275
0.765198
0.765172
0.765166
0.76518
0.76522
0.765276
0.765326
0.765353
0.765359
0.765358
0.765339
0.765304
0.765283
0.765288
0.765302
0.765328
0.765373
0.765428
0.765462
0.765471
0.765472
0.76546
0.765437
0.765415
0.765414
0.765424
0.765452
0.765504
0.76558
0.765675
0.765772
0.765852
0.765911
0.765948
0.765971
0.765979
0.765956
0.765886
0.765832
0.7658
0.765789
0.765798
0.765766
0.765722
0.765684
0.765668
0.765693
0.765739
0.765779
0.765815
0.765844
0.765864
0.765868
0.765853
0.765832
0.765807
0.765779
0.765748
0.765717
0.765699
0.765694
0.765694
0.765696
0.765697
0.765692
0.765686
0.765677
0.765665
0.765648
0.765628
0.765617
0.765619
0.765625
0.765634
0.765649
0.765668
0.765678
0.765678
0.765676
0.765671
0.765661
0.765648
0.765642
0.765643
0.765646
0.765654
0.765667
0.765686
0.765704
0.765712
0.765712
0.76571
0.765706
0.765698
0.765686
0.765673
0.765664
0.76566
0.765658
0.765655
0.765643
0.765583
0.765226
0.763011
0.749376
0.674076
0.39429
0.0515509
0.000562903
4.06221e-07
1.53377e-11
2.80569e-14
2.75562e-14
2.50313e-14
2.46152e-14
2.83735e-14
2.66396e-14
2.75797e-14
2.40486e-14
2.31731e-14
2.74987e-14
3.30633e-14
3.92951e-14
4.01339e-14
3.86822e-14
3.19811e-14
2.59913e-14
2.31686e-14
1.98995e-14
1.87252e-14
1.15422e-14
1.03428e-14
5.77311e-15
9.82643e-15
1.18436e-14
1.1086e-14
1.69585e-14
2.52428e-14
2.99167e-14
3.06151e-14
3.2844e-14
3.43585e-14
3.59603e-14
3.08496e-14
3.44107e-14
3.64468e-14
3.30443e-14
3.66362e-14
4.34352e-14
5.23962e-14
5.33076e-14
5.18351e-14
5.13847e-14
5.18289e-14
4.96465e-14
4.04677e-14
3.15028e-14
2.73362e-14
3.26081e-14
3.94623e-14
4.75544e-14
4.50574e-14
4.53825e-14
3.95904e-14
3.53621e-14
3.61002e-14
3.32115e-14
3.17227e-14
2.24189e-14
1.86572e-14
1.61893e-14
1.68943e-14
1.41817e-14
1.09592e-14
1.49703e-14
1.98032e-14
1.61121e-14
1.43126e-14
2.10806e-14
2.6566e-14
2.54806e-14
2.82402e-14
3.24965e-14
3.44766e-14
2.8305e-14
2.70981e-14
2.32474e-14
1.80282e-14
1.8732e-14
2.07541e-14
1.97679e-14
1.86678e-14
2.01659e-14
2.08175e-14
1.57074e-14
1.39455e-14
1.35863e-14
1.17082e-14
1.24095e-14
9.67626e-15
4.19799e-15
1.17414e-14
1.87349e-14
2.08223e-14
2.71338e-14
3.43909e-14
3.64243e-14
3.80544e-14
3.5508e-14
3.17588e-14
2.84557e-14
2.85807e-14
2.44621e-14
2.02658e-14
1.93652e-14
1.87482e-14
1.51354e-14
1.45156e-14
1.64027e-14
1.78172e-14
1.97388e-14
2.36003e-14
2.55695e-14
2.49611e-14
2.60957e-14
2.28355e-14
1.86208e-14
1.95044e-14
2.28196e-14
1.97944e-14
1.12904e-14
1.132
1.132
1.132
1.132
1.132
1.132
1.132
1.132
1.132
1.132
1.132
1.13199
1.13153
1.12128
1.05682
1.02147
1.02027
1.02016
1.0201
1.02002
1.01993
1.01986
1.01981
1.01976
1.01965
1.0195
1.01935
1.01922
1.01911
1.019
1.01895
1.01894
1.01896
1.01897
1.01899
1.01899
1.01895
1.0189
1.01886
1.01884
1.01884
1.01886
1.0189
1.01896
1.01899
1.01902
1.01904
1.01905
1.01905
1.01905
1.01906
1.01906
1.01907
1.0191
1.01912
1.01913
1.01913
1.01914
1.01915
1.01915
1.01915
1.01915
1.01915
1.01915
1.01914
1.01912
1.01911
1.0191
1.01908
1.01907
1.01907
1.01907
1.01907
1.01906
1.01905
1.01904
1.01902
1.01901
1.019
1.01901
1.01901
1.01903
1.01906
1.01908
1.01909
1.0191
1.0191
1.0191
1.0191
1.01909
1.01909
1.0191
1.01911
1.01911
1.01911
1.01911
1.01911
1.01911
1.0191
1.0191
1.0191
1.01911
1.01911
1.0191
1.0191
1.01909
1.01908
1.01908
1.01908
1.01908
1.01909
1.01909
1.01908
1.01907
1.01907
1.01906
1.01906
1.01906
1.01906
1.01907
1.01908
1.01908
1.01908
1.01908
1.01908
1.01907
1.01908
1.01908
1.01909
1.0191
1.0191
1.0191
1.0191
1.0191
1.0191
1.01909
1.01909
1.0191
1.0191
1.0191
1.01909
1.01909
1.01909
1.01908
1.01908
1.01908
1.01909
1.01909
1.01909
1.01909
1.01909
1.01908
1.01908
1.01907
1.01907
1.01908
1.01908
1.01908
1.01909
1.01909
1.01908
1.01899
1.01879
1.01872
1.01936
1.0215
1.0251
1.02899
1.03195
1.0335
1.03389
1.03364
1.03324
1.03287
1.03255
1.03206
1.03117
1.02964
1.02712
1.02323
1.01755
1.00925
0.998439
0.983089
0.964611
0.940855
0.913785
0.882718
0.850693
0.82092
0.796061
0.778745
0.770325
0.767518
0.766637
0.76622
0.765978
0.765844
0.765809
0.765854
0.765932
0.766009
0.766028
0.765882
0.765721
0.765566
0.765406
0.765236
0.765079
0.764936
0.76485
0.764803
0.764794
0.764822
0.764887
0.764978
0.765066
0.76514
0.765201
0.76525
0.76529
0.765325
0.765357
0.76539
0.765435
0.76549
0.765534
0.765539
0.765526
0.765496
0.765444
0.765367
0.765271
0.765194
0.765168
0.765162
0.765176
0.765216
0.765273
0.765324
0.76535
0.765356
0.765355
0.765336
0.765301
0.765279
0.765285
0.765299
0.765325
0.76537
0.765425
0.76546
0.76547
0.76547
0.765459
0.765435
0.765412
0.765411
0.765421
0.765449
0.765503
0.765583
0.765684
0.765787
0.765871
0.765933
0.765975
0.766001
0.766012
0.765987
0.765911
0.765849
0.76581
0.76579
0.76579
0.765755
0.765708
0.765664
0.765648
0.76568
0.765731
0.765775
0.765815
0.765846
0.765865
0.765868
0.765854
0.765831
0.765807
0.765779
0.765748
0.765718
0.765701
0.765697
0.765696
0.765699
0.765698
0.765692
0.765685
0.765676
0.765665
0.765648
0.765628
0.765618
0.76562
0.765625
0.765634
0.76565
0.765668
0.765678
0.765678
0.765676
0.765671
0.76566
0.765648
0.765643
0.765643
0.765647
0.765654
0.765668
0.765687
0.765704
0.765712
0.765712
0.765711
0.765707
0.765698
0.765687
0.765674
0.765664
0.76566
0.765658
0.765656
0.765644
0.765584
0.765227
0.763012
0.749378
0.674076
0.394287
0.0515499
0.000562885
4.06203e-07
1.53401e-11
2.77771e-14
2.57502e-14
2.11246e-14
2.05477e-14
2.55109e-14
2.39299e-14
2.30511e-14
2.22428e-14
2.32924e-14
2.7132e-14
3.27152e-14
3.7298e-14
3.72035e-14
3.58218e-14
3.25605e-14
2.77396e-14
2.30966e-14
1.97039e-14
1.85553e-14
1.18094e-14
9.47663e-15
4.75706e-15
1.06391e-14
1.16395e-14
1.22845e-14
1.86187e-14
2.35661e-14
2.80126e-14
3.04902e-14
2.92045e-14
2.9731e-14
3.3182e-14
3.11179e-14
3.17649e-14
3.43227e-14
3.08221e-14
3.5602e-14
4.44367e-14
5.01545e-14
5.49914e-14
5.32168e-14
5.16867e-14
4.85526e-14
4.62423e-14
3.87251e-14
3.32948e-14
2.79891e-14
2.7436e-14
3.19579e-14
3.83522e-14
3.85463e-14
3.82917e-14
3.50677e-14
3.1602e-14
3.30162e-14
2.77424e-14
2.54374e-14
1.99845e-14
1.83067e-14
1.45269e-14
1.48372e-14
1.30097e-14
1.04149e-14
1.44361e-14
1.89634e-14
1.53131e-14
1.54101e-14
2.17411e-14
2.38882e-14
2.29226e-14
2.66286e-14
2.93403e-14
2.86819e-14
2.56288e-14
2.4825e-14
2.08704e-14
1.8283e-14
2.06104e-14
2.01662e-14
1.87105e-14
1.87412e-14
2.09779e-14
1.93884e-14
1.49891e-14
1.36479e-14
1.15202e-14
9.8624e-15
9.93782e-15
7.16339e-15
6.17481e-15
1.26026e-14
1.9174e-14
2.41476e-14
3.00417e-14
3.45655e-14
3.50024e-14
3.66539e-14
3.416e-14
3.07476e-14
2.77823e-14
2.51416e-14
2.00857e-14
1.87635e-14
1.71501e-14
1.53923e-14
1.41867e-14
1.4375e-14
1.55535e-14
1.78829e-14
1.90403e-14
2.30479e-14
2.25259e-14
2.40209e-14
2.48656e-14
2.08307e-14
1.92551e-14
2.10371e-14
2.2121e-14
1.82385e-14
1.18529e-14
1.132
1.132
1.132
1.132
1.132
1.132
1.132
1.132
1.132
1.132
1.132
1.13199
1.13153
1.12128
1.05682
1.02147
1.02027
1.02016
1.0201
1.02002
1.01993
1.01986
1.01981
1.01976
1.01965
1.0195
1.01935
1.01922
1.01911
1.019
1.01895
1.01894
1.01896
1.01897
1.019
1.01899
1.01895
1.0189
1.01886
1.01884
1.01884
1.01886
1.01891
1.01896
1.01899
1.01902
1.01904
1.01905
1.01905
1.01905
1.01906
1.01906
1.01907
1.0191
1.01912
1.01913
1.01913
1.01914
1.01915
1.01915
1.01915
1.01915
1.01915
1.01915
1.01914
1.01912
1.01911
1.0191
1.01908
1.01907
1.01907
1.01907
1.01907
1.01906
1.01905
1.01904
1.01902
1.01901
1.019
1.01901
1.01901
1.01903
1.01906
1.01908
1.01909
1.0191
1.0191
1.0191
1.0191
1.01909
1.01909
1.0191
1.01911
1.01911
1.01911
1.01911
1.01911
1.01911
1.0191
1.0191
1.0191
1.01911
1.01911
1.0191
1.0191
1.01909
1.01908
1.01908
1.01908
1.01908
1.01909
1.01909
1.01908
1.01907
1.01907
1.01906
1.01906
1.01906
1.01906
1.01907
1.01908
1.01908
1.01908
1.01908
1.01908
1.01907
1.01908
1.01908
1.01909
1.0191
1.0191
1.0191
1.0191
1.0191
1.0191
1.01909
1.01909
1.0191
1.0191
1.0191
1.01909
1.01909
1.01909
1.01908
1.01908
1.01908
1.01909
1.01909
1.01909
1.01909
1.01909
1.01908
1.01908
1.01907
1.01907
1.01908
1.01908
1.01908
1.01909
1.01909
1.01909
1.01899
1.01879
1.01871
1.01934
1.02148
1.02509
1.02902
1.032
1.03356
1.03392
1.03362
1.03317
1.03278
1.03249
1.03204
1.0312
1.02968
1.02714
1.02321
1.01752
1.00913
0.998405
0.982925
0.96441
0.940622
0.91358
0.882845
0.851364
0.82161
0.796647
0.779125
0.770501
0.767697
0.766745
0.766282
0.766026
0.76588
0.765837
0.765873
0.765942
0.766009
0.766026
0.765883
0.765721
0.765565
0.765404
0.765229
0.765068
0.764922
0.764833
0.764786
0.764776
0.764805
0.76487
0.76496
0.765048
0.765121
0.765183
0.765232
0.765273
0.765309
0.765343
0.765377
0.765423
0.765478
0.765523
0.765528
0.765514
0.765484
0.765432
0.765355
0.76526
0.765184
0.765158
0.765152
0.765167
0.765208
0.765265
0.765316
0.765342
0.765348
0.765346
0.765327
0.765292
0.765271
0.765277
0.765291
0.765317
0.765363
0.765419
0.765455
0.765465
0.765465
0.765453
0.765429
0.765406
0.765404
0.765415
0.765446
0.765505
0.765597
0.765712
0.765831
0.765931
0.766008
0.766064
0.766101
0.766116
0.766085
0.765987
0.765895
0.765836
0.765797
0.765774
0.765724
0.765664
0.765608
0.765597
0.765646
0.765709
0.765763
0.765812
0.765848
0.765867
0.765869
0.765853
0.765831
0.765807
0.76578
0.76575
0.765722
0.765707
0.765704
0.765704
0.765705
0.765701
0.765694
0.765685
0.765675
0.765663
0.765646
0.765627
0.765619
0.765622
0.765628
0.765637
0.765651
0.765668
0.765677
0.765677
0.765675
0.76567
0.76566
0.765649
0.765644
0.765645
0.765648
0.765655
0.765669
0.765687
0.765705
0.765713
0.765713
0.765711
0.765707
0.765699
0.765688
0.765675
0.765666
0.765661
0.76566
0.765656
0.765644
0.765583
0.765227
0.763012
0.749378
0.674074
0.394283
0.0515481
0.000562849
4.06165e-07
1.53384e-11
2.26267e-14
2.28114e-14
2.23793e-14
1.84159e-14
2.09302e-14
2.40144e-14
2.33933e-14
2.38156e-14
2.28814e-14
2.71808e-14
3.35267e-14
3.51853e-14
3.52219e-14
3.49997e-14
3.2808e-14
2.8267e-14
2.49008e-14
2.13161e-14
1.6649e-14
1.00089e-14
5.03341e-15
3.5177e-15
1.10191e-14
1.158e-14
1.35033e-14
2.03169e-14
2.21822e-14
2.50637e-14
2.94518e-14
2.75649e-14
2.70075e-14
2.93148e-14
2.8726e-14
2.89056e-14
3.03076e-14
2.76303e-14
3.50779e-14
4.10427e-14
4.80921e-14
5.73046e-14
5.11846e-14
4.62365e-14
4.25592e-14
3.73268e-14
3.37675e-14
3.24505e-14
2.51317e-14
2.05784e-14
2.34624e-14
2.86961e-14
2.85936e-14
3.01333e-14
3.00638e-14
2.99891e-14
3.2885e-14
2.66648e-14
1.94102e-14
1.43449e-14
1.45821e-14
1.25883e-14
1.15072e-14
1.02801e-14
1.15896e-14
1.27656e-14
1.28751e-14
1.32876e-14
1.46272e-14
1.91529e-14
2.00424e-14
2.18952e-14
2.39773e-14
2.46169e-14
2.22398e-14
2.24639e-14
2.31932e-14
2.02121e-14
1.98381e-14
2.04933e-14
1.84174e-14
1.6947e-14
1.81522e-14
1.95644e-14
1.80703e-14
1.35046e-14
1.04741e-14
1.00605e-14
6.70848e-15
7.67642e-15
6.36594e-15
5.86317e-15
1.33598e-14
2.14369e-14
2.58281e-14
2.92408e-14
3.19955e-14
3.33239e-14
3.50204e-14
3.17764e-14
2.66006e-14
2.35133e-14
2.18774e-14
1.98953e-14
1.52496e-14
1.40355e-14
1.33016e-14
1.58805e-14
1.52209e-14
1.3857e-14
1.63132e-14
1.98177e-14
2.33793e-14
2.36903e-14
2.42365e-14
2.35425e-14
2.0422e-14
2.00375e-14
2.19149e-14
2.04965e-14
1.68401e-14
1.30923e-14
1.132
1.132
1.132
1.132
1.132
1.132
1.132
1.132
1.132
1.132
1.132
1.13199
1.13153
1.12128
1.05682
1.02147
1.02027
1.02016
1.0201
1.02002
1.01993
1.01986
1.01981
1.01976
1.01965
1.0195
1.01935
1.01922
1.01911
1.019
1.01895
1.01894
1.01896
1.01897
1.019
1.01899
1.01895
1.0189
1.01886
1.01884
1.01884
1.01886
1.01891
1.01896
1.01899
1.01902
1.01904
1.01905
1.01905
1.01905
1.01906
1.01906
1.01907
1.0191
1.01912
1.01913
1.01913
1.01914
1.01915
1.01915
1.01915
1.01915
1.01915
1.01915
1.01914
1.01912
1.01911
1.0191
1.01908
1.01907
1.01907
1.01907
1.01907
1.01906
1.01905
1.01904
1.01902
1.01901
1.019
1.01901
1.01901
1.01903
1.01906
1.01908
1.01909
1.0191
1.0191
1.0191
1.0191
1.01909
1.01909
1.0191
1.01911
1.01911
1.01911
1.01911
1.01911
1.01911
1.0191
1.0191
1.0191
1.01911
1.01911
1.0191
1.0191
1.01909
1.01908
1.01908
1.01908
1.01908
1.01909
1.01909
1.01908
1.01907
1.01907
1.01906
1.01906
1.01906
1.01906
1.01907
1.01908
1.01908
1.01908
1.01908
1.01908
1.01907
1.01908
1.01908
1.01909
1.0191
1.0191
1.0191
1.0191
1.0191
1.0191
1.01909
1.01909
1.0191
1.0191
1.0191
1.01909
1.01909
1.01909
1.01908
1.01908
1.01908
1.01909
1.01909
1.01909
1.01909
1.01909
1.01908
1.01908
1.01907
1.01907
1.01908
1.01908
1.01908
1.01909
1.01909
1.01909
1.01899
1.01879
1.01871
1.01933
1.02146
1.02508
1.02903
1.03204
1.03361
1.03395
1.0336
1.03311
1.0327
1.03244
1.03203
1.03122
1.02972
1.02717
1.0232
1.01749
1.00901
0.998349
0.982799
0.964202
0.940515
0.913397
0.882726
0.851228
0.821708
0.796911
0.779346
0.770571
0.767856
0.766868
0.766326
0.766051
0.765892
0.76584
0.765871
0.765938
0.766002
0.766021
0.765884
0.765722
0.765565
0.765403
0.765227
0.765064
0.764914
0.764823
0.764775
0.764765
0.764791
0.764855
0.764944
0.765031
0.765104
0.765164
0.765214
0.765255
0.765291
0.765325
0.765361
0.765407
0.765463
0.765508
0.765513
0.7655
0.765469
0.765417
0.76534
0.765244
0.765168
0.765144
0.765138
0.765154
0.765196
0.765253
0.765304
0.76533
0.765335
0.765333
0.765314
0.765278
0.765257
0.765264
0.765278
0.765305
0.765352
0.765409
0.765445
0.765455
0.765455
0.765444
0.765419
0.765395
0.765395
0.765408
0.765444
0.765514
0.765622
0.765762
0.765913
0.766048
0.766157
0.76624
0.766298
0.766318
0.766271
0.766145
0.765996
0.765895
0.765811
0.765742
0.765664
0.76558
0.765506
0.765513
0.765585
0.765667
0.765741
0.765805
0.765845
0.765864
0.765868
0.765853
0.765831
0.765807
0.765782
0.765754
0.76573
0.765719
0.765716
0.765717
0.765714
0.765707
0.765696
0.765684
0.765672
0.765659
0.765642
0.765626
0.765622
0.765626
0.765632
0.765642
0.765656
0.76567
0.765677
0.765676
0.765673
0.765668
0.765658
0.765649
0.765645
0.765647
0.765651
0.765659
0.765672
0.765689
0.765705
0.765713
0.765712
0.76571
0.765707
0.7657
0.765689
0.765676
0.765668
0.765664
0.765661
0.765657
0.765644
0.765582
0.765226
0.763012
0.749377
0.674073
0.394277
0.0515455
0.000562797
4.06109e-07
1.53333e-11
1.97036e-14
1.82968e-14
2.00311e-14
1.97316e-14
1.70363e-14
2.066e-14
2.1912e-14
2.30993e-14
2.16761e-14
2.81039e-14
3.07661e-14
3.24709e-14
3.10489e-14
3.17349e-14
3.21702e-14
2.72755e-14
2.33734e-14
2.03968e-14
1.60621e-14
1.04867e-14
4.69155e-15
1.39191e-15
7.48715e-15
1.29458e-14
1.46483e-14
1.84345e-14
2.17443e-14
2.47466e-14
2.83153e-14
2.73659e-14
2.8178e-14
2.93726e-14
2.74566e-14
2.62899e-14
2.49718e-14
2.48127e-14
3.2293e-14
3.51969e-14
4.17872e-14
4.73759e-14
4.58386e-14
4.01462e-14
3.40651e-14
2.9776e-14
2.68931e-14
2.69618e-14
2.20626e-14
2.20327e-14
2.3277e-14
2.32132e-14
2.59253e-14
2.72544e-14
2.56912e-14
2.61228e-14
2.65298e-14
2.27072e-14
1.64951e-14
1.17197e-14
1.21352e-14
1.01748e-14
8.28316e-15
8.41839e-15
1.0896e-14
9.75952e-15
8.26632e-15
1.03072e-14
1.34997e-14
1.79331e-14
1.88207e-14
1.93873e-14
2.01391e-14
2.01982e-14
1.87971e-14
1.86889e-14
1.83412e-14
1.53468e-14
1.5886e-14
1.61779e-14
1.51983e-14
1.38198e-14
1.63214e-14
1.90881e-14
1.64615e-14
1.25598e-14
1.14006e-14
8.28574e-15
5.38813e-15
5.45321e-15
6.85744e-15
6.68258e-15
1.51512e-14
2.24651e-14
2.53467e-14
2.71952e-14
2.88823e-14
3.17324e-14
3.1441e-14
2.7929e-14
2.39573e-14
2.16932e-14
1.83971e-14
1.88799e-14
1.74161e-14
1.22799e-14
1.38415e-14
1.77297e-14
1.60532e-14
1.57509e-14
1.56691e-14
2.12864e-14
2.4399e-14
2.39248e-14
2.41795e-14
2.30554e-14
2.13292e-14
2.02429e-14
2.01389e-14
2.13266e-14
1.96226e-14
1.61855e-14
1.132
1.132
1.132
1.132
1.132
1.132
1.132
1.132
1.132
1.132
1.132
1.13199
1.13153
1.12128
1.05682
1.02147
1.02027
1.02016
1.0201
1.02002
1.01993
1.01986
1.01981
1.01976
1.01965
1.0195
1.01935
1.01922
1.01911
1.019
1.01895
1.01894
1.01896
1.01897
1.01899
1.01899
1.01895
1.0189
1.01886
1.01884
1.01884
1.01886
1.01891
1.01896
1.01899
1.01902
1.01904
1.01905
1.01905
1.01905
1.01906
1.01906
1.01907
1.0191
1.01912
1.01913
1.01913
1.01914
1.01915
1.01915
1.01915
1.01915
1.01915
1.01915
1.01914
1.01912
1.01911
1.0191
1.01908
1.01907
1.01907
1.01907
1.01907
1.01906
1.01905
1.01904
1.01902
1.01901
1.019
1.01901
1.01901
1.01903
1.01906
1.01908
1.01909
1.0191
1.0191
1.0191
1.0191
1.01909
1.01909
1.0191
1.01911
1.01911
1.01911
1.01911
1.01911
1.01911
1.0191
1.0191
1.0191
1.01911
1.01911
1.0191
1.0191
1.01909
1.01908
1.01908
1.01908
1.01908
1.01909
1.01909
1.01908
1.01907
1.01907
1.01906
1.01906
1.01906
1.01906
1.01907
1.01908
1.01908
1.01908
1.01908
1.01908
1.01907
1.01908
1.01908
1.01909
1.0191
1.0191
1.0191
1.0191
1.0191
1.0191
1.01909
1.01909
1.0191
1.0191
1.0191
1.01909
1.01909
1.01909
1.01908
1.01908
1.01908
1.01909
1.01909
1.01909
1.01909
1.01909
1.01908
1.01908
1.01907
1.01907
1.01908
1.01908
1.01908
1.01909
1.01909
1.01909
1.01899
1.01879
1.0187
1.01932
1.02145
1.02507
1.02905
1.03208
1.03366
1.03398
1.03359
1.03306
1.03263
1.03239
1.03202
1.03125
1.02976
1.0272
1.02318
1.01745
1.00892
0.998285
0.982701
0.964053
0.940421
0.913271
0.882629
0.851164
0.821657
0.796932
0.779378
0.770599
0.768012
0.767007
0.766398
0.7661
0.765923
0.765857
0.765878
0.765942
0.765998
0.76602
0.765892
0.765729
0.765572
0.765408
0.765231
0.765066
0.764915
0.764822
0.764773
0.764761
0.764787
0.76485
0.764938
0.765023
0.765094
0.765154
0.765202
0.765243
0.765278
0.765312
0.765347
0.765394
0.765451
0.765496
0.7655
0.765487
0.765456
0.765404
0.765326
0.765229
0.765153
0.765128
0.765123
0.765139
0.765181
0.765239
0.76529
0.765316
0.765321
0.765319
0.765299
0.765264
0.765242
0.765249
0.765263
0.76529
0.765338
0.765396
0.765432
0.765443
0.765443
0.765432
0.765407
0.765385
0.765388
0.765406
0.765449
0.765533
0.765662
0.765831
0.766022
0.766207
0.766369
0.766493
0.76658
0.766604
0.766537
0.766384
0.766174
0.765977
0.765827
0.765695
0.765577
0.765463
0.76538
0.765407
0.7655
0.765606
0.765702
0.765786
0.765833
0.765857
0.765865
0.765853
0.765832
0.765808
0.765784
0.765759
0.765741
0.765734
0.765733
0.765733
0.765727
0.765715
0.765699
0.765683
0.765669
0.765654
0.765636
0.765624
0.765624
0.76563
0.765638
0.765649
0.765662
0.765673
0.765676
0.765674
0.765671
0.765665
0.765655
0.765648
0.765647
0.76565
0.765655
0.765663
0.765675
0.765692
0.765706
0.765711
0.765711
0.765709
0.765705
0.765699
0.765689
0.765677
0.76567
0.765666
0.765663
0.765658
0.765644
0.765581
0.765224
0.763011
0.749377
0.67407
0.394269
0.0515421
0.00056273
4.06038e-07
1.53336e-11
1.81349e-14
1.60218e-14
1.48154e-14
1.75316e-14
1.54829e-14
1.85317e-14
1.90073e-14
1.78144e-14
2.16007e-14
2.63697e-14
2.65869e-14
3.09957e-14
2.96347e-14
3.16516e-14
2.94797e-14
2.47986e-14
2.26689e-14
2.03859e-14
1.53595e-14
1.07333e-14
5.34008e-15
1.9744e-15
7.78914e-15
1.23943e-14
1.53661e-14
1.81788e-14
2.0135e-14
2.117e-14
2.39941e-14
2.87177e-14
3.00898e-14
2.74482e-14
2.58645e-14
2.60556e-14
2.44735e-14
2.69054e-14
3.39183e-14
3.33613e-14
3.52889e-14
3.69132e-14
3.89478e-14
3.42568e-14
2.89375e-14
2.49975e-14
2.23901e-14
2.22277e-14
2.34677e-14
2.35454e-14
2.35716e-14
2.32235e-14
2.36746e-14
2.47244e-14
2.33961e-14
2.32827e-14
2.20871e-14
1.95778e-14
1.59102e-14
1.42492e-14
1.16409e-14
7.07226e-15
6.86839e-15
6.01587e-15
8.832e-15
9.57371e-15
8.91178e-15
1.07591e-14
1.33762e-14
1.35195e-14
1.60481e-14
1.91388e-14
1.87845e-14
1.75756e-14
1.65062e-14
1.80322e-14
1.41461e-14
1.34519e-14
1.38819e-14
1.34425e-14
1.58232e-14
1.53802e-14
1.61479e-14
1.66e-14
1.67318e-14
1.57657e-14
1.25201e-14
1.00296e-14
1.0771e-14
4.58211e-15
3.59891e-15
7.72907e-15
1.39902e-14
2.07803e-14
2.31995e-14
2.51934e-14
2.7898e-14
2.87825e-14
2.81433e-14
2.52228e-14
2.34958e-14
2.06014e-14
2.01938e-14
2.08755e-14
1.98804e-14
1.45989e-14
1.49718e-14
1.48538e-14
1.47096e-14
1.27669e-14
1.39683e-14
1.93033e-14
2.26846e-14
2.43227e-14
2.59013e-14
2.3784e-14
2.09021e-14
1.98848e-14
2.098e-14
2.13242e-14
2.16369e-14
2.20145e-14
1.132
1.132
1.132
1.132
1.132
1.132
1.132
1.132
1.132
1.132
1.132
1.13199
1.13153
1.12128
1.05682
1.02147
1.02027
1.02016
1.0201
1.02002
1.01993
1.01986
1.01981
1.01976
1.01965
1.0195
1.01935
1.01922
1.01911
1.019
1.01895
1.01894
1.01896
1.01897
1.01899
1.01899
1.01895
1.0189
1.01886
1.01884
1.01884
1.01886
1.01891
1.01896
1.01899
1.01902
1.01904
1.01905
1.01905
1.01905
1.01906
1.01906
1.01907
1.0191
1.01912
1.01913
1.01913
1.01914
1.01915
1.01915
1.01915
1.01915
1.01915
1.01915
1.01914
1.01912
1.01911
1.0191
1.01908
1.01907
1.01907
1.01907
1.01907
1.01906
1.01905
1.01904
1.01902
1.01901
1.019
1.01901
1.01901
1.01903
1.01906
1.01908
1.01909
1.0191
1.0191
1.0191
1.0191
1.01909
1.01909
1.0191
1.01911
1.01911
1.01911
1.01911
1.01911
1.01911
1.0191
1.0191
1.0191
1.01911
1.01911
1.0191
1.0191
1.01909
1.01908
1.01908
1.01908
1.01908
1.01909
1.01909
1.01908
1.01907
1.01907
1.01906
1.01906
1.01906
1.01906
1.01907
1.01908
1.01908
1.01908
1.01908
1.01908
1.01907
1.01908
1.01908
1.01909
1.0191
1.0191
1.0191
1.0191
1.0191
1.0191
1.01909
1.01909
1.0191
1.0191
1.0191
1.01909
1.01909
1.01909
1.01908
1.01908
1.01908
1.01909
1.01909
1.01909
1.01909
1.01909
1.01908
1.01908
1.01907
1.01907
1.01908
1.01908
1.01908
1.01909
1.01909
1.01909
1.01899
1.01878
1.0187
1.01931
1.02144
1.02506
1.02906
1.0321
1.0337
1.03401
1.03358
1.03301
1.03257
1.03234
1.03201
1.03128
1.02979
1.02723
1.02316
1.01741
1.00884
0.998224
0.982621
0.963956
0.940345
0.913167
0.882573
0.851126
0.821611
0.796916
0.779376
0.770578
0.768131
0.767126
0.766463
0.766136
0.765945
0.765871
0.765886
0.765947
0.765998
0.766022
0.765905
0.765741
0.765584
0.765419
0.765241
0.765074
0.764921
0.764826
0.764777
0.764763
0.764789
0.764852
0.764938
0.765021
0.765092
0.76515
0.765198
0.765237
0.765272
0.765305
0.76534
0.765388
0.765445
0.76549
0.765493
0.765479
0.765448
0.765395
0.765316
0.765219
0.765142
0.765117
0.765111
0.765127
0.76517
0.765228
0.76528
0.765305
0.76531
0.765308
0.765288
0.765251
0.765229
0.765235
0.76525
0.765277
0.765325
0.765383
0.76542
0.765431
0.765432
0.76542
0.765396
0.765378
0.765385
0.765408
0.765462
0.76556
0.765706
0.765902
0.766137
0.766381
0.766604
0.766779
0.766898
0.76692
0.766838
0.766659
0.766398
0.766104
0.765845
0.76564
0.765488
0.765356
0.765268
0.765306
0.765413
0.765538
0.765654
0.765754
0.765812
0.765845
0.765861
0.765855
0.765834
0.76581
0.765787
0.765764
0.765751
0.765749
0.765751
0.765749
0.76574
0.765724
0.765702
0.765682
0.765666
0.765648
0.76563
0.765621
0.765625
0.765633
0.765644
0.765656
0.765669
0.765677
0.765675
0.765672
0.765667
0.76566
0.765651
0.765647
0.765649
0.765653
0.765659
0.765667
0.76568
0.765694
0.765706
0.76571
0.765708
0.765705
0.765702
0.765696
0.765687
0.765677
0.765671
0.765668
0.765665
0.76566
0.765645
0.765581
0.765224
0.763011
0.749376
0.674067
0.394259
0.0515382
0.000562655
4.0596e-07
1.53271e-11
1.71503e-14
1.51883e-14
1.21299e-14
1.4419e-14
1.39709e-14
1.4403e-14
1.65745e-14
1.9442e-14
2.1024e-14
1.99998e-14
2.62361e-14
3.12424e-14
2.66026e-14
2.78924e-14
2.83783e-14
2.5537e-14
2.2463e-14
1.89115e-14
1.33096e-14
8.12665e-15
9.25029e-15
3.39986e-15
7.11467e-15
1.29271e-14
1.61899e-14
1.83215e-14
2.21697e-14
2.38555e-14
2.27522e-14
2.48672e-14
2.75886e-14
2.65444e-14
2.43357e-14
2.58867e-14
2.79874e-14
2.93906e-14
3.15512e-14
2.97343e-14
2.90356e-14
3.26079e-14
2.99718e-14
2.79968e-14
2.642e-14
2.34647e-14
2.17889e-14
2.55773e-14
2.4359e-14
2.38928e-14
2.49528e-14
2.25979e-14
2.23533e-14
2.26182e-14
2.24883e-14
2.22885e-14
2.1231e-14
1.96782e-14
1.73917e-14
1.62319e-14
1.34409e-14
6.4198e-15
1.65051e-15
5.66374e-15
5.97194e-15
6.36755e-15
5.67695e-15
6.21987e-15
8.77839e-15
1.16623e-14
1.62915e-14
1.77857e-14
1.64595e-14
1.79659e-14
1.77399e-14
1.70935e-14
1.32971e-14
1.07521e-14
1.00887e-14
1.25833e-14
1.5315e-14
1.77255e-14
1.64753e-14
1.72291e-14
1.64588e-14
1.46761e-14
1.3523e-14
1.13111e-14
8.7482e-15
1.94499e-15
6.29174e-15
6.71217e-15
1.18278e-14
1.83315e-14
2.10186e-14
2.45885e-14
2.60725e-14
2.89737e-14
2.71048e-14
2.15152e-14
2.20991e-14
2.16567e-14
2.18233e-14
1.96739e-14
1.9246e-14
1.60373e-14
1.3521e-14
1.2481e-14
9.76155e-15
9.55166e-15
1.3161e-14
1.7269e-14
2.44342e-14
2.68757e-14
2.65828e-14
2.32322e-14
2.05808e-14
2.15825e-14
2.24431e-14
2.24492e-14
2.06566e-14
2.0709e-14
1.132
1.132
1.132
1.132
1.132
1.132
1.132
1.132
1.132
1.132
1.132
1.13199
1.13153
1.12128
1.05682
1.02147
1.02027
1.02016
1.0201
1.02002
1.01993
1.01986
1.01981
1.01976
1.01965
1.0195
1.01935
1.01922
1.01911
1.019
1.01895
1.01894
1.01896
1.01897
1.01899
1.01899
1.01895
1.0189
1.01886
1.01884
1.01884
1.01886
1.01891
1.01896
1.01899
1.01902
1.01904
1.01905
1.01905
1.01905
1.01906
1.01906
1.01907
1.0191
1.01912
1.01913
1.01913
1.01914
1.01915
1.01915
1.01915
1.01915
1.01915
1.01915
1.01914
1.01912
1.01911
1.0191
1.01908
1.01907
1.01907
1.01907
1.01907
1.01906
1.01905
1.01904
1.01902
1.01901
1.019
1.01901
1.01901
1.01903
1.01906
1.01908
1.01909
1.0191
1.0191
1.0191
1.0191
1.01909
1.01909
1.0191
1.01911
1.01911
1.01911
1.01911
1.01911
1.01911
1.0191
1.0191
1.0191
1.01911
1.01911
1.0191
1.0191
1.01909
1.01908
1.01908
1.01908
1.01908
1.01909
1.01909
1.01908
1.01907
1.01907
1.01906
1.01906
1.01906
1.01906
1.01907
1.01908
1.01908
1.01908
1.01908
1.01908
1.01907
1.01908
1.01908
1.01909
1.0191
1.0191
1.0191
1.0191
1.0191
1.0191
1.01909
1.01909
1.0191
1.0191
1.0191
1.01909
1.01909
1.01909
1.01908
1.01908
1.01908
1.01909
1.01909
1.01909
1.01909
1.01909
1.01908
1.01908
1.01907
1.01907
1.01908
1.01908
1.01908
1.01909
1.01909
1.01909
1.01899
1.01878
1.0187
1.01931
1.02143
1.02505
1.02907
1.03212
1.03373
1.03403
1.03357
1.03298
1.03252
1.03231
1.032
1.03131
1.02982
1.02726
1.02315
1.01738
1.00878
0.998168
0.982552
0.963901
0.940278
0.91308
0.882546
0.851118
0.821596
0.796871
0.779314
0.770552
0.768236
0.76723
0.76652
0.766152
0.765947
0.765862
0.765878
0.765939
0.765987
0.766024
0.765916
0.76575
0.765591
0.765423
0.765242
0.765071
0.764915
0.764821
0.764771
0.764758
0.764784
0.764849
0.764938
0.765022
0.765092
0.765149
0.765195
0.765233
0.765268
0.765301
0.765337
0.765385
0.765443
0.765488
0.765491
0.765477
0.765445
0.765391
0.765312
0.765213
0.765135
0.76511
0.765104
0.76512
0.765163
0.765222
0.765273
0.765299
0.765303
0.765301
0.76528
0.765243
0.76522
0.765226
0.765241
0.765268
0.765316
0.765374
0.765411
0.765421
0.765422
0.76541
0.765387
0.765375
0.765387
0.765418
0.765482
0.765589
0.765744
0.765958
0.766227
0.766527
0.76682
0.767052
0.767196
0.767208
0.76712
0.766932
0.766634
0.766254
0.765872
0.765574
0.765404
0.765285
0.765204
0.765233
0.765336
0.765468
0.765599
0.765712
0.765784
0.765829
0.765858
0.765858
0.765836
0.765812
0.765789
0.76577
0.765759
0.76576
0.765764
0.765761
0.765752
0.765732
0.765705
0.765682
0.765662
0.765642
0.765624
0.765618
0.765624
0.765634
0.765647
0.765661
0.765674
0.76568
0.765676
0.76567
0.765664
0.765655
0.765646
0.765644
0.765648
0.765654
0.765661
0.765671
0.765684
0.765697
0.765706
0.765708
0.765705
0.765702
0.765699
0.765693
0.765685
0.765677
0.765672
0.76567
0.765667
0.765661
0.765646
0.765582
0.765224
0.763011
0.749376
0.674064
0.39425
0.0515344
0.000562584
4.05888e-07
1.53236e-11
1.53672e-14
1.18582e-14
8.56561e-15
9.96277e-15
1.07373e-14
9.01606e-15
1.16092e-14
1.36015e-14
1.67449e-14
1.97597e-14
2.41396e-14
2.75894e-14
2.68437e-14
2.87179e-14
2.64266e-14
2.44269e-14
2.27874e-14
1.99363e-14
1.6167e-14
8.97692e-15
5.55484e-15
5.74329e-15
9.58059e-15
1.43797e-14
1.79456e-14
1.88018e-14
1.96807e-14
2.22065e-14
2.42762e-14
2.543e-14
2.51918e-14
2.48616e-14
2.51472e-14
2.57319e-14
2.63008e-14
2.77677e-14
2.73125e-14
2.79351e-14
2.60455e-14
2.54653e-14
2.39223e-14
2.36195e-14
2.23231e-14
2.09903e-14
2.05849e-14
2.29234e-14
2.16642e-14