/*--------------------------------*- C++ -*----------------------------------*\
| =========                 |                                                 |
| \\      /  F ield         | OpenFOAM: The Open Source CFD Toolbox           |
|  \\    /   O peration     | Version:  2406                                  |
|   \\  /    A nd           | Website:  www.openfoam.com                      |
|    \\/     M anipulation  |                                                 |
\*---------------------------------------------------------------------------*/
FoamFile
{
    version     2.0;
    format      ascii;
    arch        "LSB;label=32;scalar=64";
    class       volScalarField;
    location    "0.025";
    object      rho;
}
// * * * * * * * * * * * * * * * * * * * * * * * * * * * * * * * * * * * * * //

dimensions      [1 -3 0 0 0 0 0];

internalField   nonuniform List<scalar> 
13962
(
4.32005
4.32005
4.32005
4.32005
4.32005
4.32005
4.32005
4.32005
4.32005
4.32005
4.32005
4.32011
4.32172
4.35792
4.59678
4.73205
4.73407
4.73399
4.73429
4.73487
4.73591
4.73729
4.73847
4.73937
4.73979
4.73987
4.73951
4.73907
4.73883
4.73881
4.73919
4.73973
4.74031
4.74071
4.74106
4.74117
4.74105
4.74079
4.74069
4.7407
4.7407
4.74075
4.74087
4.74096
4.74093
4.74089
4.74077
4.74056
4.74029
4.74006
4.73988
4.73969
4.73957
4.73958
4.73966
4.73974
4.7398
4.73988
4.73997
4.74001
4.73999
4.73997
4.73996
4.73995
4.73996
4.73999
4.74005
4.7401
4.74016
4.74022
4.74026
4.74025
4.74023
4.7402
4.74019
4.74017
4.74013
4.74012
4.74014
4.74015
4.74016
4.74015
4.74014
4.74017
4.7402
4.74019
4.74018
4.74016
4.74013
4.74009
4.74003
4.73995
4.73992
4.73993
4.73994
4.73996
4.73999
4.74001
4.74002
4.74001
4.73999
4.73995
4.73994
4.73995
4.73998
4.74001
4.74005
4.74008
4.7401
4.7401
4.74007
4.74006
4.74007
4.74007
4.74008
4.7401
4.74012
4.74012
4.74012
4.74009
4.74008
4.74008
4.74008
4.74008
4.74008
4.74008
4.74007
4.74006
4.74003
4.74
4.74001
4.74003
4.74005
4.74006
4.74008
4.74007
4.74005
4.74001
4.73997
4.73996
4.73996
4.73997
4.73999
4.74002
4.74003
4.74004
4.74002
4.74002
4.74003
4.74005
4.74005
4.74007
4.74009
4.74009
4.74008
4.74005
4.74003
4.74005
4.74002
4.73999
4.74001
4.74037
4.74117
4.7414
4.73883
4.73035
4.71626
4.70073
4.68934
4.68363
4.68132
4.68107
4.68056
4.67878
4.67506
4.66911
4.65998
4.64586
4.62414
4.59114
4.54232
4.4733
4.37728
4.25307
4.09387
3.90865
3.67263
3.4435
3.21418
3.00456
2.83593
2.72565
2.6747
2.66051
2.65895
2.65997
2.6614
2.66332
2.66564
2.66827
2.67097
2.6735
2.67541
2.6763
2.67683
2.67724
2.67747
2.67747
2.6773
2.67704
2.6769
2.67684
2.67683
2.67694
2.67718
2.67753
2.67788
2.67816
2.67839
2.6786
2.67877
2.67894
2.67909
2.67922
2.67938
2.67958
2.67973
2.67975
2.67971
2.67962
2.67946
2.67923
2.67896
2.67876
2.67874
2.67879
2.67891
2.67911
2.67935
2.67955
2.67966
2.67968
2.67966
2.67957
2.67941
2.67928
2.67923
2.67921
2.67921
2.67928
2.67938
2.67943
2.67941
2.67937
2.67929
2.67919
2.6791
2.67908
2.67909
2.67914
2.67925
2.67938
2.6795
2.67957
2.67958
2.67953
2.67945
2.67939
2.67939
2.67947
2.67959
2.67996
2.68052
2.68122
2.68196
2.68247
2.68272
2.68275
2.68262
2.68248
2.68236
2.68219
2.68201
2.68183
2.68168
2.68155
2.68142
2.6813
2.68119
2.68108
2.68095
2.68082
2.68074
2.68071
2.68069
2.68069
2.68069
2.68067
2.68064
2.6806
2.68054
2.68046
2.68036
2.6803
2.68028
2.68028
2.6803
2.68035
2.68041
2.68044
2.68044
2.68042
2.68039
2.68034
2.68027
2.68023
2.68021
2.6802
2.68021
2.68025
2.68032
2.68038
2.68041
2.68042
2.68042
2.68041
2.68038
2.68034
2.68029
2.68025
2.68023
2.68021
2.68019
2.68014
2.67994
2.67879
2.67175
2.62871
2.40261
1.76542
1.27898
1.2219
1.22125
1.22125
1.22125
1.22125
1.22125
1.22125
1.22125
1.22125
1.22125
1.22125
1.22125
1.22125
1.22125
1.22125
1.22125
1.22125
1.22125
1.22125
1.22125
1.22125
1.22125
1.22125
1.22125
1.22125
1.22125
1.22125
1.22125
1.22125
1.22125
1.22125
1.22125
1.22125
1.22125
1.22125
1.22125
1.22125
1.22125
1.22125
1.22125
1.22125
1.22125
1.22125
1.22125
1.22125
1.22125
1.22125
1.22125
1.22125
1.22125
1.22125
1.22125
1.22125
1.22125
1.22125
1.22125
1.22125
1.22125
1.22125
1.22125
1.22125
1.22125
1.22125
1.22125
1.22125
1.22125
1.22125
1.22125
1.22125
1.22125
1.22125
1.22125
1.22125
1.22125
1.22125
1.22125
1.22125
1.22125
1.22125
1.22125
1.22125
1.22125
1.22125
1.22125
1.22125
1.22125
1.22125
1.22125
1.22125
1.22125
1.22125
1.22125
1.22125
1.22125
1.22125
1.22125
1.22125
1.22125
1.22125
1.22125
1.22125
1.22125
1.22125
1.22125
1.22125
1.22125
1.22125
1.22125
1.22125
1.22125
1.22125
1.22125
1.22125
1.22125
1.22125
1.22125
1.22125
1.22125
1.22125
1.22125
1.22125
1.22125
1.22125
4.32005
4.32005
4.32005
4.32005
4.32005
4.32005
4.32005
4.32005
4.32005
4.32005
4.32005
4.32011
4.32172
4.35792
4.59678
4.73205
4.73407
4.73399
4.73429
4.73487
4.73591
4.73729
4.73847
4.73937
4.73979
4.73987
4.73951
4.73907
4.73883
4.73881
4.73919
4.73973
4.74031
4.74071
4.74106
4.74117
4.74105
4.74079
4.74069
4.7407
4.7407
4.74075
4.74087
4.74096
4.74093
4.74089
4.74077
4.74056
4.74029
4.74006
4.73988
4.73969
4.73957
4.73958
4.73966
4.73974
4.7398
4.73988
4.73997
4.74001
4.73999
4.73997
4.73996
4.73995
4.73996
4.73999
4.74005
4.7401
4.74016
4.74022
4.74026
4.74025
4.74023
4.7402
4.74019
4.74017
4.74013
4.74012
4.74014
4.74015
4.74016
4.74015
4.74014
4.74017
4.7402
4.74019
4.74018
4.74016
4.74013
4.74009
4.74003
4.73995
4.73992
4.73993
4.73994
4.73996
4.73999
4.74001
4.74002
4.74001
4.73999
4.73995
4.73994
4.73995
4.73998
4.74001
4.74005
4.74008
4.7401
4.7401
4.74007
4.74006
4.74007
4.74007
4.74008
4.7401
4.74012
4.74012
4.74012
4.74009
4.74008
4.74008
4.74008
4.74008
4.74008
4.74008
4.74007
4.74006
4.74003
4.74
4.74001
4.74003
4.74005
4.74006
4.74008
4.74007
4.74005
4.74001
4.73997
4.73996
4.73996
4.73997
4.73999
4.74002
4.74003
4.74004
4.74002
4.74002
4.74003
4.74005
4.74005
4.74007
4.74009
4.74009
4.74008
4.74005
4.74003
4.74005
4.74002
4.73999
4.74001
4.74037
4.74117
4.74142
4.73889
4.73043
4.71629
4.70064
4.68914
4.68338
4.68118
4.68115
4.68083
4.67913
4.6753
4.66918
4.6599
4.64572
4.62402
4.59121
4.54234
4.47373
4.3773
4.25373
4.09406
3.90767
3.69175
3.45571
3.22105
3.00824
2.83771
2.7262
2.67481
2.66065
2.65889
2.65982
2.66125
2.66316
2.66548
2.66813
2.67084
2.67339
2.67532
2.67623
2.67678
2.67719
2.67743
2.67743
2.67726
2.67701
2.67688
2.67681
2.67681
2.67692
2.67716
2.67752
2.67786
2.67814
2.67837
2.67858
2.67876
2.67893
2.67908
2.67922
2.67938
2.67958
2.67973
2.67975
2.67971
2.67961
2.67945
2.67923
2.67896
2.67876
2.67874
2.67879
2.67891
2.67911
2.67935
2.67956
2.67966
2.67968
2.67966
2.67957
2.6794
2.67927
2.67923
2.6792
2.67921
2.67927
2.67938
2.67943
2.67941
2.67937
2.6793
2.67919
2.6791
2.67908
2.67909
2.67915
2.67925
2.67939
2.67951
2.67958
2.67959
2.67954
2.67947
2.6794
2.6794
2.67948
2.67959
2.67995
2.6805
2.6812
2.68194
2.68246
2.68271
2.68275
2.68262
2.68251
2.68238
2.68221
2.68203
2.68184
2.68167
2.68154
2.68141
2.68129
2.68119
2.68108
2.68095
2.68083
2.68075
2.68072
2.6807
2.6807
2.68069
2.68067
2.68064
2.6806
2.68054
2.68046
2.68036
2.6803
2.68029
2.68028
2.6803
2.68035
2.68041
2.68044
2.68044
2.68042
2.68039
2.68034
2.68027
2.68023
2.68021
2.6802
2.68021
2.68025
2.68032
2.68038
2.68041
2.68042
2.68042
2.68041
2.68038
2.68034
2.68029
2.68025
2.68023
2.68022
2.68019
2.68014
2.67994
2.67879
2.67176
2.62871
2.40261
1.76541
1.27897
1.2219
1.22125
1.22125
1.22125
1.22125
1.22125
1.22125
1.22125
1.22125
1.22125
1.22125
1.22125
1.22125
1.22125
1.22125
1.22125
1.22125
1.22125
1.22125
1.22125
1.22125
1.22125
1.22125
1.22125
1.22125
1.22125
1.22125
1.22125
1.22125
1.22125
1.22125
1.22125
1.22125
1.22125
1.22125
1.22125
1.22125
1.22125
1.22125
1.22125
1.22125
1.22125
1.22125
1.22125
1.22125
1.22125
1.22125
1.22125
1.22125
1.22125
1.22125
1.22125
1.22125
1.22125
1.22125
1.22125
1.22125
1.22125
1.22125
1.22125
1.22125
1.22125
1.22125
1.22125
1.22125
1.22125
1.22125
1.22125
1.22125
1.22125
1.22125
1.22125
1.22125
1.22125
1.22125
1.22125
1.22125
1.22125
1.22125
1.22125
1.22125
1.22125
1.22125
1.22125
1.22125
1.22125
1.22125
1.22125
1.22125
1.22125
1.22125
1.22125
1.22125
1.22125
1.22125
1.22125
1.22125
1.22125
1.22125
1.22125
1.22125
1.22125
1.22125
1.22125
1.22125
1.22125
1.22125
1.22125
1.22125
1.22125
1.22125
1.22125
1.22125
1.22125
1.22125
1.22125
1.22125
1.22125
1.22125
1.22125
1.22125
1.22125
1.22125
4.32005
4.32005
4.32005
4.32005
4.32005
4.32005
4.32005
4.32005
4.32005
4.32005
4.32005
4.32011
4.32172
4.35792
4.59678
4.73205
4.73407
4.73399
4.73429
4.73487
4.73591
4.73729
4.73847
4.73937
4.73979
4.73987
4.73951
4.73907
4.73883
4.73881
4.73919
4.73973
4.74031
4.74071
4.74106
4.74117
4.74105
4.74079
4.74069
4.7407
4.7407
4.74075
4.74087
4.74096
4.74093
4.74089
4.74077
4.74056
4.74029
4.74006
4.73988
4.73969
4.73957
4.73958
4.73966
4.73974
4.7398
4.73988
4.73997
4.74001
4.73999
4.73997
4.73996
4.73995
4.73996
4.73999
4.74005
4.7401
4.74016
4.74022
4.74026
4.74025
4.74023
4.7402
4.74019
4.74017
4.74013
4.74012
4.74014
4.74015
4.74016
4.74015
4.74014
4.74017
4.7402
4.74019
4.74018
4.74016
4.74013
4.74009
4.74003
4.73995
4.73992
4.73993
4.73994
4.73996
4.73999
4.74001
4.74002
4.74001
4.73999
4.73995
4.73994
4.73995
4.73998
4.74001
4.74005
4.74008
4.7401
4.7401
4.74007
4.74006
4.74007
4.74007
4.74008
4.7401
4.74012
4.74012
4.74012
4.74009
4.74008
4.74008
4.74008
4.74008
4.74008
4.74008
4.74007
4.74006
4.74003
4.74
4.74001
4.74003
4.74005
4.74006
4.74008
4.74007
4.74005
4.74001
4.73997
4.73996
4.73996
4.73997
4.73999
4.74002
4.74003
4.74004
4.74002
4.74002
4.74003
4.74005
4.74005
4.74007
4.74009
4.74009
4.74008
4.74005
4.74003
4.74005
4.74002
4.73999
4.74
4.74036
4.74117
4.74144
4.73895
4.7305
4.71633
4.70055
4.68896
4.68315
4.68104
4.68123
4.68109
4.67947
4.67554
4.66923
4.65979
4.64556
4.6239
4.59127
4.54241
4.47414
4.3774
4.25414
4.09469
3.9074
3.69181
3.46049
3.22609
3.01218
2.8402
2.72726
2.67497
2.66087
2.65893
2.65972
2.66114
2.66305
2.66538
2.66804
2.67078
2.67332
2.67527
2.6762
2.67675
2.67717
2.67742
2.67743
2.67726
2.67701
2.67687
2.67681
2.67681
2.67692
2.67716
2.67751
2.67785
2.67813
2.67836
2.67857
2.67875
2.67892
2.67907
2.67921
2.67938
2.67958
2.67973
2.67975
2.67971
2.67961
2.67945
2.67922
2.67895
2.67876
2.67874
2.67879
2.67891
2.67911
2.67935
2.67956
2.67966
2.67969
2.67967
2.67957
2.6794
2.67927
2.67923
2.6792
2.67921
2.67927
2.67938
2.67943
2.67941
2.67937
2.6793
2.67919
2.6791
2.67908
2.6791
2.67915
2.67925
2.67939
2.67951
2.67958
2.6796
2.67956
2.67949
2.67942
2.67941
2.67949
2.6796
2.67996
2.6805
2.68119
2.68193
2.68248
2.68276
2.68278
2.68266
2.68256
2.68243
2.68225
2.68205
2.68184
2.68165
2.6815
2.68137
2.68126
2.68117
2.68107
2.68096
2.68084
2.68077
2.68074
2.68072
2.68071
2.68069
2.68066
2.68063
2.68058
2.68053
2.68045
2.68036
2.68031
2.6803
2.68029
2.68031
2.68035
2.68041
2.68044
2.68043
2.68042
2.68039
2.68033
2.68027
2.68023
2.68021
2.6802
2.68022
2.68025
2.68032
2.68038
2.68041
2.68042
2.68042
2.68041
2.68038
2.68034
2.68029
2.68026
2.68023
2.68022
2.6802
2.68015
2.67994
2.67879
2.67176
2.62871
2.40261
1.76541
1.27897
1.2219
1.22125
1.22125
1.22125
1.22125
1.22125
1.22125
1.22125
1.22125
1.22125
1.22125
1.22125
1.22125
1.22125
1.22125
1.22125
1.22125
1.22125
1.22125
1.22125
1.22125
1.22125
1.22125
1.22125
1.22125
1.22125
1.22125
1.22125
1.22125
1.22125
1.22125
1.22125
1.22125
1.22125
1.22125
1.22125
1.22125
1.22125
1.22125
1.22125
1.22125
1.22125
1.22125
1.22125
1.22125
1.22125
1.22125
1.22125
1.22125
1.22125
1.22125
1.22125
1.22125
1.22125
1.22125
1.22125
1.22125
1.22125
1.22125
1.22125
1.22125
1.22125
1.22125
1.22125
1.22125
1.22125
1.22125
1.22125
1.22125
1.22125
1.22125
1.22125
1.22125
1.22125
1.22125
1.22125
1.22125
1.22125
1.22125
1.22125
1.22125
1.22125
1.22125
1.22125
1.22125
1.22125
1.22125
1.22125
1.22125
1.22125
1.22125
1.22125
1.22125
1.22125
1.22125
1.22125
1.22125
1.22125
1.22125
1.22125
1.22125
1.22125
1.22125
1.22125
1.22125
1.22125
1.22125
1.22125
1.22125
1.22125
1.22125
1.22125
1.22125
1.22125
1.22125
1.22125
1.22125
1.22125
1.22125
1.22125
1.22125
1.22125
1.22125
4.32005
4.32005
4.32005
4.32005
4.32005
4.32005
4.32005
4.32005
4.32005
4.32005
4.32005
4.32011
4.32172
4.35792
4.59678
4.73205
4.73407
4.73399
4.73429
4.73487
4.73591
4.73729
4.73847
4.73937
4.73979
4.73987
4.73951
4.73907
4.73883
4.73881
4.73919
4.73973
4.74031
4.74071
4.74106
4.74117
4.74105
4.74079
4.74069
4.7407
4.7407
4.74075
4.74087
4.74096
4.74093
4.74089
4.74077
4.74056
4.74029
4.74006
4.73988
4.73969
4.73957
4.73958
4.73966
4.73974
4.7398
4.73988
4.73997
4.74001
4.73999
4.73997
4.73996
4.73995
4.73996
4.73999
4.74005
4.7401
4.74016
4.74022
4.74026
4.74025
4.74023
4.7402
4.74019
4.74017
4.74013
4.74012
4.74014
4.74015
4.74016
4.74015
4.74014
4.74017
4.7402
4.74019
4.74018
4.74016
4.74013
4.74009
4.74003
4.73995
4.73992
4.73993
4.73994
4.73996
4.73999
4.74001
4.74002
4.74001
4.73999
4.73995
4.73994
4.73995
4.73998
4.74001
4.74005
4.74008
4.7401
4.7401
4.74007
4.74006
4.74007
4.74007
4.74008
4.7401
4.74012
4.74012
4.74012
4.74009
4.74008
4.74008
4.74008
4.74008
4.74008
4.74008
4.74007
4.74006
4.74003
4.74
4.74001
4.74003
4.74005
4.74006
4.74008
4.74007
4.74005
4.74001
4.73997
4.73996
4.73996
4.73997
4.73999
4.74002
4.74003
4.74004
4.74002
4.74002
4.74003
4.74005
4.74005
4.74007
4.74009
4.74009
4.74008
4.74005
4.74003
4.74005
4.74002
4.73999
4.74
4.74036
4.74117
4.74146
4.73899
4.73056
4.71636
4.70049
4.6888
4.68293
4.68091
4.68129
4.68133
4.6798
4.67577
4.66928
4.65966
4.64537
4.62378
4.59133
4.54251
4.47452
4.37756
4.25446
4.09521
3.90752
3.69191
3.46053
3.22706
3.01332
2.84128
2.72783
2.67487
2.66103
2.6591
2.65969
2.66106
2.66294
2.66527
2.66793
2.67068
2.67322
2.67521
2.67617
2.67674
2.67716
2.67741
2.67742
2.67725
2.67699
2.67686
2.6768
2.6768
2.67691
2.67715
2.6775
2.67784
2.67812
2.67835
2.67855
2.67874
2.67891
2.67906
2.6792
2.67937
2.67958
2.67973
2.67975
2.67971
2.67962
2.67945
2.67922
2.67895
2.67875
2.67874
2.67878
2.6789
2.6791
2.67935
2.67956
2.67966
2.67969
2.67967
2.67957
2.67941
2.67927
2.67923
2.6792
2.67921
2.67927
2.67938
2.67943
2.67941
2.67937
2.6793
2.67919
2.6791
2.67909
2.6791
2.67915
2.67926
2.6794
2.67952
2.6796
2.67962
2.67959
2.67953
2.67947
2.67944
2.67949
2.67963
2.67995
2.6805
2.68117
2.68191
2.6825
2.68283
2.68286
2.68277
2.68268
2.68254
2.68234
2.6821
2.68184
2.6816
2.68142
2.68129
2.68121
2.68114
2.68107
2.68096
2.68087
2.68081
2.68077
2.68075
2.68072
2.68069
2.68065
2.6806
2.68056
2.68051
2.68044
2.68036
2.68032
2.68031
2.68031
2.68033
2.68036
2.68041
2.68043
2.68042
2.68041
2.68038
2.68033
2.68027
2.68024
2.68022
2.68021
2.68022
2.68026
2.68031
2.68037
2.6804
2.68041
2.68041
2.68041
2.68038
2.68035
2.6803
2.68026
2.68024
2.68022
2.6802
2.68015
2.67994
2.6788
2.67177
2.62872
2.40261
1.76539
1.27897
1.2219
1.22125
1.22125
1.22125
1.22125
1.22125
1.22125
1.22125
1.22125
1.22125
1.22125
1.22125
1.22125
1.22125
1.22125
1.22125
1.22125
1.22125
1.22125
1.22125
1.22125
1.22125
1.22125
1.22125
1.22125
1.22125
1.22125
1.22125
1.22125
1.22125
1.22125
1.22125
1.22125
1.22125
1.22125
1.22125
1.22125
1.22125
1.22125
1.22125
1.22125
1.22125
1.22125
1.22125
1.22125
1.22125
1.22125
1.22125
1.22125
1.22125
1.22125
1.22125
1.22125
1.22125
1.22125
1.22125
1.22125
1.22125
1.22125
1.22125
1.22125
1.22125
1.22125
1.22125
1.22125
1.22125
1.22125
1.22125
1.22125
1.22125
1.22125
1.22125
1.22125
1.22125
1.22125
1.22125
1.22125
1.22125
1.22125
1.22125
1.22125
1.22125
1.22125
1.22125
1.22125
1.22125
1.22125
1.22125
1.22125
1.22125
1.22125
1.22125
1.22125
1.22125
1.22125
1.22125
1.22125
1.22125
1.22125
1.22125
1.22125
1.22125
1.22125
1.22125
1.22125
1.22125
1.22125
1.22125
1.22125
1.22125
1.22125
1.22125
1.22125
1.22125
1.22125
1.22125
1.22125
1.22125
1.22125
1.22125
1.22125
1.22125
1.22125
4.32005
4.32005
4.32005
4.32005
4.32005
4.32005
4.32005
4.32005
4.32005
4.32005
4.32005
4.32011
4.32172
4.35792
4.59678
4.73205
4.73407
4.73399
4.73429
4.73487
4.73591
4.73729
4.73847
4.73937
4.73979
4.73987
4.73951
4.73907
4.73883
4.73881
4.73919
4.73973
4.74031
4.74071
4.74106
4.74117
4.74105
4.74079
4.74069
4.7407
4.7407
4.74075
4.74087
4.74095
4.74093
4.74089
4.74077
4.74056
4.74029
4.74006
4.73988
4.73969
4.73957
4.73958
4.73966
4.73974
4.7398
4.73988
4.73997
4.74001
4.73999
4.73997
4.73996
4.73995
4.73996
4.73999
4.74005
4.7401
4.74016
4.74022
4.74026
4.74025
4.74023
4.7402
4.74019
4.74017
4.74013
4.74012
4.74014
4.74015
4.74016
4.74015
4.74014
4.74017
4.7402
4.74019
4.74018
4.74016
4.74013
4.74009
4.74003
4.73995
4.73992
4.73993
4.73994
4.73996
4.73999
4.74001
4.74002
4.74001
4.73999
4.73995
4.73994
4.73995
4.73998
4.74001
4.74005
4.74008
4.7401
4.7401
4.74007
4.74006
4.74007
4.74007
4.74008
4.7401
4.74012
4.74012
4.74012
4.74009
4.74008
4.74008
4.74008
4.74008
4.74008
4.74008
4.74007
4.74006
4.74003
4.74
4.74001
4.74003
4.74005
4.74006
4.74008
4.74007
4.74005
4.74001
4.73997
4.73996
4.73996
4.73997
4.73999
4.74002
4.74003
4.74004
4.74002
4.74002
4.74003
4.74005
4.74005
4.74007
4.74009
4.74009
4.74008
4.74005
4.74003
4.74005
4.74002
4.73999
4.74
4.74036
4.74117
4.74148
4.73903
4.73061
4.71639
4.70045
4.68867
4.68273
4.68078
4.68134
4.68153
4.6801
4.67599
4.66932
4.65952
4.64519
4.62366
4.59138
4.54264
4.47486
4.37775
4.2547
4.09559
3.90766
3.69207
3.46053
3.22703
3.01345
2.84153
2.72784
2.67463
2.66119
2.65938
2.65973
2.66104
2.66287
2.66518
2.66784
2.67058
2.67312
2.67514
2.67615
2.67673
2.67716
2.67741
2.67742
2.67725
2.67699
2.67685
2.6768
2.6768
2.67691
2.67715
2.6775
2.67784
2.67811
2.67834
2.67854
2.67872
2.67889
2.67905
2.6792
2.67937
2.67958
2.67973
2.67975
2.67971
2.67962
2.67945
2.67922
2.67895
2.67875
2.67873
2.67878
2.6789
2.6791
2.67935
2.67956
2.67966
2.67969
2.67967
2.67957
2.67941
2.67927
2.67923
2.6792
2.6792
2.67927
2.67938
2.67943
2.67941
2.67937
2.6793
2.67919
2.67911
2.67909
2.6791
2.67916
2.67926
2.6794
2.67953
2.67962
2.67966
2.67965
2.67958
2.67953
2.67949
2.67952
2.67966
2.67998
2.68048
2.68115
2.68189
2.68256
2.68296
2.683
2.68294
2.68285
2.68269
2.68247
2.68218
2.68183
2.68151
2.6813
2.68118
2.68113
2.6811
2.68105
2.68097
2.6809
2.68086
2.68083
2.6808
2.68075
2.68069
2.68062
2.68057
2.68054
2.68049
2.68043
2.68037
2.68034
2.68033
2.68033
2.68035
2.68038
2.68041
2.68041
2.68041
2.68039
2.68036
2.68032
2.68027
2.68024
2.68023
2.68022
2.68023
2.68026
2.68031
2.68037
2.6804
2.68041
2.68041
2.6804
2.68039
2.68035
2.68031
2.68027
2.68025
2.68023
2.68021
2.68015
2.67994
2.6788
2.67178
2.62873
2.40261
1.76538
1.27897
1.2219
1.22125
1.22125
1.22125
1.22125
1.22125
1.22125
1.22125
1.22125
1.22125
1.22125
1.22125
1.22125
1.22125
1.22125
1.22125
1.22125
1.22125
1.22125
1.22125
1.22125
1.22125
1.22125
1.22125
1.22125
1.22125
1.22125
1.22125
1.22125
1.22125
1.22125
1.22125
1.22125
1.22125
1.22125
1.22125
1.22125
1.22125
1.22125
1.22125
1.22125
1.22125
1.22125
1.22125
1.22125
1.22125
1.22125
1.22125
1.22125
1.22125
1.22125
1.22125
1.22125
1.22125
1.22125
1.22125
1.22125
1.22125
1.22125
1.22125
1.22125
1.22125
1.22125
1.22125
1.22125
1.22125
1.22125
1.22125
1.22125
1.22125
1.22125
1.22125
1.22125
1.22125
1.22125
1.22125
1.22125
1.22125
1.22125
1.22125
1.22125
1.22125
1.22125
1.22125
1.22125
1.22125
1.22125
1.22125
1.22125
1.22125
1.22125
1.22125
1.22125
1.22125
1.22125
1.22125
1.22125
1.22125
1.22125
1.22125
1.22125
1.22125
1.22125
1.22125
1.22125
1.22125
1.22125
1.22125
1.22125
1.22125
1.22125
1.22125
1.22125
1.22125
1.22125
1.22125
1.22125
1.22125
1.22125
1.22125
1.22125
1.22125
1.22125
4.32005
4.32005
4.32005
4.32005
4.32005
4.32005
4.32005
4.32005
4.32005
4.32005
4.32005
4.32011
4.32172
4.35792
4.59678
4.73205
4.73407
4.73399
4.73429
4.73487
4.73591
4.73729
4.73847
4.73937
4.73979
4.73987
4.73951
4.73907
4.73883
4.73881
4.73919
4.73973
4.74031
4.74071
4.74106
4.74117
4.74105
4.74079
4.74069
4.7407
4.7407
4.74075
4.74087
4.74095
4.74093
4.74089
4.74077
4.74056
4.74029
4.74006
4.73988
4.73969
4.73957
4.73958
4.73966
4.73974
4.7398
4.73988
4.73997
4.74001
4.73999
4.73997
4.73996
4.73995
4.73996
4.73999
4.74005
4.7401
4.74016
4.74022
4.74026
4.74025
4.74023
4.7402
4.74019
4.74017
4.74013
4.74012
4.74014
4.74015
4.74016
4.74015
4.74014
4.74017
4.7402
4.74019
4.74018
4.74016
4.74013
4.74009
4.74003
4.73995
4.73992
4.73993
4.73994
4.73996
4.73999
4.74001
4.74002
4.74001
4.73999
4.73995
4.73994
4.73995
4.73998
4.74001
4.74005
4.74008
4.7401
4.7401
4.74007
4.74006
4.74007
4.74007
4.74008
4.7401
4.74012
4.74012
4.74012
4.74009
4.74008
4.74008
4.74008
4.74008
4.74008
4.74008
4.74007
4.74006
4.74003
4.74
4.74001
4.74003
4.74005
4.74006
4.74008
4.74007
4.74005
4.74001
4.73997
4.73996
4.73996
4.73997
4.73999
4.74002
4.74003
4.74004
4.74002
4.74002
4.74003
4.74005
4.74005
4.74007
4.74009
4.74009
4.74008
4.74005
4.74003
4.74005
4.74002
4.73999
4.74
4.74036
4.74117
4.74149
4.73906
4.73065
4.71642
4.70042
4.68856
4.68256
4.68068
4.68137
4.6817
4.68036
4.67618
4.66936
4.65938
4.64501
4.62352
4.59142
4.54277
4.47514
4.37793
4.25491
4.09583
3.90774
3.69218
3.46049
3.22691
3.0134
2.84163
2.72784
2.67439
2.66133
2.65971
2.65985
2.66109
2.66286
2.66514
2.66777
2.67048
2.67301
2.67506
2.67613
2.67672
2.67717
2.67742
2.67743
2.67725
2.67698
2.67685
2.67679
2.6768
2.67691
2.67715
2.6775
2.67784
2.6781
2.67833
2.67853
2.67871
2.67888
2.67904
2.67919
2.67937
2.67958
2.67974
2.67976
2.67972
2.67962
2.67946
2.67922
2.67894
2.67875
2.67873
2.67877
2.67889
2.67909
2.67934
2.67955
2.67966
2.67969
2.67968
2.67958
2.67941
2.67927
2.67923
2.6792
2.6792
2.67927
2.67937
2.67943
2.67941
2.67937
2.6793
2.67919
2.67911
2.67909
2.6791
2.67916
2.67926
2.67941
2.67955
2.67965
2.67968
2.67967
2.67962
2.67957
2.67953
2.67955
2.67968
2.67998
2.68047
2.68111
2.68187
2.68264
2.68311
2.68319
2.68316
2.68306
2.68289
2.68263
2.68227
2.68182
2.68141
2.68116
2.68107
2.68105
2.68104
2.68102
2.68099
2.68094
2.68092
2.68089
2.68085
2.68077
2.68068
2.68059
2.68054
2.68051
2.68047
2.68042
2.68038
2.68037
2.68036
2.68036
2.68037
2.68039
2.6804
2.6804
2.68038
2.68037
2.68035
2.68031
2.68027
2.68026
2.68024
2.68023
2.68024
2.68026
2.68031
2.68036
2.68039
2.6804
2.6804
2.6804
2.68039
2.68036
2.68032
2.68028
2.68026
2.68024
2.68021
2.68016
2.67995
2.67881
2.67179
2.62874
2.40261
1.76537
1.27896
1.2219
1.22125
1.22125
1.22125
1.22125
1.22125
1.22125
1.22125
1.22125
1.22125
1.22125
1.22125
1.22125
1.22125
1.22125
1.22125
1.22125
1.22125
1.22125
1.22125
1.22125
1.22125
1.22125
1.22125
1.22125
1.22125
1.22125
1.22125
1.22125
1.22125
1.22125
1.22125
1.22125
1.22125
1.22125
1.22125
1.22125
1.22125
1.22125
1.22125
1.22125
1.22125
1.22125
1.22125
1.22125
1.22125
1.22125
1.22125
1.22125
1.22125
1.22125
1.22125
1.22125
1.22125
1.22125
1.22125
1.22125
1.22125
1.22125
1.22125
1.22125
1.22125
1.22125
1.22125
1.22125
1.22125
1.22125
1.22125
1.22125
1.22125
1.22125
1.22125
1.22125
1.22125
1.22125
1.22125
1.22125
1.22125
1.22125
1.22125
1.22125
1.22125
1.22125
1.22125
1.22125
1.22125
1.22125
1.22125
1.22125
1.22125
1.22125
1.22125
1.22125
1.22125
1.22125
1.22125
1.22125
1.22125
1.22125
1.22125
1.22125
1.22125
1.22125
1.22125
1.22125
1.22125
1.22125
1.22125
1.22125
1.22125
1.22125
1.22125
1.22125
1.22125
1.22125
1.22125
1.22125
1.22125
1.22125
1.22125
1.22125
1.22125
1.22125
4.32005
4.32005
4.32005
4.32005
4.32005
4.32005
4.32005
4.32005
4.32005
4.32005
4.32005
4.32011
4.32172
4.35792
4.59678
4.73205
4.73407
4.73399
4.73429
4.73487
4.73591
4.73729
4.73847
4.73937
4.7398
4.73987
4.73951
4.73907
4.73883
4.73881
4.73919
4.73973
4.74031
4.74071
4.74106
4.74117
4.74105
4.74079
4.74069
4.7407
4.7407
4.74075
4.74087
4.74095
4.74093
4.74089
4.74077
4.74056
4.74029
4.74006
4.73988
4.73969
4.73957
4.73958
4.73966
4.73974
4.7398
4.73988
4.73997
4.74001
4.73999
4.73997
4.73996
4.73995
4.73996
4.73999
4.74005
4.7401
4.74016
4.74022
4.74026
4.74025
4.74023
4.7402
4.74019
4.74017
4.74013
4.74012
4.74014
4.74015
4.74016
4.74015
4.74014
4.74017
4.7402
4.74019
4.74018
4.74016
4.74013
4.74009
4.74003
4.73995
4.73992
4.73993
4.73994
4.73996
4.73999
4.74001
4.74002
4.74001
4.73999
4.73995
4.73994
4.73995
4.73998
4.74001
4.74005
4.74008
4.7401
4.7401
4.74007
4.74006
4.74007
4.74007
4.74008
4.7401
4.74012
4.74012
4.74012
4.74009
4.74008
4.74008
4.74008
4.74008
4.74008
4.74008
4.74007
4.74006
4.74003
4.74
4.74001
4.74003
4.74005
4.74006
4.74008
4.74007
4.74005
4.74001
4.73997
4.73996
4.73996
4.73997
4.73999
4.74002
4.74003
4.74004
4.74002
4.74002
4.74003
4.74005
4.74005
4.74007
4.74009
4.74009
4.74008
4.74005
4.74003
4.74005
4.74002
4.73999
4.74
4.74036
4.74118
4.7415
4.73908
4.73068
4.71645
4.7004
4.68848
4.68243
4.68059
4.6814
4.68184
4.68057
4.67633
4.66939
4.65926
4.64486
4.62339
4.59146
4.54287
4.47536
4.37808
4.25509
4.09594
3.90783
3.69226
3.46039
3.2268
3.01335
2.84173
2.72778
2.67426
2.66155
2.66007
2.66002
2.66115
2.66284
2.66505
2.66763
2.67032
2.67289
2.67498
2.67611
2.67672
2.67718
2.67744
2.67743
2.67723
2.67696
2.67683
2.67677
2.67679
2.6769
2.67714
2.67749
2.67783
2.6781
2.67832
2.67852
2.6787
2.67887
2.67903
2.67919
2.67937
2.67958
2.67974
2.67976
2.67972
2.67963
2.67946
2.67922
2.67894
2.67874
2.67872
2.67877
2.67888
2.67909
2.67934
2.67955
2.67966
2.67969
2.67968
2.67958
2.67941
2.67927
2.67923
2.6792
2.6792
2.67927
2.67937
2.67943
2.67941
2.67937
2.6793
2.67919
2.67912
2.6791
2.6791
2.67916
2.67927
2.67942
2.67956
2.67966
2.67972
2.67972
2.67967
2.67962
2.67956
2.67958
2.67971
2.67999
2.68046
2.68108
2.68184
2.6827
2.68327
2.68339
2.68337
2.68328
2.68309
2.68279
2.68235
2.6818
2.6813
2.68105
2.68098
2.68097
2.68098
2.68099
2.681
2.68099
2.68098
2.68095
2.68089
2.6808
2.68067
2.68056
2.68051
2.68048
2.68045
2.68041
2.68039
2.68039
2.68038
2.68038
2.68039
2.68041
2.6804
2.68038
2.68037
2.68036
2.68034
2.6803
2.68028
2.68026
2.68025
2.68025
2.68025
2.68027
2.68031
2.68035
2.68037
2.68039
2.6804
2.6804
2.68039
2.68036
2.68033
2.6803
2.68028
2.68025
2.68022
2.68017
2.67996
2.67881
2.6718
2.62875
2.40261
1.76535
1.27896
1.2219
1.22125
1.22125
1.22125
1.22125
1.22125
1.22125
1.22125
1.22125
1.22125
1.22125
1.22125
1.22125
1.22125
1.22125
1.22125
1.22125
1.22125
1.22125
1.22125
1.22125
1.22125
1.22125
1.22125
1.22125
1.22125
1.22125
1.22125
1.22125
1.22125
1.22125
1.22125
1.22125
1.22125
1.22125
1.22125
1.22125
1.22125
1.22125
1.22125
1.22125
1.22125
1.22125
1.22125
1.22125
1.22125
1.22125
1.22125
1.22125
1.22125
1.22125
1.22125
1.22125
1.22125
1.22125
1.22125
1.22125
1.22125
1.22125
1.22125
1.22125
1.22125
1.22125
1.22125
1.22125
1.22125
1.22125
1.22125
1.22125
1.22125
1.22125
1.22125
1.22125
1.22125
1.22125
1.22125
1.22125
1.22125
1.22125
1.22125
1.22125
1.22125
1.22125
1.22125
1.22125
1.22125
1.22125
1.22125
1.22125
1.22125
1.22125
1.22125
1.22125
1.22125
1.22125
1.22125
1.22125
1.22125
1.22125
1.22125
1.22125
1.22125
1.22125
1.22125
1.22125
1.22125
1.22125
1.22125
1.22125
1.22125
1.22125
1.22125
1.22125
1.22125
1.22125
1.22125
1.22125
1.22125
1.22125
1.22125
1.22125
1.22125
1.22125
4.32005
4.32005
4.32005
4.32005
4.32005
4.32005
4.32005
4.32005
4.32005
4.32005
4.32005
4.32011
4.32172
4.35792
4.59678
4.73205
4.73407
4.73399
4.73429
4.73487
4.73591
4.73729
4.73847
4.73937
4.7398
4.73987
4.73951
4.73907
4.73883
4.73881
4.73919
4.73973
4.74031
4.74071
4.74106
4.74117
4.74105
4.74079
4.74069
4.7407
4.7407
4.74075
4.74087
4.74095
4.74093
4.74089
4.74077
4.74056
4.74029
4.74006
4.73988
4.73969
4.73957
4.73957
4.73966
4.73974
4.7398
4.73988
4.73997
4.74001
4.73999
4.73997
4.73996
4.73995
4.73996
4.73999
4.74005
4.7401
4.74016
4.74022
4.74026
4.74025
4.74023
4.7402
4.74019
4.74017
4.74013
4.74012
4.74014
4.74015
4.74016
4.74015
4.74014
4.74017
4.7402
4.74019
4.74018
4.74016
4.74013
4.74009
4.74003
4.73995
4.73992
4.73993
4.73994
4.73996
4.73999
4.74001
4.74002
4.74001
4.73999
4.73995
4.73994
4.73995
4.73998
4.74001
4.74005
4.74008
4.7401
4.7401
4.74007
4.74006
4.74007
4.74007
4.74008
4.7401
4.74012
4.74012
4.74012
4.74009
4.74008
4.74008
4.74008
4.74008
4.74008
4.74008
4.74007
4.74006
4.74003
4.74
4.74001
4.74003
4.74005
4.74006
4.74008
4.74007
4.74005
4.74001
4.73997
4.73996
4.73996
4.73997
4.73999
4.74002
4.74003
4.74004
4.74002
4.74002
4.74003
4.74005
4.74005
4.74007
4.74009
4.74009
4.74008
4.74005
4.74003
4.74005
4.74002
4.73998
4.74
4.74036
4.74118
4.74151
4.7391
4.7307
4.71646
4.70039
4.68843
4.68234
4.68053
4.68142
4.68192
4.6807
4.67644
4.66942
4.65917
4.64477
4.62329
4.59149
4.54296
4.47551
4.37821
4.25524
4.09598
3.90792
3.69237
3.46032
3.2267
3.01332
2.84185
2.72781
2.67425
2.66177
2.66033
2.66017
2.66119
2.66285
2.66501
2.66754
2.67017
2.67279
2.67491
2.67611
2.67674
2.6772
2.67745
2.67744
2.67724
2.67695
2.67682
2.67677
2.67678
2.6769
2.67714
2.67749
2.67783
2.6781
2.67832
2.67852
2.6787
2.67887
2.67903
2.67918
2.67937
2.67958
2.67974
2.67976
2.67973
2.67963
2.67946
2.67922
2.67894
2.67874
2.67872
2.67876
2.67888
2.67909
2.67934
2.67956
2.67967
2.6797
2.67968
2.67958
2.67941
2.67927
2.67923
2.6792
2.6792
2.67926
2.67937
2.67943
2.67941
2.67938
2.67931
2.67919
2.67912
2.6791
2.6791
2.67916
2.67927
2.67942
2.67957
2.67967
2.67973
2.67969
2.67967
2.67962
2.67957
2.6796
2.67974
2.68
2.68044
2.68108
2.68186
2.68279
2.68341
2.68357
2.68355
2.68344
2.68324
2.6829
2.68239
2.68177
2.68123
2.68097
2.68091
2.68091
2.68092
2.68097
2.68102
2.68103
2.68102
2.68098
2.68092
2.68081
2.68066
2.68054
2.68049
2.68047
2.68044
2.6804
2.6804
2.6804
2.6804
2.6804
2.6804
2.68041
2.68039
2.68037
2.68035
2.68035
2.68033
2.6803
2.68028
2.68027
2.68026
2.68026
2.68026
2.68027
2.68031
2.68034
2.68037
2.68038
2.68039
2.6804
2.68039
2.68037
2.68033
2.68031
2.68028
2.68026
2.68023
2.68017
2.67996
2.67882
2.6718
2.62876
2.4026
1.76534
1.27895
1.2219
1.22125
1.22125
1.22125
1.22125
1.22125
1.22125
1.22125
1.22125
1.22125
1.22125
1.22125
1.22125
1.22125
1.22125
1.22125
1.22125
1.22125
1.22125
1.22125
1.22125
1.22125
1.22125
1.22125
1.22125
1.22125
1.22125
1.22125
1.22125
1.22125
1.22125
1.22125
1.22125
1.22125
1.22125
1.22125
1.22125
1.22125
1.22125
1.22125
1.22125
1.22125
1.22125
1.22125
1.22125
1.22125
1.22125
1.22125
1.22125
1.22125
1.22125
1.22125
1.22125
1.22125
1.22125
1.22125
1.22125
1.22125
1.22125
1.22125
1.22125
1.22125
1.22125
1.22125
1.22125
1.22125
1.22125
1.22125
1.22125
1.22125
1.22125
1.22125
1.22125
1.22125
1.22125
1.22125
1.22125
1.22125
1.22125
1.22125
1.22125
1.22125
1.22125
1.22125