/*--------------------------------*- C++ -*----------------------------------*\
| =========                 |                                                 |
| \\      /  F ield         | OpenFOAM: The Open Source CFD Toolbox           |
|  \\    /   O peration     | Version:  2406                                  |
|   \\  /    A nd           | Website:  www.openfoam.com                      |
|    \\/     M anipulation  |                                                 |
\*---------------------------------------------------------------------------*/
FoamFile
{
    version     2.0;
    format      ascii;
    arch        "LSB;label=32;scalar=64";
    class       volVectorField;
    location    "0.025";
    object      U;
}
// * * * * * * * * * * * * * * * * * * * * * * * * * * * * * * * * * * * * * //

dimensions      [0 1 -1 0 0 0 0];

internalField   nonuniform List<vector> 
13962
(
(347.059 -3.55449e-11 -2.42725e-11)
(347.059 -3.50452e-11 -2.33052e-11)
(347.059 -3.1039e-11 -2.15186e-11)
(347.059 -2.24724e-11 -2.3068e-11)
(347.059 -1.57251e-11 -2.2761e-11)
(347.059 -4.86289e-12 -2.15667e-11)
(347.059 4.882e-13 -2.13449e-11)
(347.059 4.64487e-12 -2.0983e-11)
(347.059 9.98765e-12 -1.53073e-11)
(347.059 -2.16455e-11 -1.22081e-10)
(347.059 9.02825e-10 1.81814e-09)
(347.055 -1.42536e-08 -2.33445e-08)
(346.94 9.20696e-08 1.38688e-07)
(344.373 6.61383e-06 1.43218e-08)
(328.1 2.89156e-05 1.11231e-05)
(318.827 3.12416e-06 -2.2377e-05)
(318.647 2.61917e-06 -2.09335e-05)
(318.64 2.34408e-05 1.70035e-05)
(318.624 2.80871e-05 2.72888e-05)
(318.596 3.01736e-05 3.87502e-05)
(318.558 9.02758e-06 2.36344e-05)
(318.512 -4.09842e-05 -3.23861e-05)
(318.476 -7.33692e-05 -7.02878e-05)
(318.461 -7.30716e-05 -7.40029e-05)
(318.432 -6.72962e-05 -6.93499e-05)
(318.411 -5.40464e-05 -5.19928e-05)
(318.397 -2.07416e-05 -8.13492e-06)
(318.388 2.88056e-05 4.77649e-05)
(318.358 7.19775e-05 9.12507e-05)
(318.323 9.88243e-05 0.000116249)
(318.3 9.44809e-05 0.000107897)
(318.281 3.85387e-05 3.17568e-05)
(318.268 -4.33579e-05 -8.41632e-05)
(318.263 -8.10319e-05 -0.000130015)
(318.269 -7.52868e-05 -0.000108943)
(318.273 -4.68318e-05 -6.06969e-05)
(318.276 -1.38145e-05 -1.28628e-05)
(318.28 0.000107088 0.000150473)
(318.284 0.000160173 0.000202418)
(318.281 0.000120645 0.000133793)
(318.278 2.38282e-05 -2.14284e-05)
(318.277 -1.42434e-05 -7.84723e-05)
(318.279 -9.49342e-05 -0.000181962)
(318.28 -0.000126213 -0.000177343)
(318.282 -7.03409e-05 -6.45224e-05)
(318.291 1.44537e-05 7.77268e-05)
(318.298 5.60072e-05 0.000144535)
(318.307 0.000104853 0.00020955)
(318.316 0.000132435 0.000196103)
(318.324 7.42518e-05 3.9568e-05)
(318.326 -1.70619e-05 -0.000145522)
(318.324 -0.000131695 -0.000350337)
(318.325 -0.0002213 -0.000489634)
(318.325 -0.000249664 -0.000523023)
(318.322 -0.000272251 -0.000511184)
(318.319 -0.000226971 -0.000379298)
(318.32 -0.000152871 -0.00022228)
(318.323 -5.13996e-05 -2.72933e-05)
(318.329 6.663e-05 0.000170648)
(318.335 0.0001372 0.000294812)
(318.339 0.00020148 0.000376092)
(318.343 0.000208162 0.000372171)
(318.346 0.000186702 0.000324685)
(318.345 0.000154405 0.000269156)
(318.341 0.000106761 0.000192365)
(318.335 6.04165e-05 0.000118571)
(318.328 2.40488e-05 6.14364e-05)
(318.323 3.15774e-06 2.84231e-05)
(318.319 -5.42302e-06 1.47701e-05)
(318.316 -1.27349e-05 2.18525e-06)
(318.315 -1.42262e-05 -2.66689e-06)
(318.316 -1.30612e-05 -2.18227e-06)
(318.317 -1.07455e-05 -4.59229e-07)
(318.317 -8.14964e-06 1.6227e-06)
(318.315 -6.16179e-06 3.03787e-06)
(318.31 -5.27915e-06 3.52821e-06)
(318.305 -5.61784e-06 3.21017e-06)
(318.3 -6.14372e-06 2.44422e-06)
(318.299 -5.84381e-06 1.92725e-06)
(318.299 -5.28532e-06 1.35811e-06)
(318.3 -4.19434e-06 7.27623e-07)
(318.305 -2.89578e-06 2.9154e-07)
(318.313 -1.55781e-06 6.05716e-08)
(318.319 1.78358e-07 -3.16326e-08)
(318.324 1.79809e-06 -6.87433e-08)
(318.326 1.95496e-06 -6.51739e-08)
(318.327 1.5474e-06 -6.08554e-08)
(318.327 1.00922e-06 -7.58818e-08)
(318.327 2.64045e-07 -5.6176e-08)
(318.326 -1.32774e-06 5.82601e-08)
(318.325 -3.54304e-06 2.03896e-07)
(318.326 -6.97303e-06 4.04769e-07)
(318.328 -8.26634e-06 4.78243e-07)
(318.327 -8.95511e-06 5.06036e-07)
(318.327 -9.41494e-06 4.8061e-07)
(318.327 -9.10808e-06 3.6539e-07)
(318.327 -7.43012e-06 1.82661e-07)
(318.326 -4.86731e-06 3.28062e-08)
(318.326 -3.28509e-06 -2.45752e-08)
(318.326 6.70831e-07 -1.86453e-07)
(318.327 4.96226e-06 -4.15383e-07)
(318.328 8.9574e-06 -6.32385e-07)
(318.327 1.15219e-05 -7.16913e-07)
(318.326 1.14933e-05 -6.75308e-07)
(318.324 1.05656e-05 -5.89919e-07)
(318.323 8.59819e-06 -4.13863e-07)
(318.321 6.18717e-06 -2.20594e-07)
(318.32 3.31481e-06 -4.96148e-08)
(318.32 3.89768e-07 5.79449e-08)
(318.32 -6.98715e-07 9.4427e-08)
(318.322 -1.38771e-06 1.18496e-07)
(318.322 -2.13846e-06 1.49977e-07)
(318.321 -2.52518e-06 1.78075e-07)
(318.319 -2.5574e-06 1.98625e-07)
(318.317 -2.36373e-06 1.97173e-07)
(318.315 -2.20703e-06 1.90071e-07)
(318.314 -2.29915e-06 1.91841e-07)
(318.314 -1.75351e-06 1.6031e-07)
(318.315 -1.89162e-06 1.4778e-07)
(318.317 -2.13906e-06 1.56884e-07)
(318.319 -1.46476e-06 1.1682e-07)
(318.319 -7.82922e-07 6.65182e-08)
(318.319 -6.10257e-07 5.23726e-08)
(318.32 -3.47649e-07 3.84172e-08)
(318.319 6.03831e-09 3.00366e-08)
(318.319 3.76434e-07 2.40816e-08)
(318.32 6.05521e-07 2.24029e-08)
(318.321 8.45902e-07 2.90874e-08)
(318.324 9.37996e-07 3.47271e-08)
(318.326 8.85229e-07 2.88274e-08)
(318.327 8.70398e-07 1.51463e-08)
(318.327 7.01693e-07 2.14518e-09)
(318.327 3.31039e-07 -1.78623e-09)
(318.326 1.64215e-07 -1.54429e-09)
(318.324 -2.57282e-07 1.04074e-08)
(318.324 -8.20203e-07 3.0759e-08)
(318.324 -8.13342e-07 3.09571e-08)
(318.325 -1.30789e-06 4.37856e-08)
(318.326 -1.35749e-06 5.70996e-08)
(318.325 -7.68003e-07 1.98001e-08)
(318.324 1.09296e-06 -2.85706e-08)
(318.323 1.86691e-06 -6.14646e-08)
(318.322 1.84809e-06 -5.30122e-08)
(318.321 2.91818e-06 -1.30629e-07)
(318.32 4.23117e-07 -1.75133e-08)
(318.321 3.80171e-06 -1.26847e-07)
(318.322 -7.37674e-07 -6.10465e-08)
(318.323 3.25983e-06 -1.4882e-07)
(318.323 -3.58716e-06 1.73917e-07)
(318.322 1.72598e-06 -1.45479e-07)
(318.322 -2.09182e-06 1.91239e-07)
(318.321 4.87811e-06 -2.74416e-07)
(318.32 -5.77151e-06 3.38193e-07)
(318.32 1.54522e-05 -6.49299e-07)
(318.32 -6.6246e-06 2.36109e-07)
(318.322 2.29114e-05 -9.94963e-07)
(318.324 -2.71724e-05 1.11874e-06)
(318.323 3.80883e-05 -1.35432e-06)
(318.324 -5.81478e-05 2.06255e-06)
(318.326 0.000128788 -5.37232e-06)
(318.323 -6.55829e-05 8.9726e-07)
(318.298 -0.000530106 1.93287e-05)
(318.244 -0.000332143 1.39849e-05)
(318.229 0.000904738 -2.07108e-05)
(318.397 0.00384861 -0.000128586)
(318.953 0.00896471 -0.000289353)
(319.882 0.0109515 -0.000433273)
(320.885 0.015504 -0.000626536)
(321.652 -0.00177444 -0.000171367)
(322.031 -0.0179072 0.000497118)
(322.166 -0.0282985 0.0010736)
(322.134 -0.0234937 0.00102456)
(322.079 -0.0120215 0.000697868)
(322.051 0.00376709 0.000160938)
(322.064 0.0229464 -0.000606849)
(322.086 0.0411365 -0.00154572)
(322.1 0.0340819 -0.00144836)
(322.103 0.0161599 -0.00103708)
(322.084 0.0302799 -0.00150405)
(322.055 -0.011 0.000605302)
(322.014 0.108529 -0.00467622)
(321.943 -0.0335956 0.001896)
(321.947 0.0577614 -0.00350662)
(321.791 0.148059 -0.00567841)
(321.807 0.160723 -0.00608633)
(321.595 0.0592199 -0.00236003)
(321.501 0.597704 -0.0212634)
(320.902 0.517016 -0.0252329)
(320.506 0.259935 -0.0161523)
(320.188 0.253796 -0.00790043)
(319.75 0.701601 -0.0291382)
(319.219 0.857221 -0.0418098)
(318.962 0.543427 -0.0258666)
(318.719 0.26664 -0.0101181)
(318.504 0.176634 -0.00598792)
(318.353 0.165857 -0.00622419)
(318.23 0.159907 -0.0070812)
(318.12 0.15145 -0.00664836)
(318.025 0.146492 -0.00462559)
(317.945 0.137094 -0.00241628)
(317.87 0.129867 -0.00232295)
(317.809 0.112327 -0.00378154)
(317.753 0.0801706 -0.00341652)
(317.659 0.0703982 -0.00281099)
(317.587 0.0639413 -0.00162495)
(317.525 0.0610744 -0.000882455)
(317.471 0.0613615 -0.000658222)
(317.429 0.0617184 -0.000846511)
(317.4 0.0582419 -0.00108985)
(317.38 0.0499052 -0.00110895)
(317.382 0.0417352 -0.000951136)
(317.396 0.035968 -0.000817716)
(317.421 0.0279897 -0.000670067)
(317.454 0.0233728 -0.000628633)
(317.496 0.0218297 -0.000645478)
(317.54 0.0206608 -0.000649553)
(317.578 0.0185439 -0.000626491)
(317.608 0.0158934 -0.000580239)
(317.63 0.0132895 -0.000506016)
(317.642 0.0109986 -0.000404275)
(317.649 0.00924228 -0.000301974)
(317.654 0.00784058 -0.000220395)
(317.659 0.00672648 -0.000176485)
(317.668 0.00590055 -0.000173963)
(317.686 0.00507383 -0.000193672)
(317.711 0.00417294 -0.000225381)
(317.735 0.00340072 -0.000270868)
(317.743 0.00297798 -0.00030768)
(317.744 0.00274638 -0.000337748)
(317.739 0.00244421 -0.000385844)
(317.724 0.00209724 -0.000436324)
(317.696 0.00158398 -0.000479961)
(317.658 0.000823134 -0.000509677)
(317.626 -7.42314e-05 -0.000512195)
(317.618 -0.000651468 -0.000506602)
(317.617 -0.000941284 -0.000507197)
(317.624 -0.000952284 -0.000500193)
(317.641 -0.000368325 -0.000436885)
(317.665 0.000552082 -0.000358562)
(317.686 0.00140085 -0.000362133)
(317.694 0.00193433 -0.000437247)
(317.691 0.00208036 -0.000502714)
(317.685 0.00195946 -0.000596167)
(317.672 0.00128125 -0.000666516)
(317.651 6.16726e-05 -0.000641765)
(317.639 -0.00151178 -0.000526023)
(317.642 -0.002635 -0.000433632)
(317.648 -0.00362543 -0.000342161)
(317.662 -0.00438834 -0.000247276)
(317.687 -0.0044469 -0.000198039)
(317.717 -0.00380079 -0.000240872)
(317.736 -0.00255656 -0.000386063)
(317.742 -0.00148287 -0.000510526)
(317.744 -0.000599682 -0.000588823)
(317.739 -0.000234028 -0.000586734)
(317.727 -0.00171866 -0.000483001)
(317.715 -0.00604683 -0.000280262)
(317.712 -0.0129128 -4.90679e-06)
(317.715 -0.024666 0.00039952)
(317.725 -0.044284 0.0010279)
(317.748 -0.0723416 0.00202713)
(317.782 -0.109889 0.00366923)
(317.825 -0.144247 0.00547954)
(317.87 -0.1602 0.00679788)
(317.907 -0.15811 0.00737776)
(317.933 -0.143815 0.00740639)
(317.949 -0.117414 0.00688749)
(317.957 -0.0698439 0.00521914)
(317.957 0.00494122 0.00249313)
(317.941 0.100207 -0.00165469)
(317.899 0.189715 -0.00618172)
(317.859 0.237884 -0.00885884)
(317.82 0.248836 -0.00957431)
(317.783 0.245814 -0.00960697)
(317.753 0.223684 -0.0088003)
(317.71 0.183382 -0.00719037)
(317.674 0.117932 -0.0044275)
(317.65 0.025688 -0.000492203)
(317.64 -0.0602203 0.00327918)
(317.651 -0.1046 0.00541817)
(317.674 -0.112222 0.00604324)
(317.697 -0.108394 0.00611543)
(317.723 -0.0953231 0.00584238)
(317.748 -0.0711479 0.00508514)
(317.771 -0.0385707 0.00364252)
(317.786 -0.00795261 0.0019369)
(317.79 0.00870339 0.000958719)
(317.789 0.0131227 0.000713803)
(317.784 0.010229 0.000782244)
(317.776 0.00316134 0.000908072)
(317.765 -0.00387742 0.00101304)
(317.754 -0.00770799 0.00110222)
(317.748 -0.00776524 0.00107416)
(317.748 -0.00579145 0.000941608)
(317.751 -0.00185868 0.000682417)
(317.756 0.00425604 0.000310593)
(317.76 0.009645 1.5867e-05)
(317.761 0.0114871 -7.05247e-05)
(317.762 0.0112287 -3.2275e-05)
(317.762 0.00848725 9.86342e-05)
(317.759 0.0037181 0.000259399)
(317.753 -0.00129649 0.000390867)
(317.745 -0.00517033 0.000502453)
(317.74 -0.00688815 0.0005506)
(317.741 -0.00674899 0.000536367)
(317.744 -0.00526743 0.000449138)
(317.748 -0.00192384 0.000250771)
(317.755 0.00169692 4.0905e-05)
(317.764 0.00414749 -8.67804e-05)
(317.77 0.004896 -0.00010939)
(317.771 0.00455635 -8.17968e-05)
(317.771 0.00335435 -2.03157e-05)
(317.77 0.000949692 7.6256e-05)
(317.767 -0.00151145 0.000163221)
(317.764 -0.00323849 0.000221008)
(317.762 -0.00384685 0.000233777)
(317.765 -0.00365913 0.000215845)
(317.768 -0.00268001 0.000151068)
(317.772 -0.000855837 4.09184e-05)
(317.78 0.00102381 -6.84555e-05)
(317.79 0.00221862 -0.000140109)
(317.799 0.00243574 -0.000154929)
(317.803 0.00184606 -0.000120611)
(317.803 0.00111203 -7.79694e-05)
(317.803 0.000127719 -2.33685e-05)
(317.801 -0.00120093 4.59053e-05)
(317.796 -0.00234567 0.000103936)
(317.79 -0.00319383 0.000140939)
(317.784 -0.00344023 0.000151613)
(317.779 -0.00306148 0.00013886)
(317.776 -0.00229072 0.000114075)
(317.775 -0.00160029 9.21106e-05)
(317.774 -0.0010815 7.75562e-05)
(317.769 -0.000694199 6.71006e-05)
(317.741 -0.00042485 5.66702e-05)
(317.568 -0.000290549 4.15876e-05)
(316.484 -0.000324655 2.89697e-05)
(309.815 -0.000500754 2.79164e-05)
(273.604 -0.000543974 2.03512e-05)
(149.667 -0.000239685 7.84411e-06)
(17.9479 -2.13483e-05 5.90457e-07)
(0.193474 -1.80652e-07 4.99209e-09)
(0.000139604 -1.22483e-10 7.87253e-12)
(5.271e-09 -7.3984e-12 4.79711e-12)
(-4.43812e-12 -7.84172e-12 3.43246e-12)
(-4.29101e-12 -7.38171e-12 4.0963e-12)
(-3.62303e-12 -7.00894e-12 3.42767e-12)
(-3.62517e-12 -6.27441e-12 4.36474e-12)
(-3.70619e-12 -5.74291e-12 6.95443e-12)
(-2.99558e-12 -4.6982e-12 7.2642e-12)
(-1.62826e-12 -4.20226e-12 8.33819e-12)
(1.55082e-12 -4.69685e-12 6.62108e-12)
(5.17362e-12 -5.19171e-12 3.11472e-12)
(6.68661e-12 -6.63302e-12 7.74917e-13)
(8.13569e-12 -7.26229e-12 3.19061e-12)
(9.90747e-12 -7.62922e-12 5.09934e-12)
(1.1215e-11 -7.42773e-12 3.04778e-12)
(1.20104e-11 -5.60168e-12 1.04567e-12)
(1.02171e-11 -3.97352e-12 -7.86817e-13)
(8.00932e-12 -3.65247e-12 -1.51522e-12)
(7.20583e-12 -2.76053e-12 -1.96272e-12)
(6.20562e-12 -1.63398e-12 -2.36404e-12)
(4.97686e-12 -1.42073e-12 -3.82413e-12)
(2.24041e-12 -1.53596e-12 -2.89061e-12)
(1.84541e-12 -2.6233e-12 -1.53198e-12)
(6.99027e-13 -1.53833e-12 -1.03981e-12)
(-2.81101e-12 -1.73465e-12 -7.0233e-13)
(-3.01904e-12 -2.64202e-12 6.86984e-13)
(-2.63315e-12 -2.12395e-12 1.75224e-12)
(-5.00548e-12 -1.50774e-12 2.57636e-12)
(-7.42973e-12 -2.4246e-12 3.76519e-12)
(-7.2899e-12 -3.32116e-12 6.44455e-12)
(-8.39263e-12 -2.95901e-12 5.61302e-12)
(-9.64694e-12 -3.29153e-12 4.84825e-12)
(-9.73359e-12 -4.24489e-12 5.16355e-12)
(-9.70673e-12 -4.95307e-12 5.82867e-12)
(-9.09723e-12 -4.39305e-12 3.2159e-12)
(-1.07687e-11 -4.36495e-12 2.19797e-12)
(-1.11589e-11 -5.2552e-12 2.17932e-12)
(-9.11506e-12 -6.72592e-12 -7.99761e-13)
(-7.93968e-12 -7.22388e-12 -6.5802e-12)
(-3.95249e-12 -7.0968e-12 -1.25233e-11)
(-1.98249e-12 -5.44104e-12 -1.70501e-11)
(-8.51722e-13 -4.66467e-12 -1.76956e-11)
(-6.16829e-13 -3.3722e-12 -1.74809e-11)
(-1.15066e-12 -3.14279e-12 -1.7339e-11)
(-9.76646e-13 -2.55508e-12 -1.76004e-11)
(-1.26669e-13 -2.26446e-12 -1.69103e-11)
(-6.69468e-13 -1.37186e-12 -1.38233e-11)
(6.95577e-13 -2.29119e-12 -1.05583e-11)
(1.68547e-12 -3.3344e-12 -8.61958e-12)
(9.43483e-13 -3.29436e-12 -1.06694e-11)
(2.72051e-12 -5.14382e-12 -1.22499e-11)
(3.60863e-12 -5.98874e-12 -1.47715e-11)
(3.87865e-12 -6.18822e-12 -1.36541e-11)
(5.39451e-12 -5.09188e-12 -1.37192e-11)
(4.65206e-12 -3.07103e-12 -1.24115e-11)
(2.00375e-12 -2.41279e-12 -1.1741e-11)
(1.70273e-12 -3.29213e-12 -1.18398e-11)
(1.84753e-12 -2.90962e-12 -1.08808e-11)
(-1.10724e-12 -3.9621e-12 -1.0096e-11)
(-1.35699e-12 -5.27969e-12 -5.44461e-12)
(2.99458e-14 -5.87891e-12 -2.55906e-12)
(-2.12843e-13 -5.22283e-12 -1.90558e-12)
(-4.21405e-13 -5.60743e-12 -1.44513e-12)
(5.82853e-13 -4.83836e-12 -6.33347e-14)
(-4.51981e-13 -3.23819e-12 1.86938e-12)
(-1.74648e-12 -3.18527e-12 3.64312e-12)
(-2.09017e-12 -4.43899e-12 4.71628e-12)
(-3.57727e-13 -4.41471e-12 3.32301e-12)
(1.66526e-12 -4.62646e-12 1.29219e-13)
(3.89545e-12 -5.33942e-12 -2.96666e-12)
(5.93481e-12 -5.99813e-12 -3.48619e-12)
(5.75248e-12 -5.15516e-12 -4.12486e-12)
(5.47099e-12 -5.75106e-12 -5.58421e-12)
(5.67477e-12 -5.41345e-12 -7.95064e-12)
(3.99726e-12 -5.85828e-12 -9.49138e-12)
(4.5588e-12 -6.34786e-12 -5.79177e-12)
(6.38833e-12 -6.26149e-12 -2.59003e-12)
(6.13889e-12 -4.9865e-12 -1.13022e-12)
(4.52887e-12 -4.07334e-12 -1.13281e-12)
(4.3037e-12 -4.59381e-12 -1.3478e-12)
(5.45548e-12 -4.41122e-12 -1.2847e-12)
(5.16458e-12 -4.24044e-12 -1.22387e-12)
(5.06366e-12 -3.69375e-12 -1.36883e-12)
(5.68997e-12 -3.73243e-12 -1.3124e-12)
(5.99574e-12 -3.77464e-12 -9.93023e-13)
(4.27325e-12 -3.15539e-12 -9.60254e-13)
(3.21495e-12 -3.35559e-12 -1.17174e-12)
(3.31868e-12 -3.13333e-12 -9.84465e-13)
(2.40883e-12 -2.97551e-12 -1.23854e-12)
(3.14463e-12 -2.83884e-12 -4.89802e-13)
(3.15674e-12 -1.04289e-12 -7.44011e-14)
(7.88024e-13 1.08643e-12 -5.29207e-13)
(-1.38358e-12 3.77872e-12 2.98105e-13)
(-4.87134e-12 4.14912e-12 7.137e-13)
(-6.19554e-12 3.21151e-12 1.58371e-12)
(-7.37279e-12 4.47949e-12 3.53978e-12)
(-9.72013e-12 4.2716e-12 5.19222e-12)
(-1.05346e-11 2.8713e-12 6.12139e-12)
(-1.12948e-11 2.02508e-12 6.27373e-12)
(-1.04816e-11 7.02432e-13 6.20888e-12)
(-8.76307e-12 -8.13405e-13 6.45522e-12)
(-8.13057e-12 -1.44036e-12 5.23944e-12)
(-7.72945e-12 -3.42185e-12 5.00214e-12)
(-5.28577e-12 -4.76936e-12 4.47071e-12)
(-4.32586e-12 -5.04847e-12 2.07503e-12)
(-3.00667e-12 -5.93554e-12 1.41985e-13)
(-3.08693e-13 -6.36642e-12 -9.41603e-13)
(5.37822e-13 -4.6962e-12 -2.17073e-12)
(1.23305e-12 -3.75138e-12 -3.04823e-12)
(2.30821e-12 -3.94947e-12 -3.29393e-12)
(2.94041e-12 -3.81897e-12 -3.77654e-12)
(3.22816e-12 -4.06474e-12 -4.36727e-12)
(4.72089e-12 -5.38743e-12 -3.80399e-12)
(5.97997e-12 -5.59593e-12 -3.18473e-12)
(6.61965e-12 -4.60351e-12 -2.92816e-12)
(7.34013e-12 -4.21806e-12 -2.95945e-12)
(6.42854e-12 -3.32328e-12 -3.03593e-12)
(4.54863e-12 -3.00803e-12 -3.34853e-12)
(4.38742e-12 -3.67038e-12 -3.4941e-12)
(6.33541e-12 -3.23958e-12 -3.29684e-12)
(6.25658e-12 -1.48221e-12 -2.2213e-12)
(3.75702e-12 -5.26707e-13 -8.14063e-13)
(347.059 -3.20038e-11 -2.19818e-11)
(347.059 -2.87092e-11 -2.24474e-11)
(347.059 -2.83194e-11 -2.05372e-11)
(347.059 -1.97429e-11 -2.21944e-11)
(347.059 -1.5993e-11 -2.17386e-11)
(347.059 -3.45912e-12 -2.09839e-11)
(347.059 3.64389e-12 -2.06507e-11)
(347.059 7.69338e-12 -2.0646e-11)
(347.059 1.14348e-11 -1.54697e-11)
(347.059 -9.68772e-12 -1.27907e-10)
(347.059 7.51796e-10 1.9165e-09)
(347.055 -1.57802e-08 -2.4736e-08)
(346.94 2.46183e-07 1.46504e-07)
(344.373 2.90478e-06 1.17277e-07)
(328.1 2.32445e-05 1.14565e-05)
(318.827 1.43286e-05 -2.34357e-05)
(318.647 1.12099e-05 -2.1862e-05)
(318.64 2.02701e-05 1.78945e-05)
(318.624 2.23519e-05 2.86157e-05)
(318.596 2.35311e-05 4.02736e-05)
(318.558 5.20188e-06 2.44905e-05)
(318.512 -4.02596e-05 -3.38705e-05)
(318.476 -6.93479e-05 -7.37205e-05)
(318.461 -6.78764e-05 -7.77081e-05)
(318.432 -6.28409e-05 -7.29053e-05)
(318.411 -5.13084e-05 -5.42014e-05)
(318.397 -2.07054e-05 -7.55799e-06)
(318.388 2.60681e-05 5.14967e-05)
(318.358 6.7448e-05 9.62211e-05)
(318.323 9.30375e-05 0.00012036)
(318.3 8.90864e-05 0.000111013)
(318.281 3.80922e-05 3.16525e-05)
(318.268 -3.68247e-05 -8.94164e-05)
(318.263 -7.12326e-05 -0.000136711)
(318.269 -6.55659e-05 -0.000111346)
(318.273 -3.99225e-05 -5.86648e-05)
(318.276 -1.09582e-05 -8.74908e-06)
(318.28 9.83874e-05 0.000154998)
(318.284 0.000144641 0.000199132)
(318.281 0.000108551 0.000126895)
(318.278 2.23048e-05 -3.21197e-05)
(318.277 -1.20796e-05 -8.93789e-05)
(318.279 -8.44807e-05 -0.000186482)
(318.28 -0.000110451 -0.000165509)
(318.282 -5.83833e-05 -4.61205e-05)
(318.291 1.91829e-05 9.85289e-05)
(318.298 5.72876e-05 0.000165853)
(318.307 0.000102649 0.000227635)
(318.316 0.00012958 0.000197075)
(318.324 7.53508e-05 2.10291e-05)
(318.326 -1.04962e-05 -0.000174959)
(318.324 -0.000118655 -0.000382439)
(318.325 -0.000202064 -0.000516437)
(318.325 -0.000227641 -0.000545106)
(318.322 -0.000246265 -0.000518028)
(318.319 -0.000203962 -0.000369905)
(318.32 -0.000138087 -0.000205688)
(318.323 -4.57656e-05 -7.43023e-06)
(318.329 6.30458e-05 0.00018887)
(318.335 0.000127143 0.000315807)
(318.339 0.000187469 0.000385737)
(318.343 0.000192956 0.000375293)
(318.346 0.000170216 0.000323209)
(318.345 0.000138678 0.000267204)
(318.341 9.53008e-05 0.000191921)
(318.335 5.36546e-05 0.000119612)
(318.328 2.11381e-05 6.24978e-05)
(318.323 2.40017e-06 2.93523e-05)
(318.319 -5.25782e-06 1.56848e-05)
(318.316 -1.15324e-05 3.17766e-06)
(318.315 -1.24351e-05 -1.62559e-06)
(318.316 -1.12865e-05 -1.18429e-06)
(318.317 -9.11421e-06 4.07923e-07)
(318.317 -6.78862e-06 2.2543e-06)
(318.315 -5.20781e-06 3.41937e-06)
(318.31 -4.63797e-06 3.68834e-06)
(318.305 -4.77597e-06 3.22997e-06)
(318.3 -4.93558e-06 2.40274e-06)
(318.299 -4.72249e-06 1.88096e-06)
(318.299 -4.41381e-06 1.31663e-06)
(318.3 -3.87656e-06 7.05771e-07)
(318.305 -3.12373e-06 2.93542e-07)
(318.313 -2.20891e-06 6.65587e-08)
(318.319 -7.19797e-07 -4.39863e-08)
(318.324 1.03068e-06 -8.45277e-08)
(318.326 1.57925e-06 -8.4511e-08)
(318.327 1.54381e-06 -7.49655e-08)
(318.327 1.52349e-06 -9.39911e-08)
(318.327 1.27775e-06 -1.09508e-07)
(318.326 1.34521e-07 -6.18442e-08)
(318.325 -1.90568e-06 6.68949e-08)
(318.326 -5.53969e-06 2.85461e-07)
(318.328 -7.11037e-06 3.75193e-07)
(318.327 -8.14375e-06 4.23123e-07)
(318.327 -9.10833e-06 4.2721e-07)
(318.327 -9.27596e-06 3.4276e-07)
(318.327 -7.93086e-06 1.90881e-07)
(318.326 -5.45466e-06 5.75578e-08)
(318.326 -3.83587e-06 3.77427e-09)
(318.326 1.9435e-07 -1.5622e-07)
(318.327 4.54886e-06 -3.8334e-07)
(318.328 8.5914e-06 -6.05546e-07)
(318.327 1.12157e-05 -6.96809e-07)
(318.326 1.12086e-05 -6.58011e-07)
(318.324 1.02963e-05 -5.75075e-07)
(318.323 8.37058e-06 -4.04131e-07)
(318.321 6.02672e-06 -2.16988e-07)
(318.32 3.23752e-06 -4.71294e-08)
(318.32 4.31446e-07 6.51165e-08)
(318.32 -6.09304e-07 1.01685e-07)
(318.322 -1.26518e-06 1.26882e-07)
(318.322 -1.9824e-06 1.61382e-07)
(318.321 -2.35014e-06 1.91254e-07)
(318.319 -2.36662e-06 2.02943e-07)
(318.317 -2.16818e-06 1.92325e-07)
(318.315 -2.0251e-06 1.84294e-07)
(318.314 -2.12502e-06 1.87152e-07)
(318.314 -1.61169e-06 1.54404e-07)
(318.315 -1.77644e-06 1.46163e-07)
(318.317 -2.0292e-06 1.59046e-07)
(318.319 -1.40755e-06 1.19523e-07)
(318.319 -7.8211e-07 7.0101e-08)
(318.319 -6.20941e-07 5.65823e-08)
(318.32 -3.7022e-07 4.14422e-08)
(318.319 -3.6298e-08 3.12502e-08)
(318.319 3.12932e-07 2.54354e-08)
(318.32 5.36498e-07 2.40601e-08)
(318.321 7.80487e-07 3.0734e-08)
(318.324 8.92633e-07 3.43612e-08)
(318.326 8.2663e-07 3.00511e-08)
(318.327 8.30897e-07 1.57385e-08)
(318.327 6.92505e-07 2.88347e-09)
(318.327 3.41459e-07 -3.83007e-09)
(318.326 1.81666e-07 -2.39475e-09)
(318.324 -2.68255e-07 1.44389e-08)
(318.324 -8.41443e-07 3.17852e-08)
(318.324 -8.1236e-07 3.03245e-08)
(318.325 -1.32508e-06 4.81471e-08)
(318.326 -1.28531e-06 5.58534e-08)
(318.325 -6.98433e-07 1.80292e-08)
(318.324 1.21464e-06 -3.25545e-08)
(318.323 2.04293e-06 -7.32477e-08)
(318.322 2.09085e-06 -6.64637e-08)
(318.321 2.92768e-06 -1.3442e-07)
(318.32 3.36433e-07 -1.67681e-08)
(318.321 3.39899e-06 -1.22875e-07)
(318.322 -7.79485e-07 -5.71534e-08)
(318.323 2.72196e-06 -1.26735e-07)
(318.323 -3.99954e-06 1.85269e-07)
(318.322 1.11499e-06 -1.17871e-07)
(318.322 -1.92063e-06 1.90399e-07)
(318.321 4.7279e-06 -2.77048e-07)
(318.32 -4.84913e-06 3.21224e-07)
(318.32 1.48006e-05 -6.60264e-07)
(318.32 -6.12129e-06 2.33159e-07)
(318.322 2.218e-05 -1.00716e-06)
(318.324 -2.55415e-05 1.12402e-06)
(318.322 3.53815e-05 -1.29681e-06)
(318.324 -5.53037e-05 1.98314e-06)
(318.326 0.000113286 -4.81276e-06)
(318.323 -6.27025e-05 1.00219e-06)
(318.298 -0.000479746 1.78941e-05)
(318.244 -0.000279266 1.1991e-05)
(318.227 0.000853475 -2.16536e-05)
(318.392 0.00342522 -0.000118651)
(318.948 0.00820027 -0.000266659)
(319.88 0.00972425 -0.000392052)
(320.892 0.0154459 -0.000637119)
(321.665 -0.000912981 -0.000117587)
(322.047 -0.0163786 0.000332347)
(322.175 -0.0271157 0.000959227)
(322.128 -0.0226332 0.00096973)
(322.062 -0.0114988 0.000724637)
(322.029 0.00393943 0.00032866)
(322.048 0.0226639 -0.000560098)
(322.08 0.0408579 -0.00156774)
(322.104 0.0325342 -0.00141665)
(322.111 0.01393 -0.00091263)
(322.09 0.0246639 -0.00130526)
(322.05 -0.0144182 0.000627956)
(322.008 0.104023 -0.00451161)
(321.909 -0.0341074 0.00176708)
(321.942 0.0494753 -0.00308943)
(321.731 0.155341 -0.00624559)
(321.776 0.125652 -0.00452813)
(321.495 0.111853 -0.00540326)
(321.363 0.394978 -0.0130095)
(321.061 0.490206 -0.0223219)
(320.703 0.18136 -0.0130964)
(320.379 0.136375 -0.0035745)
(319.907 0.545539 -0.0223637)
(319.302 0.729045 -0.0360379)
(319.009 0.521081 -0.0247086)
(318.772 0.265563 -0.00980496)
(318.523 0.156056 -0.00502278)
(318.359 0.141023 -0.00525989)
(318.234 0.135814 -0.00612416)
(318.121 0.127926 -0.00570038)
(318.023 0.123873 -0.00371854)
(317.94 0.116149 -0.00190096)
(317.865 0.110818 -0.00144955)
(317.804 0.0953898 -0.00282161)
(317.751 0.0687275 -0.00301421)
(317.658 0.0606122 -0.00250918)
(317.585 0.0557681 -0.00135546)
(317.523 0.053682 -0.000594174)
(317.469 0.0542059 -0.0003705)
(317.426 0.0549978 -0.000540828)
(317.396 0.051387 -0.000742247)
(317.376 0.0430539 -0.000774358)
(317.378 0.0357813 -0.000675961)
(317.392 0.0304541 -0.000571529)
(317.417 0.0227163 -0.000450267)
(317.451 0.0181057 -0.000412224)
(317.493 0.0165527 -0.000415971)
(317.537 0.0154873 -0.000411511)
(317.575 0.0135645 -0.000398479)
(317.605 0.0112532 -0.000380744)
(317.626 0.00917956 -0.000342513)
(317.639 0.00751702 -0.000273471)
(317.646 0.00633664 -0.000194588)
(317.651 0.00541314 -0.000131284)
(317.656 0.00471903 -0.000104501)
(317.665 0.00424043 -0.000117025)
(317.684 0.00364219 -0.00014792)
(317.709 0.00299814 -0.000191762)
(317.733 0.00224904 -0.00024326)
(317.742 0.001725 -0.000281088)
(317.742 0.00143585 -0.000312397)
(317.737 0.00109066 -0.000361445)
(317.722 0.000700969 -0.000409632)
(317.694 0.000212938 -0.000446329)
(317.656 -0.000266381 -0.000482863)
(317.625 -0.000705184 -0.00049635)
(317.616 -0.000966571 -0.00049994)
(317.615 -0.00107941 -0.000509086)
(317.622 -0.000863905 -0.00054177)
(317.64 -0.000195915 -0.000473388)
(317.664 0.000607389 -0.000378205)
(317.685 0.00126077 -0.000362923)
(317.693 0.00165645 -0.000427572)
(317.69 0.00174635 -0.000484498)
(317.684 0.00156693 -0.000569329)
(317.67 0.000867273 -0.000642702)
(317.65 -0.00035005 -0.000628352)
(317.638 -0.00182682 -0.000528975)
(317.64 -0.00285453 -0.000445617)
(317.647 -0.00374277 -0.000360168)
(317.661 -0.00437226 -0.000269013)
(317.686 -0.00423372 -0.000228324)
(317.716 -0.00341634 -0.000292859)
(317.735 -0.00217144 -0.000457478)
(317.742 -0.00111837 -0.000582702)
(317.743 -0.000248597 -0.000633923)
(317.738 8.42276e-05 -0.000617663)
(317.727 -0.00148061 -0.000503795)
(317.714 -0.00588081 -0.000295885)
(317.711 -0.0126521 -3.19919e-05)
(317.714 -0.0240442 0.000353175)
(317.724 -0.0438224 0.000998999)
(317.747 -0.0720123 0.00201714)
(317.783 -0.108219 0.00360412)
(317.829 -0.142249 0.00540156)
(317.876 -0.159282 0.00676884)
(317.915 -0.157261 0.00735683)
(317.943 -0.142376 0.00737283)
(317.96 -0.115456 0.00685363)
(317.97 -0.0680587 0.00518713)
(317.97 0.00553023 0.00244552)
(317.954 0.100993 -0.00169415)
(317.909 0.190296 -0.00619887)
(317.865 0.239426 -0.00893069)
(317.824 0.248715 -0.00959073)
(317.783 0.244369 -0.00958922)
(317.749 0.221096 -0.00875868)
(317.704 0.180552 -0.0071734)
(317.667 0.114114 -0.00438589)
(317.641 0.0214323 -0.000446975)
(317.631 -0.0614692 0.0032265)
(317.645 -0.102432 0.00526656)
(317.67 -0.110806 0.00595368)
(317.695 -0.106808 0.00609005)
(317.723 -0.0937697 0.00587649)
(317.749 -0.0705919 0.00520033)
(317.772 -0.0391576 0.00386239)
(317.787 -0.0084487 0.0020825)
(317.791 0.00891855 0.000988625)
(317.789 0.0134665 0.000725543)
(317.784 0.0105222 0.000796854)
(317.776 0.00333628 0.00090636)
(317.765 -0.00346297 0.00100029)
(317.754 -0.0069331 0.0010738)
(317.748 -0.00700961 0.00104383)
(317.749 -0.00524991 0.000919814)
(317.752 -0.00166796 0.000679676)
(317.757 0.00400475 0.000330371)
(317.76 0.00931685 3.59257e-05)
(317.761 0.0113728 -6.144e-05)
(317.762 0.0111511 -2.4917e-05)
(317.761 0.00850618 0.000101269)
(317.759 0.00382274 0.000258167)
(317.753 -0.00123223 0.000390383)
(317.745 -0.00516252 0.000501668)
(317.74 -0.00700485 0.000556513)
(317.741 -0.00694506 0.000546262)
(317.744 -0.00554596 0.000462708)
(317.748 -0.00221137 0.000263697)
(317.755 0.00155405 4.64361e-05)
(317.764 0.00419521 -8.9573e-05)
(317.77 0.00513277 -0.000117607)
(317.771 0.00484632 -9.0878e-05)
(317.771 0.00366832 -3.02248e-05)
(317.77 0.00121884 6.84237e-05)
(317.767 -0.00134423 0.000157138)
(317.764 -0.00307977 0.000214184)
(317.763 -0.00371181 0.000228352)
(317.765 -0.00358085 0.000212924)
(317.768 -0.00263512 0.000150212)
(317.772 -0.000802608 4.06306e-05)
(317.78 0.00109553 -6.92689e-05)
(317.79 0.00229045 -0.000144498)
(317.799 0.00247265 -0.000157712)
(317.803 0.00186201 -0.000121951)
(317.804 0.001102 -7.74857e-05)
(317.803 4.38334e-05 -1.94468e-05)
(317.801 -0.00138115 5.3518e-05)
(317.797 -0.00257349 0.000112605)
(317.79 -0.00331465 0.000146264)
(317.784 -0.00331628 0.000148166)
(317.779 -0.00274896 0.00012799)
(317.777 -0.00185541 9.25472e-05)
(317.776 -0.0010873 5.66095e-05)
(317.775 -0.000558465 3.79218e-05)
(317.77 -0.000216642 3.42755e-05)
(317.741 -0.000176758 3.80152e-05)
(317.568 -0.000492037 4.4132e-05)
(316.484 -0.00100601 5.07542e-05)
(309.815 -0.0014867 5.39526e-05)
(273.604 -0.00162746 5.21656e-05)
(149.666 -0.00102389 3.00851e-05)
(17.9476 -0.000125397 3.47078e-06)
(0.193468 -1.31485e-06 3.72484e-08)
(0.000139598 -9.66231e-10 3.15587e-11)
(5.27185e-09 -7.02298e-12 2.74663e-12)
(-5.32832e-12 -7.64457e-12 2.07254e-12)
(-4.60765e-12 -7.29217e-12 1.97632e-12)
(-3.58722e-12 -5.79477e-12 2.50136e-12)
(-3.96923e-12 -4.52942e-12 3.68704e-12)
(-3.89001e-12 -4.96201e-12 6.09177e-12)
(-3.64345e-12 -3.89639e-12 6.25899e-12)
(-1.9284e-12 -3.57192e-12 6.80282e-12)
(1.89663e-12 -4.41436e-12 5.94539e-12)
(5.25091e-12 -5.23305e-12 3.01981e-12)
(7.10751e-12 -5.70078e-12 1.98158e-12)
(8.375e-12 -6.715e-12 3.34282e-12)
(1.02885e-11 -6.77141e-12 3.54899e-12)
(1.10365e-11 -6.29044e-12 1.44777e-12)
(1.14901e-11 -4.38248e-12 5.70197e-13)
(1.05321e-11 -3.61177e-12 -1.11508e-12)
(8.74151e-12 -3.09339e-12 -2.21297e-12)
(7.41663e-12 -2.35779e-12 -1.5613e-12)
(6.25835e-12 -1.87643e-12 -1.77918e-12)
(5.18487e-12 -1.8669e-12 -3.20864e-12)
(3.08687e-12 -1.40165e-12 -2.23107e-12)
(1.72961e-12 -2.61519e-12 -8.80813e-13)
(-3.89875e-13 -1.31332e-12 -8.92114e-13)
(-2.7179e-12 -1.83588e-12 -1.61581e-12)
(-3.01851e-12 -2.62194e-12 -1.21169e-13)
(-3.68997e-12 -1.69752e-12 1.15135e-12)
(-5.88116e-12 -7.32708e-13 2.4118e-12)
(-6.87052e-12 -1.44138e-12 4.03851e-12)
(-7.67843e-12 -2.91538e-12 5.02194e-12)
(-9.0963e-12 -2.23896e-12 4.69476e-12)