/*--------------------------------*- C++ -*----------------------------------*\
| =========                 |                                                 |
| \\      /  F ield         | OpenFOAM: The Open Source CFD Toolbox           |
|  \\    /   O peration     | Version:  2406                                  |
|   \\  /    A nd           | Website:  www.openfoam.com                      |
|    \\/     M anipulation  |                                                 |
\*---------------------------------------------------------------------------*/
FoamFile
{
    version     2.0;
    format      ascii;
    arch        "LSB;label=32;scalar=64";
    class       volScalarField;
    location    "0.005";
    object      Ma;
}
// * * * * * * * * * * * * * * * * * * * * * * * * * * * * * * * * * * * * * //

dimensions      [0 0 0 0 0 0 0];

internalField   nonuniform List<scalar> 
13948
(
1.2152e-14
1.3147e-14
8.24375e-15
1.62915e-14
1.52823e-14
2.72366e-14
3.62338e-14
4.40326e-14
4.0016e-14
2.92462e-14
2.04783e-14
1.70512e-14
1.95101e-14
2.68611e-14
3.04162e-14
2.22951e-14
2.58122e-14
1.91645e-14
3.05135e-14
2.18558e-14
1.74737e-14
2.73089e-14
2.11036e-14
2.72767e-14
1.8769e-14
1.99388e-14
2.45827e-14
3.223e-14
2.56307e-14
2.62046e-14
3.07057e-14
2.73309e-14
1.68219e-14
1.67021e-14
8.8213e-15
4.16694e-15
1.91852e-14
2.87451e-14
3.84764e-14
3.07915e-14
1.57774e-14
1.96044e-14
1.76938e-14
1.40458e-14
1.09353e-14
2.25326e-14
8.44399e-15
6.0678e-15
1.441e-14
1.37114e-14
2.088e-14
1.16884e-14
1.1273e-14
1.04687e-14
6.65521e-15
1.03911e-14
2.75989e-14
3.6655e-14
2.8099e-14
2.26803e-14
1.53318e-14
1.27646e-14
1.68307e-14
9.56805e-15
9.33278e-15
2.65902e-14
2.3718e-14
2.37173e-14
2.24301e-14
1.91184e-14
2.42018e-14
2.63437e-14
2.08161e-14
4.8698e-15
4.45425e-15
3.08684e-15
5.06097e-15
1.30246e-14
2.30444e-14
1.60039e-14
1.09144e-14
5.23394e-15
7.65104e-15
1.59859e-14
1.62182e-14
2.13779e-14
1.45083e-14
5.53374e-15
9.74466e-15
1.23579e-14
9.98529e-15
3.00416e-15
6.28952e-15
2.19942e-15
3.38005e-15
7.20066e-15
7.77648e-15
5.91368e-15
3.74671e-15
8.49441e-15
8.13437e-15
1.09281e-14
2.81918e-15
6.93212e-15
1.14709e-14
3.19824e-14
2.96405e-14
4.02291e-14
3.74921e-14
2.47759e-14
1.28434e-14
1.79621e-14
1.66852e-14
2.03069e-14
2.48117e-14
2.56396e-14
2.16433e-14
8.82489e-15
1.65385e-14
1.55497e-14
8.27191e-15
1.70663e-14
1.02346e-14
1.8435e-14
1.77117e-14
1.91685e-14
1.7115e-14
2.24687e-14
1.47668e-14
2.31716e-14
3.34095e-14
2.32521e-14
1.01422e-14
1.23182e-14
9.06323e-15
7.0338e-15
1.75906e-14
2.05397e-14
2.61922e-14
2.29341e-14
7.44188e-15
1.45364e-14
1.74647e-14
9.77094e-15
9.53876e-15
1.55051e-14
1.14787e-14
7.13021e-15
9.54601e-15
1.22531e-14
2.47375e-14
1.48547e-14
1.9857e-14
1.46791e-14
7.84405e-15
9.55708e-15
2.12332e-14
2.86779e-14
1.65864e-14
1.78367e-14
1.31916e-14
2.58969e-14
1.41577e-14
1.14278e-14
8.01835e-15
2.18673e-14
1.9313e-14
2.19094e-14
2.35168e-14
2.21713e-14
2.16403e-14
1.58009e-14
1.15082e-14
2.38686e-15
4.90265e-15
5.84354e-15
5.8967e-15
8.46936e-15
1.77547e-14
2.30412e-14
1.71532e-14
4.27224e-15
7.59461e-15
1.80016e-14
1.86478e-14
1.88513e-14
1.76173e-14
1.28239e-14
2.65689e-15
2.73491e-15
4.93238e-15
5.69451e-15
8.01305e-15
1.0617e-14
7.58791e-15
6.83309e-15
8.81997e-15
1.16519e-14
1.25443e-14
1.0171e-14
1.23221e-14
2.24235e-14
1.65387e-14
8.17621e-15
4.84542e-15
8.52481e-15
8.45704e-15
7.05941e-15
1.0719e-14
3.85311e-15
7.6499e-15
8.72407e-15
9.95521e-15
2.82406e-15
1.62042e-14
1.96268e-14
1.99544e-14
1.65472e-14
1.10475e-14
1.02177e-14
1.15967e-14
6.50374e-15
1.70443e-14
2.49227e-14
3.66404e-14
2.00761e-14
3.69537e-15
9.29183e-15
1.63522e-14
7.54087e-15
8.08088e-15
1.04954e-14
5.85702e-15
1.0189e-14
1.03588e-14
1.73081e-14
2.23702e-14
1.79592e-14
2.31438e-14
2.27019e-14
1.9209e-14
7.02001e-15
8.38405e-15
1.21109e-14
6.79714e-15
6.2252e-15
5.7787e-15
4.70352e-15
6.46977e-15
6.71315e-15
6.77746e-15
9.89317e-15
4.96971e-15
6.50764e-15
1.78675e-14
1.88219e-14
1.4148e-14
1.40934e-14
2.66897e-14
2.62538e-14
1.22624e-14
2.60639e-14
1.34435e-14
5.95702e-15
2.86491e-15
1.09037e-14
9.88559e-15
4.35257e-15
1.52057e-14
2.98484e-14
2.42454e-14
2.16003e-14
1.43014e-14
7.35777e-15
8.75801e-15
4.96465e-15
9.49081e-15
1.35514e-14
1.89741e-14
1.28872e-14
5.69102e-15
9.24508e-15
8.05992e-15
1.30127e-14
1.69312e-14
1.69414e-14
9.85783e-15
2.16286e-14
2.2975e-14
1.88545e-14
1.26415e-14
4.93359e-15
1.19938e-14
1.70624e-14
9.69594e-15
1.66114e-14
1.58786e-14
8.78444e-15
1.25925e-14
1.96332e-14
1.57592e-14
1.66337e-14
1.73281e-14
1.526e-14
7.66539e-15
1.17015e-14
1.13605e-14
2.85825e-14
5.59138e-15
3.62954e-15
9.29078e-15
1.38499e-14
1.10724e-14
7.25803e-15
1.57894e-14
1.88131e-14
2.13372e-14
2.06079e-14
2.34145e-14
2.42851e-14
2.24348e-14
2.23341e-14
1.05807e-14
1.08391e-14
1.08045e-14
8.5202e-15
1.18928e-14
1.5603e-14
1.73997e-14
1.85014e-14
1.26804e-14
4.89122e-15
8.67128e-15
7.30141e-15
3.55964e-15
8.1645e-15
1.70539e-14
1.32316e-14
1.27527e-14
1.11538e-14
1.17501e-14
9.12331e-15
1.30699e-14
1.21402e-14
1.31856e-14
8.81548e-15
1.19093e-14
1.46088e-14
1.35669e-14
1.54949e-14
1.00722e-14
5.51567e-15
9.31626e-15
8.86266e-15
9.09852e-15
7.1572e-15
6.83032e-15
1.16399e-14
1.40086e-14
4.80665e-15
4.0656e-15
9.28738e-15
1.79874e-14
4.3175e-15
1.07087e-14
2.2567e-14
2.27431e-14
2.3724e-14
6.70165e-15
1.71066e-14
1.19604e-14
7.02705e-15
1.26625e-14
1.11121e-14
1.95181e-14
9.87741e-15
8.91089e-15
1.01201e-14
1.83671e-14
1.71394e-14
1.56098e-14
1.76039e-14
2.89823e-14
1.19968e-14
4.4401e-15
1.21775e-14
4.00915e-15
5.54643e-15
7.03307e-15
1.23098e-14
1.29007e-14
5.33597e-15
6.3593e-15
7.3164e-15
2.12961e-15
1.17858e-14
1.2971e-14
1.25323e-14
1.41472e-14
1.33608e-14
1.92008e-14
2.11849e-14
1.21922e-14
1.69942e-14
5.93677e-15
8.39498e-15
7.51936e-15
5.59703e-15
7.04165e-15
3.12451e-15
1.54679e-14
2.64395e-14
2.1803e-14
2.08259e-14
6.08755e-15
1.4231e-14
1.26783e-14
1.27745e-14
8.78219e-15
1.1554e-14
1.37299e-14
1.1718e-14
1.02105e-14
9.44031e-15
9.67758e-15
1.52008e-14
2.46077e-14
2.19734e-14
1.54407e-14
2.12266e-14
1.7516e-14
1.99096e-14
2.40207e-14
1.10331e-14
1.44536e-14
1.20609e-14
9.07885e-15
1.65708e-14
1.72422e-14
1.3003e-14
1.59802e-14
1.5307e-14
1.46037e-14
1.44243e-14
1.43534e-14
1.27263e-14
1.02241e-14
2.26987e-14
7.04895e-15
3.38972e-14
9.81013e-15
6.85583e-15
7.98926e-15
9.95857e-15
7.8641e-15
1.08352e-14
7.37582e-15
7.38456e-15
1.23484e-14
1.90157e-14
1.61384e-14
1.70556e-14
1.6373e-14
2.15263e-14
2.44314e-14
1.9823e-14
6.68951e-15
7.08514e-15
1.0605e-14
1.25234e-14
8.8178e-15
1.51049e-14
1.29771e-14
1.39879e-14
8.97507e-15
7.2334e-15
7.35622e-15
1.25094e-14
8.99065e-15
9.04848e-15
7.24916e-15
4.36454e-15
3.27928e-15
4.08864e-15
5.43996e-15
1.51927e-15
9.56382e-15
1.36297e-14
9.5961e-15
6.99797e-15
7.60466e-15
3.2088e-15
2.81712e-15
5.35942e-15
2.47619e-15
8.25318e-15
6.12737e-15
2.48681e-15
4.72191e-15
5.44376e-15
4.88098e-15
3.29267e-15
4.2495e-15
5.60081e-15
2.61134e-15
7.53742e-15
7.33418e-15
2.76099e-15
4.23533e-15
1.18367e-14
1.44737e-14
1.16813e-14
6.48233e-15
1.12926e-14
6.87773e-15
4.36947e-15
7.36594e-15
1.56337e-14
1.63145e-14
1.07645e-14
6.40867e-15
5.27548e-15
6.72018e-15
5.75872e-15
5.08957e-15
7.88081e-15
1.94708e-14
6.49232e-15
5.33885e-15
7.28026e-15
5.99916e-15
8.19532e-15
5.73926e-15
1.22449e-14
1.3346e-14
8.99358e-15
3.01513e-15
6.95991e-15
4.35005e-15
3.91597e-15
6.36867e-15
4.23054e-15
3.764e-15
5.02328e-15
1.19696e-14
1.38256e-14
3.63831e-15
1.78091e-15
8.09489e-15
1.67186e-15
4.20744e-15
1.02773e-14
3.91939e-15
5.77743e-15
4.82112e-15
1.34215e-14
2.21544e-14
1.19602e-14
4.67556e-15
5.0318e-15
1.13112e-14
9.50063e-15
1.06855e-14
1.48352e-14
9.7063e-15
1.02358e-14
1.1683e-14
3.64931e-15
3.23058e-15
9.25872e-15
1.38446e-14
2.28263e-14
2.01668e-14
1.16831e-14
9.01523e-15
1.48174e-14
2.20364e-14
2.05803e-14
1.61847e-14
7.75702e-15
8.64752e-15
1.07089e-14
6.38724e-15
6.90171e-15
1.14395e-14
9.21132e-15
8.79661e-15
5.05958e-15
3.05814e-15
3.58278e-15
8.0658e-15
8.60736e-15
7.09228e-15
1.96079e-14
4.1664e-15
7.32521e-15
8.94674e-15
7.38387e-15
6.82127e-15
5.41262e-15
4.67054e-15
8.20788e-15
7.47662e-15
6.31214e-15
1.19998e-14
8.43647e-15
3.40892e-15
5.58848e-15
1.18172e-14
1.32115e-14
1.03121e-14
8.80698e-15
3.77369e-15
4.60486e-15
7.70495e-15
1.01569e-14
1.05432e-14
1.09378e-14
7.95802e-15
1.16555e-14
1.04073e-14
1.21254e-14
1.49578e-14
9.45413e-15
5.10625e-15
1.06867e-14
1.25472e-14
8.49547e-15
1.17323e-14
1.07165e-14
1.28549e-14
3.78285e-15
2.21786e-15
2.40405e-15
4.34984e-15
8.42932e-15
1.28262e-14
1.33484e-14
9.90014e-15
8.85174e-15
6.33983e-15
2.91488e-15
7.99763e-15
2.95308e-15
8.39107e-15
5.48674e-15
5.60811e-15
7.15911e-15
5.47402e-15
3.27395e-15
3.13448e-15
4.91697e-15
7.17227e-15
6.26471e-15
6.2229e-15
8.33691e-15
6.23721e-15
4.63989e-15
3.30254e-15
3.05082e-15
3.06094e-15
8.25887e-15
2.23856e-14
1.24824e-14
4.6355e-15
7.39444e-15
9.41246e-15
9.68714e-15
4.462e-15
4.36322e-15
1.00001e-14
1.36366e-14
1.22308e-14
3.29604e-15
5.98865e-15
9.86096e-15
4.71897e-15
3.55239e-15
1.92607e-15
6.97475e-15
1.15988e-14
7.89496e-15
1.42565e-14
1.03094e-14
9.7972e-15
3.73763e-15
4.62802e-15
7.63385e-15
5.62792e-15
1.1553e-14
4.60834e-15
6.86073e-15
1.0054e-14
9.85251e-15
6.97762e-15
7.98299e-15
3.1436e-15
5.84597e-15
7.40632e-15
1.43827e-14
9.02309e-15
9.71062e-15
8.51421e-15
1.02731e-14
1.09482e-14
7.84369e-15
7.30321e-15
1.45804e-14
1.75386e-14
1.45938e-14
1.29959e-14
1.10359e-14
3.15452e-15
5.67424e-15
4.45986e-15
1.01394e-14
1.64731e-14
1.67014e-14
5.56727e-15
6.58591e-15
1.3221e-14
8.61481e-15
6.1845e-15
1.07811e-14
1.11353e-14
1.01285e-14
3.87949e-15
2.87868e-15
4.46344e-15
2.10012e-15
2.3226e-15
2.98679e-15
7.09585e-15
1.24004e-14
6.81616e-15
7.5161e-15
7.23215e-15
1.20913e-14
1.09935e-14
1.46291e-14
1.21244e-14
1.3297e-14
1.61043e-14
2.16776e-14
9.16805e-15
5.67388e-15
8.14107e-15
5.90351e-15
6.75428e-15
1.26855e-14
6.10006e-15
1.23913e-14
3.91716e-15
6.54423e-15
8.9442e-15
1.34551e-14
1.2399e-14
1.15729e-14
8.30972e-15
9.28511e-15
1.02778e-14
1.04601e-14
1.2953e-14
1.43311e-14
1.34511e-14
1.32576e-14
1.40149e-14
2.31245e-14
1.3074e-14
9.12297e-15
9.96089e-15
8.49149e-15
3.87789e-15
4.88345e-15
4.9767e-15
7.39861e-15
5.73071e-15
4.71171e-15
3.54846e-15
1.10816e-14
1.72063e-14
1.70487e-14
1.03467e-14
7.20861e-15
8.11341e-15
9.52343e-15
6.59056e-15
6.15636e-15
8.0575e-15
1.58147e-14
9.27443e-15
7.86105e-15
7.47711e-15
2.66394e-15
5.14199e-15
7.43961e-15
3.85554e-15
6.81686e-15
6.00834e-15
3.40661e-15
1.25576e-14
6.73792e-15
5.20567e-15
1.16942e-14
9.46537e-15
7.14648e-15
1.25128e-14
2.41463e-14
8.97872e-15
6.60228e-15
1.11774e-14
1.02829e-14
5.35194e-15
6.0043e-15
5.34289e-15
8.64567e-15
6.52981e-15
1.37285e-14
1.59001e-14
4.04372e-15
6.61465e-15
8.32103e-15
4.98541e-15
5.42166e-15
4.47968e-15
7.70173e-15
9.79604e-15
2.13774e-14
2.07578e-14
8.70652e-15
2.17093e-15
6.8135e-15
8.47506e-15
8.90575e-15
1.89415e-15
6.31713e-15
4.34082e-15
1.18577e-14
8.22366e-16
1.44019e-14
1.44986e-14
3.03455e-15
9.605e-15
7.98645e-15
2.12252e-14
1.70711e-14
5.15191e-15
1.55987e-14
9.55503e-15
1.4455e-14
8.28397e-15
1.00565e-14
1.77242e-14
1.76946e-14
1.66478e-14
1.44591e-14
1.43893e-14
5.15207e-15
7.18644e-15
9.61828e-15
1.08739e-14
8.00993e-15
1.81537e-14
1.50638e-14
1.89247e-14
1.11878e-14
9.36973e-15
1.63061e-15
8.32586e-15
1.31929e-14
8.71454e-15
6.19943e-15
2.63846e-15
9.90274e-15
1.13858e-14
1.00411e-14
1.13396e-14
1.05999e-14
1.01222e-14
1.26837e-14
1.29345e-14
1.1452e-14
1.08037e-14
9.38274e-15
9.97949e-15
1.15246e-14
1.19655e-14
9.93654e-15
1.12297e-14
8.54853e-15
3.06407e-15
5.7177e-15
6.51357e-15
6.64915e-15
5.08713e-15
4.41799e-15
4.77289e-15
3.62942e-15
4.18988e-15
6.72305e-15
9.68754e-15
5.74781e-15
6.24193e-15
6.62318e-15
8.65566e-15
7.51715e-15
7.21305e-15
8.45972e-15
4.47515e-15
3.95468e-15
4.53037e-15
6.88108e-15
1.02438e-14
6.27014e-15
8.05776e-15
3.41896e-15
8.32654e-15
4.82888e-15
8.27644e-15
1.08197e-14
1.57626e-14
9.69235e-15
7.30615e-15
6.36046e-15
1.24599e-14
8.90214e-15
1.45251e-15
1.38395e-14
1.17186e-14
1.5789e-14
1.45854e-14
6.71811e-15
5.15349e-15
5.05323e-15
8.82763e-15
7.08091e-15
3.93578e-15
7.49392e-15
4.25126e-15
1.4291e-14
6.65473e-15
3.71175e-15
1.24291e-14
5.92785e-15
4.01772e-15
1.06973e-14
6.45869e-15
7.87011e-15
7.95631e-15
9.68392e-15
9.72258e-15
6.84299e-15
1.27396e-14
1.08695e-14
6.77815e-15
9.20286e-15
3.99218e-15
4.95642e-15
1.60457e-15
3.22233e-15
5.97383e-15
4.63137e-15
2.33616e-14
1.4004e-14
5.58203e-15
8.19622e-15
8.90004e-15
4.65999e-15
3.86017e-15
2.82924e-15
4.89346e-15
2.92082e-15
4.13142e-15
1.40772e-14
3.56191e-15
4.56925e-15
8.88142e-15
3.72146e-15
9.50214e-15
7.71911e-15
5.71275e-15
7.92515e-15
4.94904e-15
7.54776e-15
9.77479e-15
1.5496e-14
1.54403e-14
1.01058e-14
6.79529e-15
1.13625e-14
1.33504e-14
8.28248e-15
7.08309e-15
4.94228e-15
6.41066e-15
1.07346e-14
6.95942e-15
5.16151e-15
6.68042e-15
8.91049e-15
4.879e-15
1.01916e-14
8.56707e-15
3.07932e-15
5.71549e-15
2.13181e-14
1.08208e-14
1.18041e-14
2.13836e-14
2.94994e-14
1.28205e-14
9.50276e-15
2.71707e-15
1.03263e-14
2.35351e-14
1.07569e-14
5.10945e-15
7.59836e-15
1.0314e-14
6.51336e-15
6.44608e-15
8.04553e-15
1.41483e-14
1.46942e-14
6.41806e-15
1.36534e-14
9.08838e-15
1.38119e-14
1.18102e-14
1.17902e-14
3.92158e-15
6.41708e-15
1.27744e-14
1.10627e-14
5.84646e-15
6.95857e-15
1.03477e-14
1.2697e-14
1.07474e-14
1.71153e-14
6.14708e-15
6.63326e-15
6.37864e-15
6.91231e-15
5.10333e-15
7.42265e-15
1.01138e-14
5.69806e-15
6.0418e-15
5.00438e-15
9.66136e-15
1.0884e-14
9.12816e-15
6.64466e-15
8.917e-15
1.08938e-14
8.5963e-15
1.3319e-14
7.95715e-15
9.82601e-15
6.73122e-15
8.71514e-15
3.54023e-15
8.91876e-15
1.81372e-14
1.8164e-14
1.15208e-14
7.19056e-15
7.87914e-15
6.37914e-15
8.92624e-15
9.47426e-15
1.27318e-14
9.19716e-15
1.1828e-14
1.34759e-14
6.93563e-15
6.23201e-15
6.90883e-15
1.85493e-14
5.80389e-15
7.03885e-15
4.15565e-15
5.31489e-15
1.54322e-14
2.84465e-15
9.46835e-15
6.64486e-15
1.01619e-14
8.80448e-15
4.25467e-15
2.47202e-15
4.27959e-15
7.72108e-15
1.20608e-14
5.56031e-15
9.23848e-15
2.30465e-15
6.53654e-15
5.48189e-15
6.63731e-15
7.4e-15
2.20852e-15
3.55968e-15
2.77054e-15
8.36772e-15
2.79409e-15
9.29455e-15
1.0679e-14
4.03619e-15
5.7041e-15
5.65994e-15
1.77505e-15
4.03198e-15
1.2694e-15
2.5196e-15
2.96119e-15
1.02835e-14
5.04918e-15
9.58733e-15
4.56608e-15
4.32839e-15
9.30652e-15
7.54387e-15
1.27966e-14
7.75682e-15
3.43285e-15
9.9604e-15
8.58213e-15
1.13175e-14
1.63624e-14
1.3796e-14
2.14266e-14
2.3031e-14
2.29668e-14
1.60904e-14
8.80852e-15
1.56869e-14
7.32235e-15
8.63283e-15
1.02632e-14
9.49879e-15
2.40327e-14
2.89211e-14
2.83567e-14
2.41437e-14
2.49032e-14
1.42022e-14
8.16046e-15
2.15187e-15
1.53403e-14
2.49585e-14
2.2679e-14
1.72789e-14
2.14651e-14
1.9602e-14
1.50452e-14
5.4338e-15
1.21833e-14
1.35256e-14
1.19264e-14
6.14478e-15
1.38681e-14
3.52126e-15
4.81777e-15
3.57361e-15
7.36171e-15
1.48279e-14
1.20493e-14
6.49055e-15
3.40414e-15
6.01956e-15
4.21789e-15
1.54986e-14
1.78188e-14
1.46782e-14
2.46867e-14
1.91139e-14
2.05522e-14
1.47077e-14
9.75011e-15
1.32206e-14
1.88172e-14
1.35133e-14
1.69694e-14
1.18978e-14
1.0022e-14
5.83562e-15
1.51282e-14
1.15247e-14
1.18336e-14
1.32232e-14
1.08878e-14
1.57847e-14
1.82886e-14
1.42789e-14
1.28751e-14
1.33727e-14
1.17725e-14
1.14916e-14
6.07448e-15
1.23078e-14
1.22071e-14
1.49474e-14
1.79172e-14
1.13646e-14
7.26744e-15
7.40518e-15
1.08798e-14
1.52549e-14
1.03132e-14
1.26789e-14
1.22078e-14
1.48018e-14
9.29993e-15
8.21723e-15
9.21762e-15
9.24652e-15
6.42754e-15
7.63401e-15
8.05029e-15
7.67568e-15
1.26068e-14
1.26411e-14
1.74548e-14
1.38476e-14
4.78901e-15
5.37567e-15
4.85522e-15
9.97193e-15
4.09328e-15
1.13933e-14
1.4104e-14
1.17833e-14
1.28011e-14
1.35094e-14
1.28229e-14
1.66802e-14
1.0659e-14
5.43649e-15
1.01237e-14
3.29483e-15
9.32276e-15
3.30655e-15
4.27097e-15
3.94871e-15
1.08499e-14
7.11203e-15
2.36421e-15
5.64293e-15
6.84725e-15
2.56608e-15
4.10474e-15
4.46982e-15
7.91979e-15
4.12621e-15
5.1616e-15
6.46904e-15
7.05455e-15
4.30165e-15
6.26412e-15
2.95711e-15
7.1502e-15
3.58005e-15
9.41424e-15
7.12822e-15
6.74338e-15
8.19087e-15
5.71853e-15
7.54482e-15
7.08324e-15
2.03012e-14
7.02377e-15
3.40625e-15
4.14538e-15
1.0201e-14
1.14661e-14
6.4733e-15
9.92784e-15
1.46288e-14
1.57155e-14
1.66742e-14
1.34062e-14
6.91817e-15
1.28707e-14
8.41627e-15
2.84442e-15
1.47495e-14
2.09054e-14
1.42761e-14
9.78852e-15
1.42606e-14
3.27477e-15
5.98338e-15
2.26374e-15
4.5335e-15
1.00807e-14
9.48178e-15
8.46347e-15
1.13306e-14
1.45579e-14
1.11049e-14
9.04875e-15
1.12565e-14
7.52961e-15
5.38508e-15
7.29588e-15
6.52469e-15
6.43366e-15
7.13484e-15
1.98373e-15
1.09255e-14
5.99852e-15
6.84758e-15
6.11187e-15
8.42781e-15
9.44172e-15
5.30222e-15
8.05031e-15
9.71987e-15
1.59357e-14
1.25168e-14
8.57592e-15
8.62489e-15
1.57885e-14
9.40591e-15
7.43461e-15
7.5384e-15
9.22243e-15
7.87029e-15
1.21079e-14
1.04146e-14
8.76159e-15
8.40076e-15
1.29347e-14
2.56146e-15
1.12834e-14
5.33998e-15
1.07879e-14
1.11035e-14
1.06892e-14
5.87952e-15
8.0073e-15
4.28557e-15
4.79588e-15
2.6645e-15
6.42638e-15
1.00199e-14
1.03213e-14
1.09952e-14
1.53458e-14
1.26052e-14
1.34137e-14
8.85224e-15
2.04886e-14
9.94618e-15
1.47263e-14
1.39009e-14
1.44145e-14
1.23866e-14
1.31558e-14
8.68928e-15
6.79674e-15
3.54088e-15
7.54866e-15
1.00498e-14
6.44013e-15
9.37454e-15
1.61784e-14
1.08329e-14
1.25321e-14
2.56925e-15
1.04227e-14
6.94622e-15
7.27484e-15
5.43041e-15
9.13771e-15
1.83842e-14
1.45359e-14
8.37119e-15
1.36443e-15
1.17772e-14
1.46111e-14
2.00096e-14
7.13785e-15
1.51227e-14
1.23186e-14
3.96478e-15
5.05613e-15
4.29334e-15
1.01419e-14
1.20817e-14
9.19006e-15
6.60175e-15
1.1308e-14
9.48759e-15
5.28721e-15
1.10783e-14
6.32384e-15
2.14757e-15
6.06049e-15
9.05684e-15
2.26851e-15
7.03935e-15
1.89162e-15
9.00855e-15
5.64425e-15
8.62699e-15
9.79414e-15
4.40733e-15
7.67593e-15
5.05675e-15
8.91844e-15
1.23749e-14
1.47409e-14
1.23188e-14
7.08794e-15
5.57199e-15
7.7396e-15
8.52527e-15
1.1306e-14
2.78824e-15
1.24415e-14
1.29345e-14
1.47234e-14
9.65981e-15
9.41855e-15
5.49183e-15
3.58443e-15
4.11974e-15
9.17667e-15
6.44806e-15
8.73341e-15
7.89585e-15
7.56818e-15
4.4517e-15
8.28649e-15
1.29171e-14
8.60681e-15
4.38103e-15
7.17609e-15
1.05841e-14
7.54672e-15
1.20277e-14
3.03697e-15
4.99979e-15
1.15838e-14
1.95332e-14
8.00136e-15
2.58706e-15
7.08667e-15
7.21263e-15
8.95969e-15
4.54372e-15
5.86381e-15
3.66689e-15
7.05928e-15
1.1614e-14
1.09479e-14
7.09466e-15
4.71029e-15
1.85019e-14
1.6011e-14
1.95531e-14
4.36613e-15
4.70234e-15
3.41081e-15
4.4252e-15
7.29406e-15
2.97473e-15
8.06692e-15
6.54392e-15
6.56366e-15
5.25536e-15
5.36992e-15
4.36536e-15
3.91166e-15
8.39772e-15
5.30364e-15
7.98549e-15
3.52093e-15
7.20965e-15
1.01362e-14
6.14885e-15
5.25767e-15
2.55555e-15
3.56965e-15
6.99636e-15
9.28943e-15
5.77429e-15
5.39074e-15
9.35788e-15
2.10987e-15
5.43766e-15
2.2374e-15
4.04732e-15
6.02035e-15
5.11564e-15
9.29992e-15
1.13952e-14
5.35272e-15
7.41088e-15
7.7245e-15
8.45053e-15
9.62439e-15
1.37842e-14
9.41202e-15
7.34057e-15
7.08261e-15
8.18946e-15
1.21371e-14
1.18778e-14
1.3313e-14
6.91806e-15
5.83557e-15
5.095e-15
5.73257e-15
5.9052e-15
2.13566e-15
6.62011e-15
3.99292e-15
9.56075e-15
9.85704e-15
6.6615e-15
1.19367e-14
3.13426e-15
1.08056e-14
6.0356e-15
4.84662e-15
1.27039e-14
9.80289e-15
9.39306e-15
3.56238e-15
4.70738e-15
8.94196e-15
1.17435e-14
5.04276e-15
1.49068e-14
8.2601e-15
4.64496e-15
6.39249e-15
3.33175e-15
7.31381e-15
6.74802e-15
9.60825e-15
3.97116e-15
1.10649e-15
1.45993e-15
1.69754e-15
1.76837e-15
3.17973e-15
4.19561e-15
4.35516e-15
1.03983e-14
1.02789e-14
4.81566e-15
1.02419e-14
6.2188e-15
2.39414e-15
4.90106e-15
3.58488e-15
1.12174e-14
7.33842e-15
4.38631e-15
3.57643e-15
1.67544e-14
1.15608e-14
1.10816e-14
1.15622e-14
1.84285e-14
1.9021e-14
9.9378e-15
1.51867e-14
2.9145e-15
9.05247e-15
5.25659e-15
1.17391e-14
6.02933e-15
3.80928e-15
1.04128e-14
1.44479e-14
8.03918e-15
5.29841e-15
4.17584e-15
6.60969e-15
7.61965e-15
1.02963e-14
3.80361e-15
6.82564e-15
6.85135e-15
2.95947e-15
2.15301e-15
8.42534e-15
4.38178e-15
1.91987e-15
6.47044e-15
3.93397e-15
2.64328e-15
5.61836e-15
1.22672e-14
1.21207e-14
5.74589e-15
9.47478e-15
5.21053e-15
5.51189e-15
1.3871e-14
3.96202e-15
1.05369e-14
8.08443e-15
8.31981e-15
7.7554e-15
3.8176e-15
5.06682e-15
3.04481e-15
7.04835e-15
1.00706e-14
6.32449e-15
4.30963e-15
5.97017e-15
9.57676e-15
3.64952e-15
4.90367e-15
8.31752e-15
6.13452e-15
9.15925e-15
4.64879e-15
7.6474e-15
9.52127e-15
1.15054e-14
9.80905e-15
6.86758e-15
8.92325e-15
7.49891e-15
8.77077e-15
9.12258e-15
7.24934e-15
9.70779e-15
5.00994e-15
5.71946e-15
4.98216e-15
6.22314e-15
6.00269e-15
6.13533e-15
5.55671e-15
9.77481e-15
1.56256e-14
1.41701e-14
1.03333e-14
3.95669e-15
7.06109e-15
9.41604e-15
7.32614e-15
8.52973e-15
1.11359e-14
6.12507e-15
7.78048e-15
3.13757e-15
1.45436e-14
1.39978e-14
5.702e-15
1.35513e-14
5.57679e-15
1.63962e-14
1.03463e-14
6.62433e-15
3.92207e-15
5.96265e-15
1.41543e-14
9.11026e-15
7.72395e-15
1.55901e-14
6.1947e-15
1.59789e-14
1.43237e-14
1.65408e-14
9.51493e-15
1.36506e-14
8.16123e-15
3.56231e-15
1.09245e-14
8.50452e-15
1.49776e-14
1.67737e-14
1.63651e-14
1.1218e-14
1.65164e-14
1.22085e-14
9.11274e-15
8.19741e-15
3.8288e-15
3.38898e-15
9.06573e-15
2.43247e-15
8.78057e-15
4.97162e-15
6.6124e-15
1.47257e-14
7.1582e-15
9.96096e-15
6.03215e-15
4.31823e-15
5.10575e-15
6.51892e-15
1.3207e-14
1.78634e-14
6.65943e-15
5.34501e-15
6.32781e-15
1.24793e-14
1.16442e-14
3.13934e-15
1.0373e-14
9.9619e-15
4.52087e-15
2.187e-14
1.10412e-14
4.06623e-15
2.9483e-15
6.1932e-15
2.88509e-15
1.05599e-14
5.91058e-15
6.90057e-15
5.47845e-15
1.76581e-14
2.22825e-14
2.08454e-14
9.14575e-15
1.48272e-14
6.3592e-15
7.51213e-15
5.96814e-15
2.19798e-15
8.19154e-15
1.10307e-14
7.55138e-15
1.28319e-14
8.7123e-15
7.34379e-15
6.09696e-15
1.19188e-14
5.90296e-15
1.44859e-14
1.01965e-14
2.52167e-14
1.99111e-14
1.27454e-14
9.67725e-15
5.01712e-15
1.33924e-14
1.49022e-14
1.20503e-14
3.96822e-15
1.09945e-14
5.17907e-15
1.07992e-14
3.04649e-15
7.58225e-15
5.19614e-15
1.0587e-14
4.01944e-15
1.35401e-15
2.94932e-15
3.77402e-15
5.04957e-15
3.6737e-15
5.51279e-15
7.85799e-15
6.63819e-15
1.04157e-14
8.17883e-15
7.01649e-15
7.14381e-15
8.92764e-15
5.94722e-15
4.71534e-15
2.64518e-15
9.1762e-15
5.66257e-15
1.03154e-14
1.24256e-14
1.27298e-14
7.98448e-15
1.24387e-14
8.55843e-15
4.00418e-15
9.51196e-15
1.27962e-14
1.19042e-14
8.63408e-15
1.36293e-14
1.10745e-14
1.26336e-14
9.33105e-15
1.68278e-14
1.5155e-14
1.24542e-14
7.91148e-15
1.15298e-14
5.08815e-15
6.16876e-15
7.17755e-15
9.77509e-15
4.06306e-15
6.33779e-15
1.28146e-14
1.11666e-14
1.06094e-14
1.41175e-14
7.9307e-15
1.28044e-14
1.20231e-14
5.19752e-15
4.66047e-15
1.01196e-14
1.01364e-14
5.67168e-15
1.79699e-14
1.67977e-14
8.13497e-15
1.6456e-14
1.92741e-14
1.73721e-14
8.10139e-15
1.92947e-14
7.95111e-15
1.71054e-14
2.55265e-14
1.53599e-14
1.21927e-14
1.29614e-14
1.09546e-14
7.43037e-15
1.2538e-14
6.19832e-15
1.11775e-14
5.33913e-15
6.91608e-15
4.24565e-15
1.32911e-14
6.67754e-15
2.41229e-14
9.71442e-15
1.49156e-14
1.04954e-14
9.06318e-15
4.30334e-15
1.07531e-14
4.73929e-15
6.12233e-15
8.72182e-15
5.31562e-15
1.21045e-14
1.55824e-14
8.1847e-15
1.4204e-14
5.27395e-15
5.17411e-15
8.32211e-15
3.78573e-15
9.8357e-15
9.92484e-15
1.15791e-14
8.12591e-15
1.40583e-14
3.62725e-15
1.12858e-14
1.56865e-14
1.47129e-14
8.77027e-15
3.62939e-15
8.48702e-15
3.75428e-15
3.90766e-15
9.86421e-15
3.92115e-15
1.06822e-15
5.20531e-15
1.11431e-14
7.79104e-15
8.30104e-15
1.20319e-14
7.89345e-15
8.32755e-15
1.13587e-14
1.64584e-14
6.30417e-15
1.1203e-14
1.00677e-14
6.76219e-15
5.46894e-15
1.45882e-14
4.66023e-15
1.09653e-14
8.62304e-15
1.95514e-14
1.61435e-14
5.29264e-15
3.2141e-15
4.93448e-15
9.96355e-15
8.04592e-15
5.80875e-15
9.09792e-15
6.09213e-15
7.29226e-15
7.75157e-15
6.76861e-15
6.53054e-15
7.5338e-15
3.58117e-15
7.32197e-15
5.27256e-15
6.38808e-15
7.76779e-15
3.16725e-15
7.96796e-15
8.8665e-15
4.82274e-15
1.12039e-14
5.19414e-15
4.46999e-15
8.07942e-15
1.51955e-14
6.78805e-15
1.05265e-14
1.14309e-14
9.8062e-15
3.6049e-15
6.0832e-15
3.58989e-15
8.02382e-15
6.05537e-15
1.10708e-14
8.88433e-15
8.05105e-15
6.26871e-16
3.15283e-15
7.15057e-15
7.90694e-15
2.83451e-15
4.01991e-15
4.69499e-15
6.14184e-15
8.33925e-15
7.09433e-15
1.10767e-14
9.88568e-15
8.26783e-15
7.02948e-15
1.61041e-14
1.12735e-14
3.7683e-15
4.10275e-15
7.14211e-15
4.29976e-15
3.66672e-15
6.47924e-15
7.34506e-15
1.30707e-14
9.24408e-15
6.56286e-15
6.97477e-15
8.73643e-15
3.42446e-15
1.29458e-14
1.02289e-14
6.76744e-15
1.13449e-14
3.13482e-15
7.71366e-15
9.90807e-15
1.10667e-14
2.49935e-15
8.26413e-15
3.1302e-15
4.4782e-15
2.12694e-15
2.84423e-15
5.0835e-15
9.20823e-15
1.14383e-14
1.15084e-14
1.22075e-14
8.60219e-15
6.23002e-15
5.85165e-15
1.33511e-14
9.02869e-15
5.30774e-15
8.67307e-15
6.12447e-15
2.31497e-15
2.65705e-15
2.19764e-15
7.97607e-15
7.38099e-15
7.96453e-15
8.52099e-15
9.83783e-15
9.57494e-15
9.05933e-15
5.07002e-15
6.85467e-15
1.00875e-14
9.95528e-15
3.70339e-15
9.41187e-15
3.78966e-15
2.00367e-14
5.47462e-15
2.79592e-15
8.32162e-15
9.80534e-15
1.2953e-14
1.46551e-14
1.31194e-14
2.3958e-15
8.437e-15
6.96606e-15
5.65503e-15
2.32641e-15
3.09755e-15
5.86316e-15
1.40243e-14
1.17006e-14
8.25785e-15
2.19024e-15
5.37591e-15
4.28607e-15
9.57965e-15
1.49361e-14
1.48297e-14
1.50294e-14
1.8624e-14
1.62805e-14
9.83089e-15
1.19978e-15
7.78959e-15
1.27922e-14
1.2506e-14
1.05602e-14
3.65151e-15
6.82966e-15
3.56522e-15
5.5863e-15
4.15312e-15
3.88848e-15
1.7946e-15
5.117e-15
3.61559e-15
2.88945e-15
1.99171e-15
4.02445e-15
6.83579e-15
4.134e-15
3.55791e-15
5.83557e-15
7.54556e-15
9.13496e-15
7.53198e-15
3.02942e-15
2.31142e-15
6.91107e-15
6.79216e-15
6.65346e-15
2.21974e-15
4.61854e-15
1.08067e-14
1.12178e-14
2.76243e-15
5.88064e-15
5.85096e-15
8.87902e-15
9.82535e-15
5.86608e-15
8.69108e-15
1.14819e-14
1.10172e-14
6.655e-15
8.531e-15
5.84313e-15
6.30723e-15
5.62421e-15
1.10137e-14
1.3544e-14
1.33944e-14
7.80311e-15
3.45081e-15
4.17756e-15
5.56078e-15
3.03577e-15
3.41713e-15
2.92973e-15
2.44821e-15
7.68505e-15
2.62688e-15
4.88659e-15
1.03446e-14
4.21963e-15
8.97273e-15
1.71517e-14
1.24699e-14
7.1663e-15
7.98379e-15
6.01522e-15
5.2463e-15
4.9182e-15
4.20664e-15
5.67694e-15
5.28729e-15
3.19108e-15
3.56951e-15
2.90993e-15
1.03959e-14
6.59498e-15
5.62542e-15
1.57324e-15
1.54362e-14
6.59215e-15
5.53615e-15
1.08242e-14
6.89385e-15
5.07599e-15
1.15466e-14
8.84351e-15
6.71976e-15
1.01191e-14
4.63057e-15
1.82977e-15
5.92443e-15
1.3139e-14
1.44616e-15
4.29832e-15
7.26845e-15
3.33141e-15
9.30702e-15
9.55014e-15
1.9103e-15
1.75413e-15
4.02171e-15
6.38308e-15
2.88357e-15
4.26599e-15
7.99391e-15
1.16348e-14
5.025e-15
5.39228e-15
5.04835e-15
5.65086e-15
6.42801e-15
8.05387e-15
3.45741e-15
8.90281e-15
1.87578e-14
7.86225e-15
6.43888e-15
1.41561e-14
1.03261e-14
3.67065e-15
8.15625e-15
4.71542e-15
7.11059e-15
4.2539e-15
3.29962e-15
5.30386e-15
2.83721e-15
4.84438e-15
3.97604e-15
8.88287e-15
4.38592e-15
3.15467e-15
4.32581e-15
3.40973e-15
7.88371e-15
1.23072e-14
9.34996e-15
1.4928e-14
1.03666e-14
9.7196e-15
1.17538e-14
2.75878e-15
3.25345e-15
3.40865e-15
8.99476e-15
1.96552e-14
1.539e-14
8.77501e-15
1.30657e-14
1.0547e-14
8.7855e-15
9.86651e-15
1.22855e-14
1.2628e-14
1.60316e-14
1.83725e-14
1.71724e-14
1.1234e-14
6.35792e-15
1.03516e-14
8.23815e-15
3.20518e-15
4.57757e-15
6.18561e-15
3.57865e-15
6.78419e-15
5.9474e-15
8.07114e-15
8.24076e-15
1.40653e-14
1.0499e-14
7.12353e-15
2.7601e-15
8.74463e-15
1.29724e-14
1.21115e-14
1.06507e-14
1.0817e-14
5.04579e-15
5.29903e-15
6.10066e-15
6.53069e-15
6.08553e-15
6.35529e-15
4.33753e-15
6.23127e-15
6.61164e-15
6.38568e-15
8.11543e-15
7.25507e-15
7.90208e-15
6.26956e-15
6.9647e-15
6.16491e-15
6.36275e-15
1.76796e-15
5.36092e-15
4.53569e-15
4.04115e-15
8.17045e-15
9.69579e-15
3.12989e-15
2.43299e-15
5.79649e-15
7.40352e-15
1.29681e-14
1.11725e-14
5.63066e-15
6.85597e-15
9.68365e-15
9.43825e-15
8.12281e-15
3.55297e-15
8.40667e-15
6.91517e-15
4.96157e-15
2.01679e-15
2.89083e-15
4.40066e-15
3.722e-15
5.51021e-15
9.29467e-15
2.34301e-15
1.20283e-14
4.78445e-15
2.23113e-15
3.04804e-15
2.9223e-15
3.5074e-15
5.11354e-15
9.29407e-15
6.84969e-15
8.32425e-15
3.76899e-15
8.62227e-16
3.18514e-15
2.44618e-15
4.51014e-15
5.47584e-15
5.54249e-15
4.08789e-15
3.7479e-15
9.08108e-15
3.55044e-15
3.90315e-15
7.51458e-15
6.99888e-15
5.07371e-15
8.77134e-15
1.33539e-14
2.91537e-15
3.40071e-15
2.41307e-15
3.02349e-15
6.10795e-15
5.54053e-15
8.78897e-15
8.17698e-15
4.959e-15
1.66553e-14
6.73176e-15
6.74205e-15
1.59975e-14
7.60692e-15
8.98304e-15
1.15655e-14
9.21474e-15
3.96126e-15
8.27778e-15
8.00219e-15
5.57291e-15
3.16337e-15
8.01539e-15
3.15613e-15
1.08258e-14
5.49608e-15
6.90053e-15
7.813e-16
1.38888e-15
3.82699e-15
3.66942e-15
7.62223e-15
7.35461e-15
2.8894e-15
3.42798e-15
3.24431e-15
2.19821e-15
7.23563e-15
3.4457e-15
1.06209e-14
8.4169e-15
4.14618e-15
3.09256e-15
6.1235e-15
6.16867e-15
3.43301e-15
4.33887e-15
3.51772e-15
8.08069e-15
5.57436e-15
3.78061e-15
1.00593e-14
1.51094e-14
6.58616e-15
7.93598e-15
3.76191e-15
6.36791e-15
5.58691e-15
6.4239e-15
3.46234e-15
3.68714e-15
3.28374e-15
2.38884e-15
1.09631e-14
1.49138e-14
3.80983e-15
1.17992e-14
5.82447e-15
3.58485e-15
7.69746e-15
1.02218e-14
7.62133e-15
6.03342e-15
3.75248e-15
5.76177e-15
4.25485e-15
3.07699e-15
1.77933e-15
1.73064e-15
2.80232e-15
5.90593e-16
3.13267e-15
2.84107e-15
2.29375e-15
1.98081e-15
1.45437e-15
2.01868e-15
2.57919e-15
4.30347e-15
3.55894e-15
1.47268e-15
9.20827e-15
9.31935e-15
4.96146e-15
7.25712e-15
1.34531e-14
6.95609e-15
4.57793e-15
2.79866e-15
8.06006e-15
8.71966e-15
5.80088e-15
1.78885e-15
3.55389e-15
5.2594e-15
8.98167e-15
5.11888e-15
3.45574e-15
2.18635e-15
1.92341e-15
3.78406e-15
6.43203e-15
4.8412e-15
4.64604e-15
4.83388e-15
4.62364e-15
4.97523e-15
3.44416e-15
7.79824e-15
4.89497e-15
8.68933e-15
5.38511e-15
3.34244e-15
5.45948e-15
3.9748e-15
9.0114e-15
3.64228e-15
5.03736e-15
5.27633e-15
5.01062e-15
9.27318e-15
6.61399e-15
7.57427e-15
5.93212e-15
6.85289e-15
7.13516e-15
2.30259e-15
3.98115e-15
4.68716e-15
3.9986e-15
8.23468e-15
4.72919e-15
5.90173e-15
6.72366e-15
6.08163e-15
1.02006e-14
3.36622e-15
1.02482e-15
1.47745e-15
3.51533e-15
4.0466e-15
6.45141e-15
6.61579e-15
5.47266e-15
7.10327e-15
4.43412e-15