/*--------------------------------*- C++ -*----------------------------------*\
| =========                 |                                                 |
| \\      /  F ield         | OpenFOAM: The Open Source CFD Toolbox           |
|  \\    /   O peration     | Version:  2406                                  |
|   \\  /    A nd           | Website:  www.openfoam.com                      |
|    \\/     M anipulation  |                                                 |
\*---------------------------------------------------------------------------*/
FoamFile
{
    version     2.0;
    format      ascii;
    arch        "LSB;label=32;scalar=64";
    class       volScalarField;
    location    "0.055";
    object      Ma;
}
// * * * * * * * * * * * * * * * * * * * * * * * * * * * * * * * * * * * * * //

dimensions      [0 0 0 0 0 0 0];

internalField   nonuniform List<scalar> 
13818
(
1.91455e-14
2.52903e-14
8.62524e-15
4.63909e-14
7.31636e-14
8.47917e-14
7.79076e-14
6.74055e-14
7.18466e-14
7.64575e-14
8.30655e-14
9.09734e-14
9.14695e-14
8.79076e-14
8.12705e-14
7.6295e-14
6.97415e-14
7.36308e-14
7.46597e-14
5.49854e-14
5.93294e-14
5.4743e-14
5.47122e-14
5.2241e-14
4.03581e-14
3.73517e-14
4.07322e-14
5.35566e-14
5.62e-14
6.41064e-14
5.23831e-14
5.6542e-14
5.3507e-14
4.21853e-14
2.56633e-14
3.55567e-14
7.3147e-14
7.57912e-14
7.63493e-14
8.3673e-14
7.198e-14
7.42331e-14
6.00025e-14
4.31763e-14
2.38572e-14
2.16739e-14
2.79556e-14
3.97938e-14
4.16585e-14
3.58813e-14
3.9116e-14
4.16736e-14
4.1176e-14
2.89604e-14
3.98069e-14
4.84922e-14
3.51709e-14
3.72408e-14
3.47455e-14
4.04654e-14
4.44824e-14
2.99289e-14
3.91287e-14
7.33707e-14
9.7343e-14
8.18613e-14
6.73017e-14
5.3287e-14
5.05022e-14
3.66903e-14
3.53432e-14
3.66147e-14
4.16497e-14
4.09968e-14
3.94916e-14
4.94413e-14
6.15602e-14
7.1826e-14
6.82614e-14
6.35014e-14
6.09369e-14
5.02481e-14
3.93404e-14
4.00633e-14
4.5126e-14
4.72128e-14
4.93482e-14
4.69113e-14
5.68965e-14
7.17005e-14
6.96666e-14
5.66408e-14
4.86726e-14
4.52341e-14
4.37829e-14
4.44038e-14
3.51868e-14
3.40693e-14
3.19183e-14
3.91336e-14
4.37289e-14
4.83481e-14
7.83547e-14
8.01293e-14
6.04265e-14
4.15825e-14
1.30682e-14
8.39418e-15
2.14859e-14
4.57496e-14
7.92011e-14
9.48494e-14
9.00718e-14
7.22004e-14
7.21098e-14
8.35109e-14
9.37792e-14
9.46898e-14
9.15746e-14
9.22036e-14
8.7025e-14
7.288e-14
7.6984e-14
8.16374e-14
6.64291e-14
4.67793e-14
5.62183e-14
5.45072e-14
5.79695e-14
4.95434e-14
4.60873e-14
5.22872e-14
5.06026e-14
4.89809e-14
5.00309e-14
5.4823e-14
5.6515e-14
5.7847e-14
5.87271e-14
5.76021e-14
3.34508e-14
3.44109e-14
6.93781e-14
7.00862e-14
7.20038e-14
7.19867e-14
6.26462e-14
7.31831e-14
7.22156e-14
6.76124e-14
4.78323e-14
2.057e-14
2.78103e-14
3.84271e-14
5.21443e-14
4.11081e-14
3.6499e-14
4.12675e-14
4.39884e-14
3.34457e-14
4.1427e-14
4.2931e-14
3.38471e-14
3.4628e-14
3.50232e-14
3.56528e-14
3.89196e-14
3.88653e-14
3.79081e-14
7.02999e-14
8.55705e-14
7.67058e-14
7.03355e-14
6.41671e-14
5.74948e-14
3.73283e-14
4.01607e-14
3.7229e-14
5.60992e-14
4.71536e-14
4.60092e-14
4.17181e-14
5.63329e-14
6.28464e-14
6.39647e-14
5.97335e-14
5.58715e-14
4.56112e-14
3.79639e-14
3.73009e-14
4.44838e-14
4.58705e-14
4.68242e-14
5.39802e-14
6.44456e-14
6.73951e-14
6.32752e-14
5.25161e-14
4.55857e-14
4.40586e-14
4.15921e-14
3.96637e-14
3.15851e-14
3.17646e-14
3.68237e-14
3.50716e-14
4.00987e-14
4.20758e-14
6.74266e-14
6.62394e-14
5.45289e-14
4.93305e-14
5.42717e-15
1.45373e-14
2.0917e-14
4.16199e-14
7.34836e-14
9.08096e-14
9.28137e-14
7.85901e-14
7.19334e-14
8.49972e-14
9.76536e-14
9.6216e-14
9.35635e-14
9.55098e-14
8.31894e-14
6.94171e-14
7.49281e-14
6.99766e-14
5.4563e-14
4.50024e-14
5.28738e-14
5.99591e-14
6.12358e-14
4.89326e-14
5.34882e-14
5.86083e-14
5.63867e-14
5.04616e-14
5.53285e-14
5.75084e-14
5.64756e-14
6.05934e-14
6.18906e-14
6.20843e-14
4.31248e-14
3.2023e-14
5.65288e-14
6.74629e-14
6.50367e-14
5.99044e-14
5.8936e-14
7.9107e-14
7.91963e-14
8.18064e-14
5.92161e-14
2.78466e-14
1.80904e-14
3.76417e-14
5.1973e-14
4.9731e-14
4.19831e-14
3.98668e-14
4.7133e-14
4.13229e-14
3.62483e-14
3.86319e-14
3.93468e-14
3.55881e-14
3.57068e-14
3.76292e-14
3.36863e-14
3.60077e-14
3.96484e-14
6.07655e-14
6.66335e-14
7.29365e-14
6.85796e-14
6.40296e-14
6.05545e-14
3.95447e-14
4.09369e-14
5.02825e-14
7.03682e-14
7.30157e-14
7.02315e-14
4.37628e-14
4.3214e-14
4.26952e-14
4.28803e-14
4.65608e-14
5.56711e-14
5.66401e-14
5.25807e-14
4.46399e-14
5.00539e-14
5.35219e-14
5.08361e-14
5.6256e-14
6.38817e-14
7.23985e-14
6.82657e-14
5.83799e-14
4.79653e-14
4.44681e-14
4.07625e-14
3.41562e-14
3.44904e-14
3.51191e-14
4.71556e-14
4.48291e-14
4.09166e-14
3.90962e-14
4.54736e-14
5.54791e-14
4.57584e-14
4.41344e-14
1.04679e-14
1.6903e-14
1.80487e-14
3.98311e-14
6.1788e-14
8.32272e-14
9.06094e-14
8.00762e-14
7.82573e-14
9.41498e-14
1.02136e-13
9.81142e-14
9.64257e-14
9.89206e-14
8.50557e-14
7.27082e-14
7.10561e-14
6.5748e-14
5.25902e-14
4.69335e-14
5.37024e-14
6.22221e-14
5.20978e-14
4.8424e-14
5.28915e-14
5.20098e-14
5.78361e-14
5.0603e-14
4.86466e-14
4.64892e-14
4.38567e-14
5.00567e-14
5.44599e-14
4.91406e-14
2.88881e-14
3.21225e-14
3.4609e-14
4.19146e-14
3.92449e-14
3.66007e-14
4.33426e-14
6.47309e-14
7.62035e-14
6.6194e-14
5.13407e-14
3.42162e-14
2.07927e-14
4.22437e-14
5.91605e-14
4.42966e-14
3.7554e-14
3.67856e-14
4.07119e-14
3.13143e-14
2.10515e-14
2.06699e-14
2.4076e-14
2.46887e-14
2.49464e-14
3.09181e-14
3.89653e-14
3.21652e-14
3.9191e-14
5.44567e-14
5.65682e-14
6.11047e-14
6.3455e-14
6.56937e-14
6.67096e-14
4.13752e-14
2.47829e-14
5.19976e-14
7.9006e-14
9.46759e-14
9.07895e-14
6.5165e-14
3.88515e-14
3.83541e-14
3.77943e-14
4.30423e-14
4.68286e-14
4.75444e-14
4.73057e-14
4.64098e-14
4.67026e-14
4.35743e-14
3.76812e-14
4.06151e-14
5.87328e-14
6.90198e-14
6.03698e-14
5.82537e-14
4.40365e-14
4.70133e-14
4.46517e-14
3.47339e-14
3.30994e-14
3.56713e-14
3.98631e-14
4.24211e-14
4.2711e-14
3.89674e-14
3.77134e-14
4.0822e-14
4.26542e-14
1.41084e-14
2.29766e-14
1.76825e-14
3.49539e-14
6.2071e-14
7.86728e-14
8.74479e-14
7.91671e-14
8.80594e-14
9.99232e-14
9.89988e-14
9.53121e-14
9.98269e-14
1.01391e-13
8.38373e-14
7.22373e-14
6.93082e-14
6.49382e-14
5.38e-14
4.81405e-14
5.10332e-14
5.06694e-14
3.69352e-14
3.82225e-14
4.49904e-14
4.95463e-14
4.79822e-14
3.97075e-14
3.28924e-14
3.38603e-14
3.45364e-14
3.53001e-14
3.82292e-14
2.76814e-14
2.06266e-14
2.25144e-14
9.67242e-15
7.58692e-15
9.05598e-15
1.17883e-14
2.23472e-14
3.8026e-14
5.20506e-14
4.49907e-14
3.56588e-14
3.06771e-14
2.29726e-14
3.50287e-14
4.1883e-14
3.20091e-14
2.21096e-14
2.16307e-14
2.79253e-14
2.43126e-14
2.15465e-14
1.54402e-14
7.34615e-15
8.52534e-15
1.44502e-14
1.86335e-14
2.5142e-14
2.66401e-14
3.26948e-14
3.84299e-14
4.10497e-14
4.03686e-14
4.55861e-14
5.1127e-14
5.54888e-14
3.31653e-14
8.20955e-15
4.01236e-14
6.85414e-14
7.47423e-14
7.11932e-14
4.81322e-14
2.51485e-14
3.62769e-14
3.50526e-14
3.88981e-14
3.44296e-14
2.29983e-14
2.51613e-14
3.02915e-14
3.17607e-14
2.79185e-14
2.16258e-14
1.63896e-14
3.40229e-14
4.49064e-14
4.30081e-14
4.12601e-14
3.56816e-14
4.11063e-14
4.29327e-14
3.42639e-14
3.31995e-14
3.7936e-14
3.51209e-14
3.5762e-14
3.41963e-14
3.28628e-14
3.50464e-14
2.96722e-14
4.20434e-14
2.67734e-14
3.13278e-14
2.41801e-14
3.47655e-14
5.47733e-14
7.47568e-14
8.38944e-14
8.05731e-14
8.76661e-14
9.82342e-14
9.9559e-14
9.31997e-14
9.61327e-14
9.48577e-14
7.77832e-14
6.58824e-14
6.15589e-14
5.76996e-14
4.77792e-14
3.72426e-14
3.94251e-14
3.55666e-14
3.04905e-14
3.79669e-14
4.78522e-14
4.70719e-14
4.34963e-14
3.71612e-14
3.10784e-14
3.0978e-14
2.66619e-14
2.64102e-14
2.48487e-14
1.58143e-14
6.07352e-15
6.31437e-15
1.065e-14
1.0852e-14
1.33598e-14
7.88128e-15
1.49738e-14
2.71899e-14
3.42971e-14
3.3168e-14
2.82413e-14
2.44613e-14
1.74159e-14
2.9355e-14
3.55814e-14
2.99289e-14
1.56988e-14
1.64719e-14
2.37503e-14
2.45858e-14
2.73423e-14
2.57076e-14
1.78694e-14
1.16793e-14
1.36351e-15
9.04013e-15
1.02132e-14
1.29291e-14
2.01784e-14
2.57304e-14
2.43178e-14
2.98171e-14
3.68471e-14
4.45892e-14
5.12175e-14
2.87288e-14
2.0974e-14
3.35857e-14
5.53824e-14
6.2776e-14
5.88384e-14
3.64528e-14
2.13751e-14
1.9918e-14
1.58341e-14
1.87577e-14
1.75743e-14
7.52901e-15
1.42087e-14
1.97949e-14
2.30022e-14
2.19427e-14
1.76628e-14
1.51925e-15
2.31146e-14
3.27029e-14
3.33227e-14
2.83665e-14
2.76963e-14
2.94302e-14
2.8499e-14
2.44605e-14
2.5134e-14
3.1073e-14
3.34551e-14
3.06854e-14
3.35341e-14
2.65008e-14
2.78174e-14
2.38877e-14
2.64909e-14
1.73764e-14
2.3026e-14
2.20713e-14
3.69481e-14
5.30546e-14
6.93484e-14
7.11769e-14
7.77985e-14
9.19789e-14
1.07037e-13
1.08554e-13
1.00626e-13
9.75566e-14
9.08999e-14
7.71555e-14
6.9063e-14
6.40855e-14
6.28842e-14
5.27852e-14
3.96554e-14
3.9298e-14
3.58388e-14
2.88498e-14
3.67389e-14
4.13841e-14
4.43924e-14
4.25867e-14
3.95325e-14
4.1429e-14
3.82037e-14
3.84306e-14
3.30513e-14
2.40562e-14
1.06531e-14
1.21912e-14
1.07306e-14
1.37414e-14
4.11322e-15
8.94476e-15
6.70608e-15
1.1875e-14
2.24884e-14
3.41541e-14
3.4029e-14
3.01641e-14
3.03072e-14
2.50226e-14
1.96132e-14
2.58534e-14
1.82847e-14
5.89354e-15
1.49739e-14
2.25778e-14
1.56136e-14
1.66182e-14
1.28451e-14
7.85485e-15
6.18768e-15
9.92144e-15
1.8336e-14
2.16378e-14
2.42249e-14
2.36978e-14
2.24405e-14
1.87867e-14
1.81843e-14
2.55574e-14
3.19581e-14
3.02962e-14
1.5114e-14
1.35081e-14
3.56996e-14
4.24371e-14
4.58207e-14
4.7029e-14
3.06821e-14
2.35986e-14
1.1212e-14
1.67888e-14
2.0343e-14
2.54774e-14
2.2164e-14
1.93331e-14
2.91212e-14
3.17713e-14
3.2643e-14
2.71311e-14
1.47157e-14
2.09184e-14
3.27386e-14
3.68383e-14
3.08032e-14
3.20016e-14
3.06912e-14
3.16379e-14
3.08714e-14
3.13349e-14
3.95677e-14
3.94454e-14
3.54352e-14
4.63932e-14
4.06001e-14
3.96912e-14
3.16512e-14
3.25077e-14
1.84222e-14
2.59181e-14
2.74318e-14
4.51556e-14
5.9569e-14
6.17724e-14
6.77686e-14
8.80828e-14
1.02431e-13
1.18153e-13
1.14583e-13
1.00573e-13
1.00342e-13
1.01736e-13
8.98826e-14
8.45669e-14
7.71029e-14
7.47277e-14
5.82735e-14
5.45552e-14
5.15509e-14
5.31716e-14
4.79702e-14
5.63985e-14
5.57433e-14
5.49192e-14
5.08979e-14
5.22569e-14
4.9405e-14
4.61102e-14
5.64699e-14
4.86539e-14
3.30387e-14
2.81238e-14
2.35861e-14
1.51295e-14
2.88593e-14
2.5903e-14
2.41581e-14
2.12315e-14
2.74242e-14
3.50816e-14
3.58939e-14
4.29938e-14
3.96743e-14
3.38647e-14
3.71795e-14
3.13594e-14
4.00305e-14
3.70498e-14
3.41213e-14
3.4458e-14
4.18436e-14
3.85169e-14
2.9683e-14
2.91903e-14
2.99837e-14
3.22682e-14
2.98675e-14
3.31359e-14
3.35047e-14
3.68263e-14
3.67566e-14
3.09486e-14
3.25099e-14
3.39093e-14
3.34266e-14
3.43662e-14
3.25032e-14
2.84538e-14
3.41093e-14
4.40762e-14
4.48687e-14
4.74576e-14
4.36035e-14
4.0466e-14
3.47465e-14
2.99665e-14
3.55057e-14
3.99697e-14
4.29998e-14
4.37228e-14
4.09598e-14
4.09605e-14
3.89465e-14
3.91169e-14
3.68806e-14
3.68165e-14
3.54161e-14
3.65287e-14
3.90956e-14
3.62401e-14
3.84898e-14
3.80585e-14
3.73117e-14
3.5661e-14
3.7227e-14
4.16101e-14
3.80547e-14
4.15576e-14
4.86304e-14
5.21544e-14
5.60419e-14
5.13727e-14
4.58314e-14
4.05111e-14
3.91008e-14
4.41023e-14
5.64751e-14
5.52645e-14
6.17223e-14
8.44312e-14
9.96565e-14
1.11341e-13
1.16561e-13
1.09627e-13
1.08161e-13
1.10274e-13
9.89039e-14
8.55898e-14
7.80843e-14
6.58312e-14
6.02691e-14
5.3459e-14
5.88048e-14
5.907e-14
5.8627e-14
6.00546e-14
6.49475e-14
6.21596e-14
5.67334e-14
5.36029e-14
5.20112e-14
4.85013e-14
5.25968e-14
5.58694e-14
4.54645e-14
3.27868e-14
3.227e-14
2.57685e-14
1.65453e-14
2.48014e-14
3.33e-14
3.42127e-14
2.94578e-14
2.86263e-14
3.56763e-14
3.47707e-14
4.31981e-14
4.22304e-14
3.75922e-14
3.62219e-14
3.87713e-14
4.26071e-14
4.80065e-14
4.57306e-14
4.60396e-14
4.18302e-14
4.69266e-14
4.54525e-14
4.17293e-14
3.5974e-14
3.69912e-14
3.4709e-14
2.28838e-14
2.78249e-14
3.0678e-14
3.30441e-14
3.61993e-14
3.01927e-14
3.91659e-14
3.53098e-14
3.4357e-14
2.15171e-14
2.8582e-14
3.86984e-14
3.73605e-14
3.50065e-14
3.928e-14
3.80797e-14
4.2155e-14
3.75754e-14
4.08598e-14
4.11087e-14
4.1175e-14
3.08994e-14
3.61268e-14
3.98538e-14
3.97498e-14
3.09695e-14
3.19188e-14
3.94969e-14
3.71146e-14
2.74852e-14
3.18426e-14
3.2686e-14
3.16929e-14
3.45355e-14
3.39835e-14
3.61101e-14
3.39803e-14
3.49688e-14
3.26721e-14
2.85263e-14
3.14964e-14
3.1645e-14
4.27655e-14
5.15117e-14
5.78143e-14
3.75668e-14
4.25236e-14
4.62325e-14
4.82439e-14
5.75296e-14
6.88211e-14
9.05968e-14
1.00259e-13
1.01892e-13
1.03786e-13
1.06333e-13
1.03315e-13
9.88402e-14
8.65089e-14
7.82537e-14
6.3247e-14
5.13662e-14
4.56947e-14
4.4307e-14
4.29912e-14
4.77716e-14
4.71353e-14
4.99853e-14
4.98292e-14
4.74982e-14
4.57816e-14
4.78741e-14
4.70223e-14
4.53172e-14
4.34695e-14
4.28363e-14
3.3094e-14
2.42816e-14
2.32765e-14
1.86601e-14
1.74201e-14
1.69247e-14
1.9984e-14
2.42723e-14
2.56447e-14
2.92325e-14
3.3228e-14
3.728e-14
4.69455e-14
5.4211e-14
4.73358e-14
4.13091e-14
3.20848e-14
3.3126e-14
3.91826e-14
3.96923e-14
3.71818e-14
3.68052e-14
3.6263e-14
3.87424e-14
3.80065e-14
3.44091e-14
3.01482e-14
2.71015e-14
1.88439e-14
2.41663e-14
2.74597e-14
2.31491e-14
2.8063e-14
3.00128e-14
2.62872e-14
2.47379e-14
2.71294e-14
2.157e-14
2.51773e-14
3.01051e-14
2.97274e-14
3.00184e-14
3.12897e-14
3.19635e-14
3.32122e-14
3.13136e-14
3.16495e-14
2.83238e-14
2.71786e-14
2.50763e-14
2.26317e-14
2.29963e-14
3.02882e-14
2.90614e-14
2.91506e-14
3.12869e-14
2.64095e-14
2.2031e-14
2.68715e-14
2.40594e-14
2.76721e-14
1.94295e-14
2.03661e-14
2.63649e-14
3.03319e-14
3.12211e-14
3.20309e-14
3.29002e-14
3.39569e-14
3.36537e-14
3.15808e-14
4.10518e-14
4.66674e-14
3.73705e-14
4.18968e-14
4.10449e-14
4.51244e-14
5.64836e-14
7.37782e-14
9.10968e-14
9.38905e-14
9.32141e-14
9.83324e-14
1.04352e-13
1.01167e-13
9.21706e-14
8.2263e-14
7.1614e-14
5.13819e-14
5.04684e-14
4.53851e-14
4.01821e-14
4.52382e-14
5.1303e-14
4.26988e-14
3.94284e-14
4.13058e-14
3.60441e-14
4.02478e-14
4.63424e-14
4.01069e-14
3.51039e-14
4.09114e-14
3.87852e-14
2.99523e-14
2.20767e-14
1.56232e-14
1.63345e-14
1.60968e-14
1.99688e-14
1.93736e-14
2.0261e-14
2.15075e-14
3.38846e-14
3.38138e-14
3.44537e-14
4.72047e-14
5.8977e-14
4.74751e-14
4.03969e-14
3.55125e-14
3.16314e-14
3.45358e-14
3.53647e-14
3.91136e-14
4.09826e-14
3.6868e-14
3.88144e-14
3.88332e-14
4.37376e-14
4.00196e-14
2.99791e-14
1.89198e-14
2.25392e-14
2.5737e-14
2.62284e-14
2.27921e-14
2.71872e-14
2.70301e-14
2.16457e-14
2.56827e-14
3.29166e-14
3.06455e-14
2.87164e-14
3.0468e-14
3.23797e-14
2.7815e-14
3.01601e-14
3.07682e-14
3.39893e-14
2.56873e-14
2.23456e-14
1.68863e-14
2.0802e-14
1.6599e-14
1.85258e-14
2.18025e-14
2.25189e-14
2.26429e-14
2.51054e-14
2.10656e-14
2.68393e-14
2.31358e-14
2.25209e-14
2.10338e-14
2.00836e-14
1.65912e-14
1.35138e-14
2.44248e-14
3.47462e-14
3.51272e-14
3.58292e-14
3.38222e-14
3.77379e-14
4.48976e-14
4.68498e-14
5.25883e-14
6.28177e-14
8.47173e-14
9.49618e-14
9.33005e-14
9.37111e-14
1.00754e-13
1.01537e-13
9.43207e-14
8.89128e-14
8.51944e-14
7.01972e-14
5.45183e-14
5.58995e-14
5.28685e-14
5.32801e-14
5.12287e-14
5.25564e-14
4.67376e-14
4.41473e-14
3.69195e-14
3.5637e-14
4.38245e-14
4.25335e-14
3.01947e-14
3.23585e-14
4.27622e-14
4.16312e-14
2.92542e-14
1.951e-14
1.8456e-14
1.95625e-14
2.22518e-14
2.44919e-14
2.67112e-14
3.12858e-14
3.0954e-14
3.53178e-14
3.24916e-14
3.42816e-14
4.08167e-14
5.5038e-14
4.62607e-14
4.17783e-14
4.54818e-14
4.45905e-14
4.70398e-14
4.71159e-14
4.67332e-14
4.60912e-14
4.11502e-14
4.46906e-14
4.90127e-14
5.2754e-14
5.26637e-14
3.66088e-14
2.34915e-14
3.33757e-14
3.4771e-14
2.97113e-14
1.96103e-14
1.63282e-14
2.83555e-14
3.05119e-14
3.62775e-14
3.97803e-14
3.67172e-14
2.27143e-14
2.66047e-14
3.23687e-14
3.4242e-14
3.32096e-14
3.73221e-14
3.35969e-14
2.57563e-14
2.69144e-14
2.3884e-14
2.40971e-14
2.07996e-14
2.84274e-14
2.61164e-14
2.90231e-14
3.77175e-14
4.37098e-14
4.36372e-14
3.33705e-14
1.96704e-14
1.7075e-14
1.38353e-14
1.95249e-14
2.15067e-14
1.40971e-14
2.03541e-14
4.33385e-14
4.60221e-14
4.43812e-14
4.3254e-14
4.05009e-14
5.68287e-14
6.10968e-14
5.49828e-14
7.02308e-14
9.69507e-14
1.00847e-13
9.54246e-14
9.98643e-14
1.0333e-13
9.21917e-14
8.37904e-14
9.18165e-14
8.97242e-14
7.14695e-14
5.47584e-14
5.46123e-14
5.27305e-14
4.50698e-14
4.21644e-14
4.3939e-14
3.94997e-14
3.14671e-14
2.59951e-14
3.34636e-14
3.99002e-14
3.27061e-14
1.98383e-14
2.86549e-14
3.91967e-14
3.32682e-14
2.8515e-14
2.00911e-14
2.07711e-14
1.43122e-14
1.57313e-14
2.09765e-14
2.51237e-14
3.59178e-14
2.49e-14
1.56374e-14
1.42088e-14
1.59017e-14
1.60827e-14
3.23723e-14
4.21656e-14
4.70849e-14
4.7382e-14
4.93678e-14
5.26009e-14
5.94504e-14
5.96002e-14
4.84658e-14
3.10173e-14
3.42061e-14
4.04185e-14
4.51951e-14
4.22131e-14
2.96514e-14
7.05072e-15
3.68405e-14
3.80477e-14
2.39105e-14
9.00034e-15
9.56149e-15
2.16885e-14
3.31238e-14
4.24313e-14
4.04163e-14
3.39471e-14
2.38002e-14
3.4184e-14
3.58152e-14
2.67085e-14
2.5969e-14
2.88529e-14
2.24554e-14
1.94709e-14
1.26888e-14
1.38111e-14
1.73735e-14
1.81766e-14
2.98549e-14
2.49313e-14
3.07246e-14
3.73515e-14
5.46119e-14
5.93685e-14
3.34529e-14
1.03099e-14
7.52646e-15
1.85952e-14
1.62905e-14
1.75383e-14
1.96418e-14
1.02417e-14
3.48314e-14
5.15235e-14
4.30442e-14
3.60799e-14
5.33431e-14
6.03007e-14
6.50199e-14
6.39669e-14
8.13735e-14
1.04411e-13
1.14454e-13
1.04023e-13
9.39375e-14
9.10879e-14
8.36465e-14
8.12661e-14
8.41039e-14
8.05135e-14
6.45309e-14
5.01416e-14
5.18984e-14
5.40801e-14
4.59649e-14
3.00584e-14
2.71036e-14
3.11357e-14
2.5193e-14
2.10529e-14
3.05654e-14
3.90076e-14
3.67232e-14
2.61031e-14
2.92299e-14
2.47394e-14
2.17711e-14
2.34071e-14
2.33924e-14
2.10557e-14
2.03911e-14
1.94863e-14
1.83332e-14
2.28312e-14
2.54943e-14
2.88394e-14
2.3245e-14
1.42212e-14
1.73118e-14
1.29014e-14
3.34339e-14
5.06213e-14
6.3265e-14
6.61974e-14
6.93562e-14
7.52461e-14
8.3763e-14
7.76037e-14
7.65554e-14
6.05554e-14
5.5786e-14
5.2684e-14
5.1235e-14
3.60501e-14
1.87889e-14
8.36266e-15
1.0265e-14
2.00742e-14
6.42925e-15
6.65381e-15
8.12658e-15
2.2447e-14
3.77084e-14
5.20592e-14
6.7349e-14
5.35662e-14
3.82969e-14
3.75009e-14
2.76933e-14
1.42679e-14
2.1731e-14
2.45705e-14
1.71624e-14
1.20612e-14
1.21297e-14
1.00236e-14
2.44346e-14
2.03832e-14
2.30948e-14
2.64239e-14
2.4514e-14
3.24353e-14
4.04459e-14
4.6068e-14
3.89025e-14
2.04456e-14
1.0808e-14
5.9083e-15
1.34318e-14
5.33902e-14
5.44243e-14
5.58905e-14
6.48562e-14
8.8185e-14
1.12598e-13
1.14094e-13
1.02755e-13
9.84536e-14
8.567e-14
8.01838e-14
8.48702e-14
8.34045e-14
7.08897e-14
6.23378e-14
5.44271e-14
5.16858e-14
4.70905e-14
4.12357e-14
3.45537e-14
3.08764e-14
3.57577e-14
2.95629e-14
2.70601e-14
3.49417e-14
3.73518e-14
4.12392e-14
3.81539e-14
3.15339e-14
2.15591e-14
1.67076e-14
2.17548e-14
2.54568e-14
2.61969e-14
2.58441e-14
1.80757e-14
1.87407e-14
2.36197e-14
2.7178e-14
2.33314e-14
2.28783e-14
2.76723e-14
2.73565e-14
1.98942e-14
2.77897e-14
5.61104e-14
8.18723e-14
8.59523e-14
8.49149e-14
8.10291e-14
8.27604e-14
8.51171e-14
8.032e-14
7.71995e-14
7.0918e-14
6.12311e-14
4.97934e-14
3.30686e-14
2.50513e-14
2.2178e-14
2.74169e-14
3.01206e-14
3.31688e-14
2.6213e-14
2.60744e-14
2.37641e-14
3.52224e-14
5.97817e-14
7.67907e-14
6.95117e-14
4.86852e-14
3.24573e-14
2.09486e-14
1.98564e-14
2.33576e-14
1.79501e-14
1.42062e-14
6.45898e-15
1.72913e-14
2.1493e-14
1.76749e-14
1.95289e-14
2.68619e-14
2.66608e-14
2.31207e-14
3.55737e-14
4.49845e-14
4.7032e-14
4.22997e-14
3.21369e-14
2.21102e-14
1.47631e-14
1.74873e-14
4.84767e-14
5.34984e-14
5.27937e-14
7.01824e-14
9.53348e-14
1.1193e-13
1.12333e-13
9.68547e-14
8.98065e-14
8.4562e-14
8.26816e-14
8.55529e-14
8.12298e-14
7.62136e-14
7.52261e-14
5.47968e-14
4.37949e-14
4.62784e-14
4.43571e-14
4.43184e-14
3.79713e-14
3.33839e-14
2.60099e-14
2.18886e-14
2.62899e-14
3.47247e-14
3.7738e-14
3.25241e-14
2.40586e-14
1.41481e-14
1.48914e-14
1.42528e-14
1.22491e-14
8.73948e-15
1.01898e-14
8.82847e-15
1.35305e-14
1.4802e-14
2.05784e-14
2.29359e-14
2.77688e-14
3.25746e-14
2.84322e-14
2.75442e-14
3.07445e-14
5.86659e-14
8.27875e-14
9.78941e-14
9.51636e-14
9.51403e-14
9.55842e-14
9.37565e-14
8.67149e-14
9.00399e-14
8.7548e-14
7.63195e-14
5.82175e-14
4.20169e-14
3.71661e-14
3.4531e-14
4.56189e-14
5.70704e-14
6.28245e-14
4.98938e-14
3.60725e-14
2.89597e-14
4.68379e-14
6.42261e-14
6.85605e-14
6.9438e-14
5.41218e-14
2.1595e-14
1.7968e-14
2.5354e-14
1.99541e-14
1.06044e-14
2.97821e-15
7.26071e-15
9.57098e-15
1.69774e-14
2.74083e-14
1.85298e-14
1.95061e-14
1.91706e-14
1.60622e-14
2.45433e-14
3.47192e-14
3.93645e-14
4.08634e-14
3.82805e-14
4.02415e-14
3.77105e-14
3.56992e-14
3.88055e-14
3.50341e-14
4.44288e-14
7.04723e-14
9.3055e-14
1.13432e-13
1.12597e-13
9.45206e-14
8.17784e-14
7.62347e-14
7.84811e-14
7.71342e-14
7.85638e-14
8.15643e-14
7.29717e-14
6.15298e-14
5.11989e-14
4.30726e-14
3.69789e-14
3.80169e-14
3.39755e-14
3.71731e-14
3.24484e-14
3.05906e-14
3.297e-14
2.74931e-14
3.18546e-14
3.60997e-14
3.12049e-14
2.30591e-14
1.85607e-14
1.79707e-14
1.97454e-14
1.61938e-14
1.89552e-14
1.52642e-14
2.1283e-14
2.94746e-14
3.77404e-14
3.93932e-14
3.7516e-14
4.4324e-14
3.79215e-14
3.82855e-14
2.1853e-14
4.28093e-14
6.23093e-14
6.24025e-14
5.80975e-14
5.80413e-14
5.87323e-14
5.79823e-14
5.37089e-14
4.99059e-14
5.15475e-14
4.75673e-14
4.03121e-14
3.77849e-14
3.38617e-14
3.25751e-14
3.75598e-14
4.20008e-14
4.25135e-14
3.4872e-14
2.76228e-14
1.71605e-14
2.36589e-14
2.88069e-14
3.2615e-14
3.09644e-14
2.35286e-14
1.83601e-14
2.4054e-14
3.91001e-14
3.74335e-14
3.04688e-14
1.77713e-14
1.08887e-14
1.0048e-14
9.88208e-15
1.42034e-14
1.20264e-14
6.35769e-15
1.30447e-14
1.59829e-14
2.62158e-14
3.64323e-14
4.68466e-14
4.69613e-14
5.08253e-14
5.41573e-14
5.70381e-14
4.5397e-14
4.33207e-14
4.64285e-14
6.28953e-14
8.84026e-14
1.11866e-13
1.18364e-13
1.00414e-13
7.71167e-14
7.03096e-14
7.83541e-14
8.09566e-14
7.69271e-14
7.89356e-14
7.44935e-14
5.74619e-14
4.8782e-14
4.27627e-14
3.36443e-14
2.29015e-14
2.32799e-14
3.16812e-14
3.79493e-14
3.04674e-14
2.78411e-14
3.10736e-14
2.35402e-14
2.14707e-14
2.32291e-14
2.70361e-14
1.8061e-14
1.59984e-14
1.80002e-14
2.13873e-14
2.33979e-14
2.25183e-14
2.67738e-14
2.71164e-14
3.95054e-14
4.77984e-14
4.81745e-14
4.91211e-14
4.82242e-14
4.24895e-14
2.80672e-14
3.30328e-14
3.14047e-14
2.39054e-14
1.92838e-14
2.69089e-14
2.41955e-14
1.77275e-14
1.65382e-14
2.56052e-14
2.31497e-14
1.72236e-14
2.22483e-14
2.82682e-14
2.98764e-14
2.8293e-14
3.5216e-14
3.65882e-14
3.47186e-14
3.25858e-14
2.72205e-14
1.86247e-14
8.60793e-15
1.39502e-14
7.00546e-15
1.12991e-14
1.3477e-14
2.01468e-14
2.11129e-14
2.64706e-14
3.3285e-14
3.11578e-14
1.69013e-14
1.78463e-14
1.8849e-14
2.06845e-14
1.84436e-14
1.78214e-14
2.42676e-14
2.25966e-14
2.41493e-14
3.07303e-14
3.87963e-14
3.93376e-14
3.95893e-14
4.22493e-14
4.12994e-14
3.83071e-14
5.35649e-14
4.77446e-14
4.78369e-14
6.49325e-14
9.29812e-14
1.11241e-13
1.14115e-13
1.06427e-13
9.31986e-14
8.84053e-14
8.33141e-14
7.63282e-14
6.95024e-14
6.98384e-14
6.23392e-14
5.03074e-14
4.80567e-14
4.57702e-14
2.80908e-14
2.47772e-14
2.86428e-14
3.02938e-14
3.8003e-14
4.56269e-14
3.6931e-14
2.71472e-14
3.05579e-14
2.93029e-14
3.04543e-14
3.25337e-14
3.18797e-14
3.08716e-14
3.29056e-14
3.59952e-14
3.47572e-14
3.30807e-14
3.66467e-14
3.43734e-14
4.08591e-14
4.58725e-14
5.33902e-14
5.09883e-14
5.09132e-14
3.91762e-14
3.39621e-14
3.77213e-14
3.44983e-14
3.55017e-14
3.03134e-14
3.46879e-14
3.54529e-14
4.18563e-14
4.2593e-14
3.84224e-14
2.7283e-14
3.18633e-14
4.03075e-14
4.12931e-14
3.4653e-14
3.2646e-14
3.65591e-14
4.02702e-14
4.30423e-14
4.0732e-14
3.95442e-14
3.55716e-14
2.76498e-14
3.72101e-14
3.48416e-14
3.37818e-14
3.25829e-14
2.54787e-14
2.66397e-14
2.07936e-14
3.08286e-14
3.75283e-14
3.09225e-14
3.03153e-14
3.44606e-14
3.41952e-14
3.69557e-14
4.05793e-14
3.63789e-14
2.92207e-14
3.18126e-14
3.44376e-14
4.18634e-14
3.93647e-14
4.30092e-14
3.94636e-14
3.75289e-14
3.84077e-14
5.08969e-14
5.07661e-14
7.26466e-14
9.42207e-14
1.17851e-13
1.24252e-13
1.16532e-13
1.2002e-13
1.04934e-13
8.57029e-14
7.43513e-14
6.38519e-14
5.56609e-14
4.97129e-14
4.26522e-14
3.74056e-14
5.13986e-14
3.80252e-14
2.95316e-14
3.57344e-14
3.47064e-14
3.47938e-14
3.74676e-14
3.66899e-14
1.90833e-14
7.30365e-15
6.47696e-15
6.30291e-15
1.38731e-14
1.8154e-14
2.3256e-14
1.99035e-14
1.47333e-14
1.92605e-14
1.91259e-14
3.25413e-14
2.90976e-14
4.01303e-14
4.87066e-14
4.87325e-14
3.7417e-14
2.78225e-14
2.74231e-14
2.66143e-14
2.50193e-14
1.59785e-14
1.87394e-14
1.91197e-14
2.64107e-14
3.52266e-14
4.16458e-14
5.375e-14
3.82238e-14
2.95515e-14
3.07397e-14
2.40031e-14
2.38982e-14
2.27764e-14
1.90587e-14
1.5899e-14
1.3338e-14
1.92781e-14
2.79511e-14
3.57819e-14
2.02635e-14
1.70874e-14
3.55585e-14
4.4239e-14
3.59452e-14
2.55571e-14
1.27723e-14
1.84813e-14
8.30696e-15
6.17412e-15
1.42426e-14
1.19536e-14
4.93138e-15
9.73507e-15
2.0625e-14
3.21449e-14
2.14458e-14
1.89288e-14
3.00571e-14
3.1876e-14
2.57058e-14
2.24477e-14
1.66952e-14
2.3418e-14
2.53415e-14
1.98808e-14
4.06285e-14
5.16171e-14
6.81112e-14
9.03044e-14
1.12206e-13
1.28199e-13
1.29573e-13
1.30622e-13
1.30523e-13
1.03527e-13
8.17337e-14
7.15793e-14
6.42077e-14
5.75483e-14
4.85232e-14
4.54166e-14
4.72881e-14
4.74221e-14
3.67485e-14
3.48144e-14
3.27313e-14
3.78095e-14
4.2111e-14
5.42303e-14
3.96484e-14
1.63479e-14
2.36702e-14
2.00628e-14
1.90261e-14
1.98233e-14
1.7635e-14
2.14706e-14
2.02571e-14
1.60006e-14
3.31437e-15
2.36196e-14
2.2282e-14
2.05161e-14
3.49148e-14
4.56935e-14
3.33509e-14
2.25471e-14
1.92494e-14
1.53407e-14
1.58246e-14
2.06483e-14
3.23617e-14
3.54281e-14
3.61736e-14
3.99622e-14
4.99732e-14
4.36911e-14
4.23033e-14
3.4064e-14
1.92639e-14
2.02782e-14
1.68544e-14
1.57987e-14
1.69845e-14
1.65799e-14
2.29216e-14
2.78782e-14
2.2924e-14
2.4442e-14
3.20761e-14
3.65189e-14
3.64177e-14
4.35191e-14
4.47713e-14
4.5145e-14
3.48557e-14
3.10337e-14
3.45247e-14
3.11845e-14
2.79958e-14
2.86821e-14
2.49849e-14
3.54436e-14
3.2598e-14
3.23017e-14
4.06215e-14
2.89881e-14
1.74556e-14
9.78249e-15
1.13828e-14
1.05743e-14
1.75715e-14
2.1496e-14
2.36613e-14
2.9367e-14
2.62153e-14
6.05732e-14
7.48652e-14
9.01644e-14
1.08536e-13
1.29412e-13
1.34464e-13
1.3015e-13
1.20994e-13
1.09264e-13
8.84468e-14
8.06715e-14
7.29359e-14
6.29592e-14
4.90658e-14
4.61652e-14
5.03627e-14
5.26498e-14
5.22689e-14
3.98047e-14
2.85267e-14
2.68563e-14
2.74518e-14
3.52505e-14
4.11967e-14
3.20531e-14
1.849e-14
2.22675e-14
1.34182e-14
1.20401e-14
8.95892e-15
1.65125e-14
1.92417e-14
2.0155e-14
1.43772e-14
1.8451e-14
1.32163e-14
1.35846e-14
1.92202e-14
1.66022e-14
1.89297e-14
1.70631e-14
1.45999e-14
1.27476e-14
1.85288e-14
2.82255e-14
3.36038e-14
4.41032e-14
4.32669e-14
3.51638e-14
3.61522e-14
4.39487e-14
4.3119e-14
4.97241e-14
3.65634e-14
2.51895e-14
2.83433e-14
3.10114e-14
2.90028e-14
3.57214e-14
3.46164e-14
3.30711e-14
2.6122e-14
2.10108e-14
2.65862e-14
3.8839e-14
2.83678e-14
2.98442e-14
3.81973e-14
4.33227e-14
3.75048e-14
3.14809e-14
2.92937e-14
3.97967e-14
3.15746e-14
3.46651e-14
3.70691e-14
3.42802e-14
2.51388e-14
1.74382e-14
1.82537e-14
3.45818e-14
2.13723e-14
1.83531e-14
2.41732e-14
2.59987e-14
1.67201e-14
2.46135e-14
1.73384e-14
1.98743e-14
2.55803e-14
2.83232e-14
6.50647e-14
7.83951e-14
8.84833e-14
1.0461e-13
1.19871e-13
1.23807e-13
1.19738e-13
1.07713e-13
9.22966e-14
8.64785e-14
7.91865e-14
6.39137e-14
5.74973e-14
5.87333e-14
4.69376e-14
4.16063e-14
4.3585e-14
4.42415e-14
3.82595e-14
1.78744e-14
2.26707e-14
2.96079e-14
2.61998e-14
2.00015e-14
1.62103e-14
2.38409e-14
1.81411e-14
1.35609e-14
8.16741e-15
4.91728e-15
1.22262e-14
2.23877e-14
2.0984e-14
2.0837e-14
1.15299e-14
2.95814e-15
3.23162e-15
9.27623e-15
1.45759e-14
2.23894e-14
2.76253e-14
2.25305e-14
1.85093e-14
2.58262e-14
2.4594e-14
3.02214e-14
3.50325e-14
3.56108e-14
3.28781e-14
3.18586e-14
3.33364e-14
3.27367e-14
3.2432e-14
3.40233e-14
2.77014e-14
2.95913e-14
3.5593e-14
3.26947e-14
3.6192e-14
2.92906e-14
3.14441e-14
2.96443e-14
3.36468e-14
3.98458e-14
3.53427e-14
3.00242e-14
3.5498e-14
4.42397e-14
3.73641e-14
3.12352e-14
3.07553e-14
3.66619e-14
3.23629e-14
2.93942e-14
3.56043e-14
3.62468e-14
3.31547e-14
2.75455e-14
1.87103e-14
1.27536e-14
2.26292e-14
2.22091e-14
1.58479e-14
2.08872e-14
1.87131e-14
1.68056e-14
2.00424e-14
2.07496e-14
2.30956e-14
2.4058e-14
2.39119e-14
5.70244e-14
7.56814e-14
7.57484e-14
9.54297e-14
1.21488e-13
1.26956e-13
1.17392e-13
1.05808e-13
9.26825e-14
8.44852e-14
7.32999e-14
6.38251e-14
6.11043e-14
6.41743e-14
5.52727e-14
3.77036e-14
3.7046e-14
4.45041e-14
4.27102e-14
3.40693e-14
3.36931e-14
2.10701e-14
1.70219e-14
1.78746e-14
1.12052e-14
1.46208e-14
1.00803e-14
8.3745e-15
1.35018e-14
1.34999e-14
8.96324e-15
1.36259e-14
1.67557e-14
2.65387e-14
1.9445e-14
8.16996e-15
5.79235e-15
7.95487e-15
2.01905e-14
1.27428e-14
1.12282e-14
1.62092e-14
1.74649e-14
1.78927e-14
1.42316e-14
1.8462e-14
2.04339e-14
2.23657e-14
2.65376e-14
2.63407e-14
2.4088e-14
2.44281e-14
2.93274e-14
3.18203e-14
3.58161e-14
3.86634e-14
3.8443e-14
3.97507e-14
3.48952e-14
2.93286e-14
2.89301e-14
2.97217e-14
3.79565e-14
4.45414e-14
4.61022e-14
4.28685e-14
4.5471e-14
4.678e-14
3.95473e-14
3.97285e-14
4.32188e-14
4.17559e-14
3.60259e-14
3.68382e-14
3.50966e-14
3.48629e-14
3.33269e-14
3.94525e-14
3.52612e-14
2.66002e-14
3.2352e-14
3.77291e-14
2.89472e-14
2.40336e-14
2.37456e-14
3.04046e-14
2.71931e-14
2.72348e-14
2.58326e-14
3.31058e-14
2.85417e-14
7.11009e-14
6.51723e-14
6.95741e-14
8.83945e-14
1.06716e-13
1.05336e-13
1.08749e-13
1.15502e-13
1.03332e-13
8.35337e-14
6.76622e-14
7.0163e-14
7.50783e-14
6.79806e-14
5.58576e-14
4.35767e-14
4.09018e-14
4.29758e-14
4.08065e-14
4.15824e-14
3.20934e-14
1.8714e-14
1.35021e-14
1.81299e-14
1.63169e-14
1.32096e-14
1.19874e-14
1.84772e-14
2.22425e-14
1.4045e-14
2.13177e-14
2.03158e-14
2.01522e-14
2.27161e-14
1.26244e-14
7.88662e-15
9.37979e-15
2.65442e-15
1.14231e-14
1.59217e-14
1.74252e-14
1.63567e-14
1.34693e-14
8.19786e-15
4.55138e-15
4.39438e-15
6.31953e-15
9.5078e-15
1.72761e-14
1.69545e-14
1.38275e-14
2.02735e-14
2.27519e-14
2.71451e-14
3.12795e-14
2.70045e-14
2.73395e-14
3.14072e-14
3.23375e-14
2.91165e-14
2.75088e-14
3.03877e-14
3.36518e-14
3.87113e-14
4.35851e-14
4.78377e-14
5.5169e-14
5.16435e-14
4.90972e-14
5.35516e-14
5.09433e-14
4.9686e-14
4.02729e-14
3.27852e-14
2.69883e-14
2.80127e-14
2.27528e-14
3.00094e-14
3.83569e-14
3.74312e-14
4.15942e-14
4.8766e-14
4.54999e-14
4.13562e-14
3.63834e-14
3.69015e-14
3.55028e-14
2.75084e-14