/*--------------------------------*- C++ -*----------------------------------*\
| =========                 |                                                 |
| \\      /  F ield         | OpenFOAM: The Open Source CFD Toolbox           |
|  \\    /   O peration     | Version:  2406                                  |
|   \\  /    A nd           | Website:  www.openfoam.com                      |
|    \\/     M anipulation  |                                                 |
\*---------------------------------------------------------------------------*/
FoamFile
{
    version     2.0;
    format      ascii;
    arch        "LSB;label=32;scalar=64";
    class       volVectorField;
    location    "0.055";
    object      U;
}
// * * * * * * * * * * * * * * * * * * * * * * * * * * * * * * * * * * * * * //

dimensions      [0 1 -1 0 0 0 0];

internalField   nonuniform List<vector> 
13818
(
(1.51597e-12 -2.43541e-12 -5.92131e-12)
(1.35185e-12 -1.51715e-12 -8.45047e-12)
(2.49644e-13 1.34776e-12 2.62823e-12)
(-6.03982e-12 1.04528e-12 1.47175e-11)
(-1.2117e-11 -4.13083e-13 2.20276e-11)
(-1.30183e-11 -9.36823e-14 2.607e-11)
(-1.37049e-11 8.62794e-13 2.29843e-11)
(-1.59622e-11 3.8708e-12 1.63351e-11)
(-2.16697e-11 2.17941e-12 1.16328e-11)
(-2.5274e-11 6.11122e-13 7.15987e-12)
(-2.81235e-11 3.80102e-12 3.08736e-12)
(-3.02086e-11 7.98546e-12 -1.06083e-12)
(-2.99243e-11 9.56116e-12 1.12648e-12)
(-2.60477e-11 1.29349e-11 8.17857e-12)
(-2.21511e-11 1.53723e-11 7.28635e-12)
(-1.87366e-11 1.61926e-11 8.61513e-12)
(-1.62678e-11 1.33899e-11 1.14244e-11)
(-1.78982e-11 1.26544e-11 1.26423e-11)
(-1.93357e-11 1.25004e-11 1.13223e-11)
(-1.44757e-11 8.87062e-12 8.2973e-12)
(-1.45941e-11 8.77336e-12 1.12146e-11)
(-1.49175e-11 9.21702e-12 6.81551e-12)
(-1.51738e-11 9.59399e-12 5.59009e-12)
(-1.52209e-11 9.49606e-12 -6.87605e-13)
(-1.03282e-11 8.04733e-12 -4.57556e-12)
(-9.12565e-12 8.65069e-12 -2.58116e-12)
(-8.17529e-12 8.31634e-12 -7.74294e-12)
(-7.8761e-12 9.58685e-12 -1.35949e-11)
(-4.62795e-12 7.08392e-12 -1.73617e-11)
(-9.12316e-13 6.96087e-12 -2.08826e-11)
(-2.39045e-12 6.39368e-12 -1.66579e-11)
(-6.02766e-12 6.61586e-12 -1.72476e-11)
(-2.67139e-12 5.78046e-12 -1.72506e-11)
(-1.34212e-12 5.49495e-12 -1.33485e-11)
(-2.44638e-12 7.08612e-12 -4.64617e-12)
(4.6307e-13 3.8143e-12 1.15997e-11)
(-1.77577e-12 5.92855e-12 2.43643e-11)
(-4.2618e-12 5.24175e-12 2.51554e-11)
(-8.72984e-13 6.72313e-12 2.53475e-11)
(-1.49005e-12 8.7297e-12 2.73577e-11)
(4.64512e-13 8.38434e-12 2.32681e-11)
(3.0491e-12 6.89664e-12 2.43713e-11)
(3.3567e-12 5.4593e-12 1.95995e-11)
(3.26803e-12 6.98846e-12 1.26749e-11)
(1.9897e-12 1.7737e-12 7.75349e-12)
(3.65994e-12 5.40751e-12 3.58394e-12)
(5.15174e-12 8.10056e-12 3.76101e-13)
(7.22192e-12 9.3183e-12 -6.93092e-12)
(4.5035e-12 8.97836e-12 -1.02015e-11)
(2.29838e-12 8.11797e-12 -8.99293e-12)
(3.88431e-12 1.03302e-11 -7.67507e-12)
(3.96652e-12 1.16227e-11 -7.36832e-12)
(4.05223e-12 9.67718e-12 -9.49602e-12)
(2.83356e-12 9.33231e-12 -1.98351e-12)
(4.30685e-12 1.14557e-11 6.11266e-12)
(1.77592e-12 1.15093e-11 1.19208e-11)
(8.47102e-13 9.25497e-12 7.72806e-12)
(3.54886e-12 1.1534e-11 4.26259e-12)
(4.94128e-12 1.0336e-11 3.36643e-12)
(4.9402e-12 1.24588e-11 3.70976e-12)
(5.74769e-12 1.40585e-11 1.73643e-12)
(4.3885e-12 9.09622e-12 -1.94701e-12)
(-9.27224e-13 8.03067e-12 -1.07459e-11)
(-1.44282e-12 1.15382e-11 -2.23736e-11)
(9.7939e-13 1.22857e-11 -3.11002e-11)
(3.1761e-12 9.87761e-12 -2.61496e-11)
(2.19027e-12 9.76932e-12 -2.085e-11)
(1.53842e-13 1.06513e-11 -1.48958e-11)
(-1.92742e-13 1.37032e-11 -1.06493e-11)
(3.59551e-13 1.18045e-11 -4.41767e-12)
(-9.31172e-15 1.1172e-11 4.76623e-12)
(-1.49206e-12 1.14752e-11 4.94253e-12)
(-2.34607e-12 1.14103e-11 8.31731e-12)
(-2.97702e-12 1.22567e-11 6.2781e-12)
(-1.3814e-12 1.34073e-11 1.59071e-12)
(-1.40821e-12 1.51741e-11 -7.51428e-12)
(1.53466e-12 1.58263e-11 -1.39553e-11)
(2.55922e-12 1.70515e-11 -1.76635e-11)
(1.97984e-12 1.78024e-11 -1.51486e-11)
(-5.27445e-14 1.57755e-11 -1.50792e-11)
(-2.27275e-12 1.41993e-11 -1.52242e-11)
(-3.45168e-12 1.36788e-11 -9.95878e-12)
(-1.99083e-12 1.2461e-11 -4.85258e-12)
(-2.15322e-12 1.30412e-11 -3.85442e-12)
(-3.76432e-12 1.39788e-11 -5.56115e-12)
(-5.3388e-12 1.45304e-11 -4.86088e-12)
(-2.94063e-12 1.57802e-11 -5.47286e-12)
(-2.72967e-13 1.4482e-11 -7.07872e-12)
(-1.36197e-12 1.46399e-11 -1.28898e-11)
(-2.74764e-12 1.24802e-11 -2.10682e-11)
(-2.55489e-12 1.27796e-11 -2.00841e-11)
(-1.42037e-12 1.23187e-11 -1.50045e-11)
(9.86228e-13 1.12432e-11 -1.23455e-11)
(-9.76725e-13 1.08605e-11 -1.10794e-11)
(-3.32707e-12 1.13338e-11 -9.32074e-12)
(-1.53991e-12 1.39626e-11 -5.96171e-12)
(-1.31746e-12 1.19785e-11 -1.00381e-12)
(1.02731e-12 1.15314e-11 -1.74866e-12)
(1.94537e-12 1.02023e-11 -3.52877e-12)
(1.76443e-12 1.28202e-11 -3.6606e-12)
(9.71838e-13 1.49803e-11 -6.99493e-13)
(-4.44382e-13 1.46163e-11 7.88934e-12)
(1.57216e-12 1.36223e-11 2.31746e-11)
(-2.0426e-12 1.22562e-11 2.4575e-11)
(-2.57445e-12 1.28513e-11 1.61077e-11)
(1.97562e-12 1.10566e-11 8.83535e-12)
(3.00289e-12 -2.48725e-12 -2.22843e-12)
(-1.34233e-12 -9.18392e-13 -2.38257e-12)
(-1.71974e-12 5.54699e-12 4.56022e-12)
(-4.4467e-12 4.20749e-12 1.44817e-11)
(-9.82739e-12 3.40499e-12 2.51531e-11)
(-1.31141e-11 1.3131e-12 2.9813e-11)
(-1.67726e-11 2.76236e-12 2.58694e-11)
(-1.8126e-11 5.75125e-12 1.59386e-11)
(-2.1597e-11 8.27564e-12 8.9e-12)
(-2.71736e-11 6.28855e-12 6.76185e-12)
(-3.065e-11 8.54884e-12 5.11604e-12)
(-3.02635e-11 1.15428e-11 3.1357e-12)
(-2.96218e-11 1.05314e-11 1.43501e-12)
(-2.82452e-11 1.2767e-11 6.57927e-12)
(-2.29994e-11 1.75866e-11 7.49587e-12)
(-1.76447e-11 1.54801e-11 8.73764e-12)
(-1.66347e-11 1.67474e-11 1.19485e-11)
(-1.85067e-11 1.7218e-11 1.21727e-11)
(-1.60406e-11 1.40988e-11 8.06858e-12)
(-1.17339e-11 8.94069e-12 6.38981e-12)
(-1.517e-11 9.861e-12 6.77522e-12)
(-1.60038e-11 8.86758e-12 4.0174e-12)
(-1.49444e-11 1.30156e-11 2.03691e-12)
(-1.33599e-11 1.04674e-11 -1.35631e-12)
(-1.2008e-11 8.7538e-12 -5.48081e-12)
(-1.1418e-11 1.23715e-11 -6.28246e-12)
(-8.28884e-12 1.24345e-11 -8.89382e-12)
(-5.52433e-12 9.94959e-12 -1.24031e-11)
(-3.45863e-12 7.72939e-12 -1.4964e-11)
(-2.65264e-12 8.81461e-12 -1.64389e-11)
(-4.09743e-12 1.06322e-11 -1.57286e-11)
(-4.10615e-12 1.0092e-11 -1.66284e-11)
(-1.71297e-12 9.22529e-12 -1.78686e-11)
(-1.98509e-12 8.09173e-12 -1.79571e-11)
(-1.45363e-12 7.76757e-12 -8.349e-12)
(-8.83026e-13 8.03136e-12 8.6352e-12)
(-2.10132e-12 1.28762e-11 1.99566e-11)
(-2.46264e-12 9.09761e-12 2.21655e-11)
(-2.80176e-12 9.36428e-12 2.27328e-11)
(-2.64015e-12 9.9836e-12 2.24808e-11)
(1.34639e-12 8.23492e-12 1.98464e-11)
(3.14818e-12 8.05729e-12 2.36159e-11)
(2.32998e-12 8.99346e-12 2.30134e-11)
(3.72393e-12 9.26843e-12 2.09795e-11)
(4.48635e-12 8.89814e-12 1.30733e-11)
(1.97833e-12 4.37176e-12 5.19104e-12)
(4.08617e-12 8.49178e-12 -1.59275e-12)
(7.44978e-12 7.24995e-12 -8.14482e-12)
(6.34395e-12 1.08541e-11 -1.277e-11)
(3.10567e-12 9.69153e-12 -9.79857e-12)
(1.33933e-12 1.00648e-11 -7.36492e-12)
(4.21557e-12 1.1614e-11 -6.96262e-12)
(5.63563e-12 1.18173e-11 -7.55796e-12)
(1.69441e-12 1.11963e-11 -1.97122e-12)
(1.84542e-12 1.36868e-11 3.45777e-12)
(4.00546e-12 1.29283e-11 5.87285e-12)
(2.99199e-12 1.02846e-11 4.53648e-12)
(3.38859e-12 1.07781e-11 3.73758e-12)
(4.14887e-12 1.05225e-11 4.11514e-12)
(2.88709e-12 1.1172e-11 4.12032e-12)
(6.86494e-12 1.1068e-11 3.04466e-12)
(7.22329e-12 1.10767e-11 -1.87849e-12)
(-1.40918e-12 8.34541e-12 -9.90395e-12)
(-4.00173e-12 1.05918e-11 -2.13421e-11)
(2.42949e-12 1.16453e-11 -2.6894e-11)
(4.86146e-12 1.07328e-11 -2.35813e-11)
(1.08926e-12 1.09857e-11 -2.15036e-11)
(-1.65343e-12 1.13489e-11 -1.88349e-11)
(4.69603e-13 1.43205e-11 -1.36058e-11)
(1.68625e-12 1.01582e-11 -7.65091e-12)
(1.7997e-13 1.36918e-11 1.72944e-12)
(-1.86982e-12 1.00671e-11 7.6714e-12)
(-1.82371e-12 1.06419e-11 1.59723e-11)
(-1.39314e-12 9.13244e-12 1.33139e-11)
(-3.10595e-12 1.21508e-11 9.62919e-12)
(-5.32675e-12 1.32801e-11 -9.02597e-13)
(-1.06614e-12 1.50332e-11 -1.21516e-11)
(1.57929e-12 1.79886e-11 -1.18487e-11)
(2.44736e-12 1.95072e-11 -9.83375e-12)
(3.09278e-12 1.76566e-11 -1.00044e-11)
(8.49817e-13 1.66077e-11 -9.59899e-12)
(-1.15984e-12 1.40633e-11 -6.82508e-12)
(-1.47958e-12 1.27014e-11 -2.58935e-12)
(-3.21601e-12 1.20134e-11 -3.10831e-12)
(-4.80777e-12 1.37959e-11 -4.50165e-12)
(-5.738e-12 1.41764e-11 -3.82248e-12)
(-3.77352e-12 1.49118e-11 -4.72709e-12)
(-1.28771e-12 1.71414e-11 -6.97527e-12)
(-6.34005e-13 1.77682e-11 -1.32063e-11)
(-7.09371e-13 1.42061e-11 -1.82791e-11)
(-1.7833e-12 1.228e-11 -1.78573e-11)
(-1.32114e-12 1.09539e-11 -1.42827e-11)
(5.49212e-13 1.05839e-11 -1.15373e-11)
(-1.75521e-12 1.11265e-11 -1.01183e-11)
(-4.06074e-12 1.05235e-11 -8.7793e-12)
(-9.19758e-13 1.26087e-11 -5.097e-12)
(1.18559e-13 1.08539e-11 5.45375e-14)
(1.22206e-12 1.0692e-11 -1.83151e-12)
(1.31752e-12 1.20901e-11 -3.49897e-12)
(-4.06998e-13 1.14709e-11 -3.67761e-12)
(5.62505e-13 1.35434e-11 -2.48236e-12)
(5.8029e-13 1.30566e-11 6.18692e-12)
(1.03513e-12 1.55059e-11 1.71885e-11)
(-5.49099e-13 1.49135e-11 1.71899e-11)
(-5.56132e-13 1.23587e-11 1.40758e-11)
(1.56071e-12 1.2284e-11 1.15792e-11)
(1.07307e-12 1.52019e-12 -1.27427e-13)
(-3.08358e-12 3.92693e-12 1.74166e-13)
(-2.34401e-12 5.21857e-12 4.35263e-12)
(-3.30182e-12 4.61812e-12 1.31284e-11)
(-8.70774e-12 6.8281e-12 2.27002e-11)
(-1.22138e-11 4.42161e-12 2.83763e-11)
(-1.7387e-11 5.58965e-12 2.61505e-11)
(-2.05649e-11 4.33299e-12 1.6964e-11)
(-2.22005e-11 9.46387e-12 5.35716e-12)
(-2.6625e-11 1.06865e-11 5.49176e-12)
(-3.00685e-11 1.29758e-11 7.33426e-12)
(-2.99335e-11 1.14305e-11 8.16623e-12)
(-2.9655e-11 1.07903e-11 6.16897e-12)
(-2.99673e-11 1.06197e-11 8.15796e-12)
(-2.36854e-11 1.38136e-11 8.09502e-12)
(-1.87645e-11 1.24903e-11 7.8103e-12)
(-1.80937e-11 1.57093e-11 9.42887e-12)
(-1.69054e-11 1.40601e-11 9.73904e-12)
(-1.32586e-11 1.2388e-11 4.72853e-12)
(-1.07087e-11 1.07225e-11 3.08871e-12)
(-1.4122e-11 1.13051e-11 1.71563e-12)
(-1.7176e-11 1.13566e-11 -7.82158e-13)
(-1.59485e-11 1.3599e-11 -1.89375e-12)
(-1.17769e-11 1.14711e-11 -3.53683e-12)
(-1.2121e-11 1.24656e-11 -5.96563e-12)
(-1.25738e-11 1.24333e-11 -9.64342e-12)
(-6.7163e-12 1.32496e-11 -1.24439e-11)
(-4.27297e-12 1.0912e-11 -1.27832e-11)
(-4.26133e-12 1.25538e-11 -1.36306e-11)
(-3.4378e-12 1.35445e-11 -1.39759e-11)
(-3.942e-12 1.33688e-11 -1.35068e-11)
(-4.53926e-12 1.29931e-11 -1.56271e-11)
(-1.11858e-12 1.23024e-11 -1.73146e-11)
(-1.66464e-12 1.12707e-11 -1.80397e-11)
(-2.29446e-12 8.14971e-12 -1.2164e-11)
(-2.64471e-12 9.87398e-12 4.07721e-12)
(-1.83006e-12 1.44304e-11 1.28771e-11)
(-1.7275e-12 1.2998e-11 1.91205e-11)
(-2.44548e-12 1.2783e-11 1.81706e-11)
(-1.07121e-12 1.15361e-11 1.70175e-11)
(2.31769e-12 9.30663e-12 1.78395e-11)
(3.10595e-12 8.67224e-12 2.5578e-11)
(2.5694e-12 8.50823e-12 2.57249e-11)
(3.9339e-12 1.06817e-11 2.57064e-11)
(5.55337e-12 1.11542e-11 1.60899e-11)
(3.66881e-12 6.30248e-12 6.19685e-12)
(4.19599e-12 3.50767e-12 -2.95656e-12)
(5.64273e-12 6.52023e-12 -9.64307e-12)
(3.03523e-12 1.07596e-11 -1.393e-11)
(3.14598e-12 1.27275e-11 -1.09639e-11)
(2.77768e-12 1.19686e-11 -7.56347e-12)
(2.47255e-12 1.14191e-11 -7.15552e-12)
(4.38605e-12 1.34678e-11 -7.85837e-12)
(3.1233e-12 1.37153e-11 -1.95181e-12)
(2.96835e-12 1.20844e-11 5.82959e-13)
(4.25182e-12 1.24826e-11 1.5393e-12)
(2.89436e-12 1.29634e-11 2.53376e-12)
(2.641e-12 1.16032e-11 2.82367e-12)
(3.93639e-12 1.09636e-11 3.8581e-12)
(4.17261e-12 1.11227e-11 5.10956e-12)
(5.18931e-12 8.74359e-12 5.53559e-12)
(5.90154e-12 1.08762e-11 -9.29335e-14)
(-1.21044e-13 9.80543e-12 -9.46042e-12)
(-3.93369e-12 8.97566e-12 -1.84407e-11)
(1.02846e-12 8.29076e-12 -2.13212e-11)
(3.22473e-12 1.25459e-11 -2.1459e-11)
(1.73736e-12 1.11986e-11 -2.06649e-11)
(-3.40286e-13 9.38285e-12 -1.9901e-11)
(1.22876e-12 1.02596e-11 -1.80639e-11)
(1.51889e-12 1.08145e-11 -8.08881e-12)
(4.20015e-13 1.39657e-11 1.64495e-12)
(-1.55862e-12 1.30143e-11 1.12609e-11)
(-2.83768e-12 1.10517e-11 2.1322e-11)
(-3.44966e-12 8.66496e-12 2.32953e-11)
(-4.44396e-12 1.11638e-11 2.09325e-11)
(-3.57257e-12 1.00829e-11 1.05719e-11)
(-1.82421e-12 1.46048e-11 -1.98206e-12)
(-2.18175e-13 1.33521e-11 -6.07998e-12)
(1.93089e-12 1.34519e-11 -5.6992e-12)
(2.24637e-12 1.50762e-11 -4.86854e-12)
(7.41837e-13 1.87324e-11 -3.8195e-12)
(-1.65392e-13 1.89548e-11 -4.42531e-12)
(-7.96232e-13 1.78593e-11 -2.63437e-12)
(-3.09632e-12 1.49381e-11 -1.6175e-12)
(-5.98094e-12 1.59279e-11 -2.53608e-12)
(-6.29433e-12 1.70456e-11 -2.85527e-12)
(-5.18023e-12 1.61627e-11 -4.14147e-12)
(-1.99658e-12 1.75214e-11 -7.92381e-12)
(-2.36482e-13 1.59074e-11 -1.51284e-11)
(8.23707e-14 1.65e-11 -1.86224e-11)
(1.38993e-13 1.55403e-11 -1.75748e-11)
(-7.21499e-13 1.41633e-11 -1.41918e-11)
(-7.18697e-14 1.3281e-11 -9.76378e-12)
(-7.07169e-13 1.30753e-11 -7.87903e-12)
(-3.11012e-12 1.1404e-11 -7.51781e-12)
(-1.64657e-12 1.05422e-11 -4.89268e-12)
(-1.44344e-13 1.18301e-11 -7.24288e-13)
(-4.58437e-13 1.17815e-11 -2.57875e-12)
(1.09024e-12 1.57181e-11 -3.79185e-12)
(1.44086e-12 1.48683e-11 -3.76929e-12)
(8.38228e-14 1.39367e-11 -1.86783e-12)
(-1.10018e-12 1.31054e-11 2.75033e-12)
(5.45156e-13 1.39785e-11 6.96609e-12)
(-5.31171e-13 1.66399e-11 9.29246e-12)
(-8.1287e-13 1.24742e-11 9.54079e-12)
(5.04753e-13 1.26635e-11 8.33258e-12)
(-1.87714e-12 6.27269e-13 3.00409e-12)
(-4.88625e-12 1.94491e-12 2.46697e-12)
(-1.69598e-12 2.32105e-12 5.49636e-12)
(-4.41562e-12 5.48186e-12 1.174e-11)
(-8.38205e-12 5.04553e-12 1.88462e-11)
(-1.19052e-11 7.59003e-12 2.48745e-11)
(-1.75733e-11 6.57246e-12 2.48522e-11)
(-2.17581e-11 5.89758e-12 1.57834e-11)
(-2.53618e-11 7.80858e-12 4.37056e-12)
(-2.89702e-11 1.36368e-11 4.65543e-12)
(-3.03108e-11 1.65459e-11 6.28644e-12)
(-2.87126e-11 1.50665e-11 9.24736e-12)
(-2.86936e-11 1.47884e-11 7.49047e-12)
(-2.96237e-11 1.40068e-11 9.05183e-12)
(-2.4031e-11 1.39222e-11 9.11657e-12)
(-2.0111e-11 1.29875e-11 7.15749e-12)
(-1.87096e-11 1.27323e-11 9.17314e-12)
(-1.59899e-11 1.21281e-11 1.03815e-11)
(-1.28755e-11 1.22699e-11 3.21209e-12)
(-9.69755e-12 1.27625e-11 1.79825e-12)
(-1.45842e-11 1.12883e-11 -6.95826e-13)
(-1.72606e-11 1.17706e-11 -4.5584e-12)
(-1.46086e-11 9.46758e-12 -4.18464e-12)
(-1.26006e-11 8.50684e-12 -6.76754e-12)
(-1.33103e-11 9.62146e-12 -7.7887e-12)
(-1.13357e-11 8.09354e-12 -1.12014e-11)
(-7.44824e-12 9.79527e-12 -1.5609e-11)
(-6.07242e-12 9.98251e-12 -1.28803e-11)
(-5.50209e-12 1.13888e-11 -1.09323e-11)
(-2.8108e-12 1.14549e-11 -1.07768e-11)
(-3.26685e-12 1.12922e-11 -9.43281e-12)
(-3.80429e-12 1.03224e-11 -1.32253e-11)
(-1.45751e-12 9.67387e-12 -1.59555e-11)
(4.37388e-13 9.36921e-12 -1.40437e-11)
(1.24295e-13 7.31286e-12 -6.71325e-12)
(-3.42611e-12 8.87557e-12 5.59942e-12)
(-2.35598e-12 7.21769e-12 9.15524e-12)
(-1.36953e-12 7.97495e-12 1.1917e-11)
(-1.9754e-12 6.84432e-12 1.14522e-11)
(-1.29731e-12 7.24859e-12 1.01975e-11)
(2.33648e-12 5.76654e-12 1.35336e-11)
(5.02098e-12 7.63525e-12 2.02821e-11)
(1.51819e-12 6.89278e-12 2.52194e-11)
(1.30488e-12 8.59648e-12 2.10212e-11)
(7.10788e-12 7.32969e-12 1.43897e-11)
(6.55735e-12 8.51135e-12 4.77798e-12)
(4.70886e-12 4.41743e-12 -3.0617e-12)
(2.74028e-12 8.08177e-12 -1.17447e-11)
(1.94595e-12 8.39576e-12 -1.84143e-11)
(1.88011e-12 7.99484e-12 -1.28176e-11)
(2.60951e-12 9.397e-12 -8.45286e-12)
(3.87413e-12 8.89194e-12 -8.10813e-12)
(4.647e-12 8.83813e-12 -9.80035e-12)
(3.71194e-12 8.65642e-12 -5.20579e-12)
(3.02727e-12 5.82912e-12 -3.03269e-12)
(2.77983e-12 6.46673e-12 -9.55888e-13)
(2.44762e-12 7.84172e-12 9.88245e-13)
(3.89597e-12 7.32789e-12 1.76413e-12)
(3.41834e-12 6.96316e-12 3.65083e-12)
(3.45324e-12 7.98452e-12 6.10105e-12)
(6.18846e-12 8.33673e-12 8.45693e-12)
(5.76863e-12 9.3603e-12 1.13976e-12)
(1.53293e-13 1.07838e-11 -8.06775e-12)
(-2.73974e-12 7.47398e-12 -1.69375e-11)
(-1.02953e-12 5.05195e-12 -1.87443e-11)
(2.85531e-12 7.03824e-12 -1.95778e-11)
(2.40718e-12 7.68898e-12 -2.02643e-11)
(-1.05759e-12 7.02566e-12 -2.14295e-11)
(-3.26021e-13 6.55433e-12 -2.19664e-11)
(1.20707e-12 7.67346e-12 -1.19099e-11)
(-1.20415e-12 8.34766e-12 1.18565e-12)
(-1.97554e-12 1.0649e-11 1.42134e-11)
(5.66542e-14 7.73034e-12 2.60278e-11)
(-2.09165e-12 9.11348e-12 3.11642e-11)
(-4.46641e-12 9.06316e-12 2.95198e-11)
(-6.23293e-12 9.38672e-12 1.93538e-11)
(-3.0339e-12 1.25517e-11 3.39457e-12)
(1.55344e-12 1.28333e-11 -2.57469e-12)
(1.07911e-12 1.28984e-11 -1.08076e-12)
(-5.24321e-13 1.45925e-11 -2.36443e-12)
(-1.79648e-12 1.59876e-11 -4.05127e-13)
(-7.63631e-13 1.62587e-11 -1.43018e-12)
(8.8656e-13 1.62134e-11 -7.99301e-13)
(-1.70279e-12 1.58561e-11 2.56973e-13)
(-6.74269e-12 1.4565e-11 -1.40807e-14)
(-6.52778e-12 1.34562e-11 -7.53169e-13)
(-3.71685e-12 1.21891e-11 -2.30335e-12)
(-1.84377e-12 1.12032e-11 -8.11872e-12)
(-1.2056e-12 1.04738e-11 -1.7212e-11)
(-5.73865e-13 1.19596e-11 -2.04758e-11)
(-5.91903e-13 1.2262e-11 -1.67251e-11)
(5.49373e-13 1.39845e-11 -1.4315e-11)
(1.18569e-12 1.35942e-11 -6.54386e-12)
(-2.81436e-13 1.47678e-11 -6.54794e-12)
(-1.81476e-12 1.34113e-11 -7.2331e-12)
(-1.46308e-12 1.08121e-11 -4.84205e-12)
(-7.0946e-13 1.13519e-11 1.5498e-13)
(-2.07696e-12 1.15497e-11 -3.54582e-12)
(-1.09518e-12 1.30788e-11 -3.92703e-12)
(1.05403e-12 1.41311e-11 -3.42605e-12)
(1.29516e-12 1.45532e-11 -1.40597e-12)
(5.24296e-13 1.33705e-11 5.40884e-13)
(-1.56005e-12 1.26735e-11 2.22006e-12)
(1.47286e-12 1.34529e-11 3.69647e-12)
(2.24158e-12 1.32032e-11 5.96063e-12)
(-3.39375e-12 -3.42144e-12 5.33456e-13)
(-6.61705e-12 -4.19322e-12 9.90971e-13)
(-4.23392e-12 -2.57626e-12 3.51639e-12)
(-4.54705e-12 -1.29931e-13 1.11178e-11)
(-9.44891e-12 4.07782e-14 1.91247e-11)
(-1.38723e-11 3.74306e-12 2.29031e-11)
(-1.7561e-11 4.14588e-12 2.40331e-11)
(-2.20762e-11 6.34733e-12 1.45797e-11)
(-2.85291e-11 7.2067e-12 7.07062e-12)
(-3.22688e-11 1.06133e-11 5.03143e-12)
(-3.10163e-11 1.31989e-11 4.61508e-12)
(-2.90458e-11 1.42352e-11 5.15885e-12)
(-2.96087e-11 1.56451e-11 7.45114e-12)
(-2.94075e-11 1.655e-11 8.68471e-12)
(-2.38285e-11 1.4509e-11 7.19828e-12)
(-1.91837e-11 1.47209e-11 5.61962e-12)
(-1.80489e-11 1.31006e-11 8.36326e-12)
(-1.60206e-11 1.28319e-11 8.75949e-12)
(-1.3824e-11 1.13943e-11 4.57331e-12)
(-9.84009e-12 1.31381e-11 2.06713e-12)
(-1.28513e-11 1.1932e-11 2.47214e-13)
(-1.4888e-11 8.92104e-12 -1.40871e-12)
(-1.15472e-11 4.59269e-12 -2.5863e-12)
(-1.10385e-11 4.07702e-12 -5.83757e-12)
(-1.24353e-11 2.91842e-12 -8.71245e-12)
(-1.19771e-11 3.07516e-12 -1.17055e-11)
(-9.06587e-12 3.82194e-12 -1.32331e-11)
(-6.84398e-12 6.14711e-12 -1.00791e-11)
(-5.72671e-12 6.19717e-12 -7.52188e-12)
(-3.48467e-12 6.75222e-12 -8.81329e-12)
(-2.78188e-12 6.69102e-12 -9.40014e-12)
(-3.00184e-12 5.08582e-12 -1.05969e-11)
(-8.20651e-13 5.9619e-12 -1.16786e-11)
(5.79982e-13 5.21214e-12 -7.93705e-12)
(-2.01002e-12 6.21639e-12 -2.75046e-12)
(-1.89358e-12 7.45931e-12 8.00247e-13)
(-2.31108e-13 3.2953e-12 3.70094e-13)
(-2.23574e-13 1.01331e-13 2.59577e-12)
(-1.91533e-12 1.66105e-13 2.44741e-12)
(-1.36428e-12 -1.46045e-12 3.52395e-12)
(1.56544e-12 -3.6607e-14 7.5186e-12)
(1.80949e-12 4.76548e-12 1.2033e-11)
(2.5221e-12 6.78871e-12 1.63563e-11)
(3.5704e-12 2.99706e-12 1.47422e-11)
(3.92565e-12 3.93408e-12 1.09219e-11)
(4.79926e-12 7.59827e-12 5.51181e-12)
(5.22415e-12 5.59721e-12 -1.92577e-12)
(4.43901e-12 5.47476e-12 -9.75903e-12)
(3.54871e-12 2.15765e-12 -1.37815e-11)
(3.08421e-12 8.80779e-13 -1.05224e-11)
(2.53003e-12 2.45036e-12 -6.73263e-12)
(3.74232e-12 2.56282e-12 -5.88953e-12)
(5.13429e-12 1.33103e-12 -7.998e-12)
(4.81824e-12 1.28795e-13 -6.82495e-12)
(3.28945e-12 -1.56056e-12 -6.44784e-12)
(2.27476e-12 -2.00782e-12 -4.35319e-12)
(1.15177e-12 2.12993e-13 -2.23645e-12)
(2.85213e-12 6.63784e-13 9.37303e-14)
(1.93609e-12 4.40487e-12 1.22885e-12)
(1.82571e-12 4.96456e-12 3.60925e-12)
(3.07646e-12 6.50704e-12 4.78022e-12)
(3.13217e-12 8.59991e-12 2.22801e-13)
(1.8857e-12 8.96615e-12 -6.5039e-12)
(1.38142e-12 4.76124e-12 -1.22412e-11)
(8.95374e-13 3.87195e-12 -1.3536e-11)
(1.09189e-12 3.2216e-12 -1.34498e-11)
(2.09033e-12 4.5738e-12 -1.48372e-11)
(1.16133e-12 3.07003e-12 -1.72612e-11)
(7.3189e-13 1.03064e-12 -1.90276e-11)
(8.29331e-13 3.88219e-14 -1.13674e-11)
(-2.65302e-12 -4.57214e-13 8.43996e-13)
(-1.16712e-12 4.08682e-12 1.31177e-11)
(-1.63541e-12 4.5454e-12 2.30546e-11)
(-3.86963e-12 6.70481e-12 2.44919e-11)
(-4.19874e-12 6.3657e-12 2.32478e-11)
(-5.59276e-12 5.84943e-12 1.44264e-11)
(-4.34014e-12 7.33462e-12 1.43578e-12)
(-8.78e-13 1.16699e-11 -4.29754e-12)
(-5.12796e-15 1.14243e-11 -3.82076e-12)
(-1.92582e-13 1.25563e-11 -4.58282e-12)
(4.2485e-13 1.14748e-11 -2.85477e-12)
(5.77215e-13 7.82867e-12 -9.20327e-13)
(1.43175e-13 8.46869e-12 1.74131e-12)
(-1.6377e-12 9.99646e-12 2.39977e-12)
(-3.67034e-12 1.01853e-11 1.38797e-12)
(-4.16607e-12 8.0723e-12 3.0883e-12)
(-2.8004e-12 6.41557e-12 2.49664e-12)
(-2.01404e-12 4.80025e-12 -2.15092e-12)
(-1.88608e-12 4.96116e-12 -1.04184e-11)
(-1.10109e-12 7.80213e-12 -1.32696e-11)
(-1.57577e-12 8.43537e-12 -1.20341e-11)
(-5.36502e-13 1.01263e-11 -9.91123e-12)
(-7.21362e-13 1.04004e-11 -6.45592e-12)
(-8.46661e-13 1.24705e-11 -6.58299e-12)
(-3.3047e-13 1.1781e-11 -8.87655e-12)
(-3.82853e-13 1.05235e-11 -5.26927e-12)
(-1.43989e-12 1.12232e-11 -1.46384e-12)
(-2.73619e-12 1.22851e-11 -3.39972e-12)
(-8.21997e-13 1.13533e-11 -4.01344e-12)
(9.19544e-13 1.20114e-11 -2.43476e-12)
(6.34703e-13 1.17337e-11 -1.6451e-13)
(7.34845e-13 1.12697e-11 6.23958e-14)
(3.23919e-13 1.19245e-11 -1.66261e-12)
(-4.30705e-13 1.00239e-11 -1.8223e-12)
(2.05268e-13 1.44247e-11 -8.08156e-13)
(-3.37133e-12 -7.97111e-12 -3.12327e-12)
(-6.17213e-12 -8.79503e-12 -6.81456e-13)
(-2.9382e-12 -7.27703e-12 2.73222e-12)
(-5.3271e-12 -4.97708e-12 9.46558e-12)
(-1.03564e-11 -9.06837e-13 1.56924e-11)
(-1.53935e-11 2.02568e-13 2.05679e-11)
(-2.05213e-11 2.95929e-12 2.00343e-11)
(-2.40504e-11 3.66673e-12 1.3224e-11)
(-2.88713e-11 4.83628e-12 7.12318e-12)
(-3.30657e-11 5.08331e-12 4.53072e-12)
(-3.28904e-11 8.77954e-12 3.43488e-12)
(-2.99702e-11 1.09142e-11 2.92381e-12)
(-3.02388e-11 1.27333e-11 3.86546e-12)
(-2.91625e-11 1.30464e-11 6.48439e-12)
(-2.36486e-11 1.13833e-11 5.07193e-12)
(-1.97624e-11 1.08323e-11 2.17774e-12)
(-1.75788e-11 9.98385e-12 6.23433e-12)
(-1.49337e-11 9.60341e-12 8.82952e-12)
(-1.35629e-11 7.6294e-12 5.24002e-12)
(-1.05018e-11 6.94049e-12 2.31394e-12)
(-1.15665e-11 7.00189e-12 8.74276e-13)
(-1.17509e-11 3.36344e-12 -6.18975e-14)
(-1.02505e-11 -5.10414e-13 -2.11308e-12)
(-1.13847e-11 -1.43533e-12 -6.21085e-12)
(-1.30719e-11 -1.94433e-12 -9.78705e-12)
(-1.16017e-11 -2.36452e-12 -1.10228e-11)
(-9.36766e-12 -1.40393e-12 -1.15638e-11)
(-8.10551e-12 -1.80426e-13 -9.8674e-12)
(-6.21131e-12 1.64022e-12 -8.53248e-12)
(-3.37021e-12 3.37312e-12 -9.51849e-12)
(-2.42561e-12 1.36578e-12 -8.72965e-12)
(-3.34163e-12 -7.38653e-13 -8.4063e-12)
(-1.28668e-12 1.42815e-13 -8.4409e-12)
(9.67624e-13 -9.67036e-13 -5.2598e-12)
(-1.41394e-12 7.86098e-13 -1.31888e-12)
(-1.87401e-13 2.0489e-12 -6.8983e-13)
(2.93774e-12 -1.63772e-12 -1.44336e-12)
(9.20679e-13 -3.25098e-12 -1.57867e-12)
(-7.36058e-13 -3.38927e-12 -3.00849e-12)
(-3.40264e-13 -2.68126e-12 -1.76353e-13)
(-2.16e-12 -3.04206e-12 3.54419e-12)
(1.5715e-13 -2.58384e-12 8.97846e-12)
(3.03075e-12 -2.40831e-13 1.13878e-11)
(3.65684e-12 -1.50179e-12 1.06912e-11)
(1.87077e-12 7.08241e-13 9.49713e-12)
(4.15591e-12 3.83875e-12 6.21781e-12)
(5.84171e-12 1.16012e-12 -5.92876e-13)
(6.54008e-12 2.04605e-13 -7.67846e-12)
(5.4711e-12 -2.69408e-12 -1.05988e-11)
(1.65237e-12 -3.89411e-12 -9.37532e-12)
(1.38397e-12 -2.93955e-12 -4.30706e-12)
(4.94134e-12 -2.50744e-12 -1.15777e-12)
(7.3385e-12 -3.23396e-12 -1.51925e-12)
(5.62678e-12 -4.42623e-12 -4.4875e-12)
(3.55837e-12 -5.59307e-12 -6.65967e-12)
(1.07137e-12 -6.78069e-12 -5.56125e-12)
(3.41572e-14 -5.35379e-12 -3.00806e-12)
(1.02019e-12 -3.84376e-12 -5.43141e-13)
(7.913e-14 2.2584e-14 4.61308e-13)
(1.96872e-12 1.44263e-12 1.92222e-12)
(2.76593e-12 1.9794e-12 8.66596e-13)
(2.61584e-12 3.18367e-12 -1.66256e-12)
(3.40587e-12 1.50662e-12 -5.84967e-12)
(1.82243e-12 -6.49795e-13 -8.62833e-12)
(1.16993e-13 -6.26537e-13 -8.33282e-12)
(1.33601e-12 -2.46545e-12 -9.8559e-12)
(3.48968e-12 -1.49539e-12 -1.20805e-11)
(2.70107e-12 -2.97039e-12 -1.47884e-11)
(1.22151e-12 -3.22225e-12 -1.7261e-11)
(1.74071e-12 -2.77027e-12 -9.3152e-12)
(-5.41093e-12 -4.74277e-12 4.28446e-13)
(-2.84248e-12 -4.73909e-13 1.11767e-11)
(-7.72359e-13 1.38603e-12 1.89667e-11)
(-3.06481e-12 4.37719e-13 2.13505e-11)
(-3.46625e-12 2.2094e-12 1.97984e-11)
(-6.31483e-12 1.10433e-12 1.0763e-11)
(-6.99212e-12 2.23728e-12 2.57853e-13)
(-1.86317e-12 5.28489e-12 -3.93115e-12)
(-5.30727e-13 3.58429e-12 -4.05984e-12)
(-3.71118e-13 4.68281e-12 -4.41462e-12)
(1.60163e-12 3.87124e-12 -4.35037e-12)
(1.2981e-12 2.22676e-12 -2.2669e-13)
(1.24284e-13 1.98497e-12 4.45963e-12)
(-1.94544e-12 4.30445e-12 4.8954e-12)
(-4.35345e-12 4.70398e-12 4.62702e-12)
(-3.19393e-12 2.94041e-12 6.1659e-12)
(-1.2535e-12 8.05918e-13 5.88429e-12)
(-3.84423e-13 -3.32609e-13 1.19131e-13)
(-3.20815e-12 4.65274e-13 -7.2521e-12)
(-3.39118e-12 2.72578e-12 -1.03625e-11)
(-2.15397e-12 4.78268e-12 -1.01799e-11)
(-1.98654e-13 4.28956e-12 -8.75183e-12)
(-1.02364e-12 5.5613e-12 -7.65642e-12)
(-1.27845e-12 6.95425e-12 -7.2318e-12)
(1.93859e-14 5.74906e-12 -7.92918e-12)
(-8.79234e-13 6.0826e-12 -5.73523e-12)
(-2.79612e-12 7.1686e-12 -3.92454e-12)
(-3.38331e-12 9.25602e-12 -4.11264e-12)
(-1.381e-12 1.04181e-11 -4.66305e-12)
(1.34222e-12 1.03829e-11 -1.2648e-12)
(2.59988e-12 1.07648e-11 3.18964e-12)
(3.24919e-14 9.08587e-12 6.24365e-13)
(8.99959e-13 8.98584e-12 -3.13614e-12)
(-1.54093e-13 7.10661e-12 -4.10675e-12)
(-5.72843e-13 7.69178e-12 -4.83639e-12)
(6.42986e-13 -5.27242e-12 -2.72921e-12)
(-5.44902e-12 -5.57223e-12 -1.37007e-12)
(-6.19567e-12 -3.17797e-12 3.008e-12)
(-8.5864e-12 -3.77766e-13 9.34684e-12)
(-1.22075e-11 5.80016e-12 1.22383e-11)
(-1.69458e-11 6.95911e-12 1.52448e-11)
(-1.98704e-11 7.56762e-12 1.20928e-11)
(-2.4081e-11 7.14747e-12 9.15757e-12)
(-3.0113e-11 7.78356e-12 5.63957e-12)
(-3.50978e-11 1.04015e-11 3.61735e-12)
(-3.51064e-11 1.25033e-11 1.71755e-12)
(-3.18602e-11 1.34304e-11 6.58197e-13)
(-3.1034e-11 1.25626e-11 -1.76304e-12)
(-2.87017e-11 1.22491e-11 1.43043e-12)
(-2.20609e-11 1.45094e-11 2.42307e-12)
(-1.78725e-11 1.54528e-11 2.26065e-12)
(-1.65979e-11 1.39751e-11 3.77608e-12)
(-1.42602e-11 1.5457e-11 4.97663e-12)
(-1.0791e-11 1.35741e-11 5.32639e-12)
(-8.58489e-12 1.03763e-11 2.08774e-12)
(-1.02921e-11 8.60536e-12 1.55403e-12)
(-1.0706e-11 5.53349e-12 2.54124e-12)
(-9.05323e-12 3.89924e-12 -1.06525e-12)
(-1.06713e-11 3.32972e-12 -5.86931e-12)
(-1.08805e-11 2.09379e-12 -8.91643e-12)
(-1.13356e-11 1.28019e-12 -1.01298e-11)
(-9.77264e-12 2.42026e-12 -1.06225e-11)
(-8.09964e-12 2.13404e-12 -1.06967e-11)
(-9.1061e-12 3.42691e-12 -1.03945e-11)
(-3.85058e-12 3.59292e-12 -1.20267e-11)
(5.81206e-13 4.12602e-12 -1.25327e-11)
(-2.18344e-12 2.62072e-12 -1.08343e-11)
(-2.48535e-13 2.98247e-12 -7.70654e-12)
(6.15832e-13 4.88701e-13 -3.57567e-12)
(-4.04472e-12 9.22779e-13 -5.84914e-13)
(5.16983e-13 3.63465e-12 -3.48235e-13)
(4.30295e-12 1.82856e-12 6.65066e-13)
(3.69208e-13 1.20058e-12 -6.48428e-13)
(-2.76596e-12 -3.00727e-13 -1.30709e-12)
(-1.10232e-12 1.62437e-12 -1.20733e-12)
(1.7868e-12 1.43036e-12 3.37875e-12)
(-6.6906e-13 7.43797e-13 7.66344e-12)
(1.23094e-12 3.47013e-12 1.11451e-11)
(2.40144e-12 3.23261e-12 1.09793e-11)
(4.90471e-13 3.79e-12 9.63618e-12)
(5.00245e-12 4.57993e-12 7.90458e-12)
(7.7893e-12 3.12971e-12 1.86572e-12)
(5.31301e-12 8.22837e-13 -4.06536e-12)
(5.85115e-12 3.22466e-12 -5.85722e-12)
(4.19894e-12 4.60962e-13 -4.65213e-12)
(1.92037e-12 5.39506e-13 -3.51209e-13)
(3.41169e-12 -1.15403e-13 3.85074e-12)
(5.76127e-12 2.10313e-12 4.75282e-12)
(5.30862e-12 7.13838e-13 3.17915e-13)
(4.49984e-12 -1.67075e-12 -3.0946e-12)
(2.90177e-12 -2.11956e-12 -2.56399e-12)
(9.50347e-13 -1.00584e-12 -2.31777e-12)
(4.97392e-13 9.66467e-13 -1.8277e-12)
(-9.82623e-13 1.58062e-12 -2.85688e-12)
(1.89319e-13 5.90935e-12 -2.17981e-12)
(2.57699e-12 6.54612e-12 -2.40909e-12)
(3.51207e-12 5.77431e-12 -4.86128e-12)
(3.36014e-12 3.47902e-12 -6.55226e-12)
(1.89805e-12 3.34257e-12 -6.68578e-12)
(2.44649e-12 3.30117e-12 -4.98007e-12)
(2.03078e-12 -1.03775e-14 -5.91011e-12)
(1.35559e-12 1.06926e-12 -8.61178e-12)
(9.42558e-13 5.23722e-13 -1.09298e-11)
(2.01194e-13 2.37085e-12 -1.01362e-11)
(1.25136e-12 1.71037e-12 -4.74213e-12)
(-3.5233e-12 1.30568e-12 2.72616e-12)
(-4.72528e-12 3.77096e-12 1.06757e-11)
(-2.68696e-12 5.90817e-12 1.30603e-11)
(-4.43736e-12 5.42264e-12 1.41022e-11)
(-4.35787e-12 7.03101e-12 1.38849e-11)
(-3.90802e-12 5.55563e-12 8.06508e-12)
(-6.06858e-12 5.31559e-12 8.30141e-13)
(-2.23412e-13 3.15075e-12 -2.20673e-12)
(7.29342e-13 4.43431e-12 -3.61862e-12)
(-1.84387e-12 4.97485e-12 -4.55274e-12)
(2.51306e-13 6.75005e-12 -5.57091e-12)
(1.59439e-12 7.29245e-12 -1.51544e-12)
(-8.47346e-13 5.39508e-12 3.78403e-12)
(-2.88365e-12 6.45919e-12 7.07965e-12)
(-2.63181e-12 6.8678e-12 8.06993e-12)
(-1.92659e-12 5.8815e-12 9.35656e-12)
(-1.64431e-12 2.91244e-12 8.70348e-12)
(-3.20731e-12 2.93777e-12 2.58038e-12)
(-3.46211e-12 4.77961e-12 -4.10479e-12)
(-3.65241e-12 6.51982e-12 -8.41061e-12)
(-1.96302e-12 6.50037e-12 -1.06849e-11)
(-1.25811e-12 6.59169e-12 -8.18714e-12)
(-2.43454e-12 7.02915e-12 -8.10035e-12)
(1.52668e-13 5.66592e-12 -8.89513e-12)
(1.53875e-12 5.85812e-12 -9.02956e-12)
(-1.69394e-12 6.19293e-12 -8.44614e-12)
(-4.63555e-12 7.00694e-12 -6.7364e-12)
(-5.55129e-12 1.02832e-11 -6.95302e-12)
(-1.96855e-12 1.16311e-11 -6.67875e-12)
(5.60353e-13 1.20476e-11 -1.68552e-12)
(1.80165e-12 1.57948e-11 1.21651e-12)
(2.0314e-12 1.35872e-11 -2.43779e-12)
(2.25238e-12 1.2567e-11 -4.80193e-12)
(1.39874e-12 9.37261e-12 -5.33995e-12)
(-7.06632e-13 7.5551e-12 -8.19932e-12)
(-1.58352e-12 5.46192e-12 -2.78244e-12)
(-7.55313e-12 4.54218e-12 -1.28675e-12)
(-8.0804e-12 3.92569e-12 2.8584e-12)
(-1.23264e-11 6.79118e-12 6.53898e-12)
(-1.62156e-11 9.4745e-12 8.14729e-12)
(-1.72658e-11 8.64048e-12 8.82624e-12)
(-1.98967e-11 9.59321e-12 7.3822e-12)
(-2.54949e-11 1.48709e-11 6.72252e-12)
(-3.19544e-11 1.4348e-11 3.49648e-12)