/*--------------------------------*- C++ -*----------------------------------*\
| =========                 |                                                 |
| \\      /  F ield         | OpenFOAM: The Open Source CFD Toolbox           |
|  \\    /   O peration     | Version:  2406                                  |
|   \\  /    A nd           | Website:  www.openfoam.com                      |
|    \\/     M anipulation  |                                                 |
\*---------------------------------------------------------------------------*/
FoamFile
{
    version     2.0;
    format      ascii;
    arch        "LSB;label=32;scalar=64";
    class       volVectorField;
    location    "0.035";
    object      U;
}
// * * * * * * * * * * * * * * * * * * * * * * * * * * * * * * * * * * * * * //

dimensions      [0 1 -1 0 0 0 0];

internalField   nonuniform List<vector> 
14020
(
(317.762 2.97375e-05 -1.35972e-05)
(317.762 2.83849e-05 -1.80392e-05)
(317.761 2.5205e-05 -2.40706e-05)
(317.76 2.29774e-05 -3.38731e-05)
(317.754 2.45893e-05 -4.65533e-05)
(317.716 3.19603e-05 -5.96947e-05)
(317.471 4.3023e-05 -7.42037e-05)
(315.93 5.66149e-05 -9.64718e-05)
(306.536 6.83531e-05 -0.000128966)
(258.134 6.5072e-05 -0.000137643)
(116.752 3.02092e-05 -6.49665e-05)
(9.10271 2.07598e-06 -4.23726e-06)
(0.0595511 1.14584e-08 -2.07895e-08)
(2.45485e-05 4.82625e-12 -5.94981e-12)
(7.65975e-10 3.22406e-13 9.5358e-13)
(1.502e-11 6.01293e-13 -6.50447e-13)
(1.59152e-11 1.99826e-13 -1.17503e-12)
(1.81869e-11 2.16183e-13 -2.54026e-12)
(1.72325e-11 1.75077e-12 -4.75466e-12)
(1.46549e-11 1.57293e-12 -8.66224e-12)
(1.43672e-11 1.80257e-12 -1.28331e-11)
(1.22251e-11 2.96927e-12 -1.19054e-11)
(8.4306e-12 4.18927e-12 -1.13058e-11)
(4.43153e-12 3.68316e-12 -1.31225e-11)
(1.26221e-12 3.09262e-12 -1.66107e-11)
(-2.62837e-12 3.63962e-12 -1.58331e-11)
(-6.11878e-12 4.40487e-12 -1.64259e-11)
(-1.02996e-11 4.31225e-12 -1.64385e-11)
(-1.48413e-11 3.18032e-12 -1.82368e-11)
(-1.65527e-11 2.03831e-12 -2.0092e-11)
(-1.59482e-11 1.60621e-12 -1.99045e-11)
(-1.59646e-11 7.53623e-13 -1.84487e-11)
(-1.49093e-11 3.80065e-13 -1.81687e-11)
(-1.57306e-11 8.46373e-13 -1.69401e-11)
(-1.76207e-11 -2.33021e-13 -1.60978e-11)
(-1.76551e-11 -7.03331e-13 -1.46344e-11)
(-1.75953e-11 -3.10141e-13 -1.38936e-11)
(-1.65002e-11 -1.11017e-12 -1.34304e-11)
(-1.68604e-11 -2.29702e-12 -1.2921e-11)
(-1.72394e-11 -4.22812e-12 -1.28419e-11)
(-1.35161e-11 -5.44043e-12 -1.19281e-11)
(-1.10022e-11 -3.20756e-12 -9.31057e-12)
(-7.64479e-12 -2.70919e-12 -7.09671e-12)
(-4.28452e-12 -1.38858e-12 -6.62563e-12)
(-3.13372e-12 4.06689e-13 -5.30378e-12)
(-1.30158e-12 5.3308e-13 -3.79003e-12)
(3.14689e-13 1.33568e-13 -2.30148e-12)
(1.07794e-12 7.62453e-13 -1.42508e-12)
(2.42724e-12 1.92549e-12 -1.2839e-12)
(4.17712e-12 2.5333e-12 -1.77373e-12)
(4.90269e-12 3.28481e-12 -2.54284e-12)
(5.36966e-12 2.7385e-12 -2.15889e-12)
(6.5426e-12 2.2797e-12 -5.48491e-13)
(7.93845e-12 1.34365e-12 7.74178e-13)
(7.77387e-12 5.44931e-13 7.38785e-13)
(8.57655e-12 3.10009e-13 -2.60266e-12)
(1.08118e-11 -4.03159e-13 -4.27949e-12)
(1.05786e-11 4.02401e-13 -4.95697e-12)
(9.36464e-12 2.16164e-12 -2.74882e-12)
(9.36399e-12 2.62173e-12 4.51929e-13)
(8.21038e-12 4.64132e-12 9.6207e-13)
(4.61969e-12 6.75245e-12 2.95131e-12)
(1.00024e-12 5.95266e-12 6.21042e-12)
(-2.49192e-12 4.905e-12 5.71524e-12)
(-4.48013e-12 3.88243e-12 6.87955e-12)
(-5.66334e-12 2.08929e-12 6.53337e-12)
(-6.03867e-12 1.65215e-12 5.80049e-12)
(-6.98656e-12 2.95216e-12 5.62382e-12)
(-1.03179e-11 2.30615e-12 5.28965e-12)
(-1.25319e-11 7.38471e-13 2.17839e-12)
(-1.38442e-11 -9.06526e-13 -9.79955e-15)
(-1.46775e-11 -3.22531e-12 2.20377e-12)
(-1.30443e-11 -4.92825e-12 3.97871e-12)
(-1.0294e-11 -6.19937e-12 4.42549e-12)
(-8.76396e-12 -5.14322e-12 5.89763e-12)
(-7.77982e-12 -4.53019e-12 7.95603e-12)
(-6.5745e-12 -4.43152e-12 6.9107e-12)
(-5.9254e-12 -3.58289e-12 8.3073e-12)
(-6.82038e-12 -1.72117e-12 1.05722e-11)
(-7.25691e-12 -1.29957e-12 1.2774e-11)
(-5.72501e-12 -5.18807e-13 1.35584e-11)
(-4.42883e-12 7.67202e-13 1.31641e-11)
(-4.35933e-12 2.58315e-13 1.23921e-11)
(-3.86983e-12 1.13551e-12 1.03507e-11)
(-1.78565e-12 6.08723e-13 8.76657e-12)
(-4.08654e-12 1.24424e-12 7.46952e-12)
(-5.53572e-12 1.13561e-13 6.7458e-12)
(-4.71615e-12 -8.35296e-14 7.48775e-12)
(-6.55104e-12 -9.65719e-14 8.09144e-12)
(-6.59586e-12 -1.39671e-12 9.79718e-12)
(-6.23356e-12 5.28919e-13 1.26701e-11)
(-8.23896e-12 -4.31383e-16 1.66255e-11)
(-7.71993e-12 4.03945e-13 1.90647e-11)
(-5.86331e-12 5.48847e-13 1.43019e-11)
(-5.80708e-12 2.25098e-12 8.15468e-12)
(-7.78199e-12 2.45398e-12 5.79658e-12)
(-6.75134e-12 3.19789e-12 4.93037e-12)
(-5.73626e-12 3.71543e-12 4.41366e-12)
(-7.27113e-12 2.53728e-12 4.25934e-12)
(-7.9899e-12 3.74647e-13 4.45779e-12)
(-6.75633e-12 -1.41684e-12 4.736e-12)
(-5.29115e-12 -3.37874e-12 4.93199e-12)
(-2.1707e-12 -3.11558e-12 5.00973e-12)
(-1.99987e-12 -1.53978e-12 4.86374e-12)
(-2.66146e-12 -1.34995e-12 3.62848e-12)
(-1.6013e-12 -8.19234e-13 3.34684e-12)
(-1.50305e-13 -6.11665e-13 3.63512e-12)
(8.08276e-13 -1.7698e-12 1.72107e-12)
(3.09269e-12 -2.4432e-13 -3.47208e-13)
(5.50927e-12 4.34056e-13 -2.11918e-12)
(5.20784e-12 1.86447e-12 -3.08854e-12)
(5.16979e-12 1.25765e-12 -4.03885e-12)
(6.96775e-12 1.2175e-12 -4.64201e-12)
(7.4356e-12 2.27109e-12 -4.61922e-12)
(8.71586e-12 2.42333e-12 -4.23148e-12)
(7.96568e-12 4.22625e-12 -3.63996e-12)
(4.45676e-12 4.84874e-12 -2.41559e-12)
(3.72873e-12 2.4643e-12 -6.58017e-13)
(3.5188e-12 1.65655e-12 1.62576e-12)
(3.67163e-12 1.36596e-12 7.64238e-13)
(5.26809e-12 1.19391e-12 1.08234e-12)
(6.96488e-12 6.48843e-13 -6.16347e-13)
(7.89686e-12 1.91541e-12 -2.36805e-12)
(8.63426e-12 2.16789e-12 -4.4585e-12)
(7.13982e-12 1.95589e-12 -6.98218e-12)
(8.19973e-12 2.64149e-12 -9.19788e-12)
(9.26936e-12 2.83191e-12 -9.8932e-12)
(9.84014e-12 2.11843e-12 -9.81256e-12)
(9.78238e-12 2.29104e-12 -1.00142e-11)
(9.57583e-12 3.50644e-12 -9.7309e-12)
(8.75025e-12 4.25918e-12 -1.10606e-11)
(7.41871e-12 4.83983e-12 -1.34381e-11)
(7.29844e-12 5.43264e-12 -1.59097e-11)
(7.03857e-12 5.71569e-12 -1.68641e-11)
(5.89958e-12 5.87926e-12 -1.64695e-11)
(4.80145e-12 5.84275e-12 -1.7936e-11)
(4.14447e-12 4.82259e-12 -1.79402e-11)
(4.81811e-12 3.96327e-12 -1.67287e-11)
(6.13355e-12 3.5165e-12 -1.63245e-11)
(5.18009e-12 3.57723e-12 -1.61912e-11)
(4.40359e-12 2.85691e-12 -1.42455e-11)
(4.25462e-12 3.75064e-12 -1.19251e-11)
(2.14771e-12 2.94598e-12 -1.05107e-11)
(2.20324e-12 9.09428e-13 -1.02267e-11)
(5.11457e-12 -1.03973e-12 -9.63888e-12)
(6.90775e-12 -2.99244e-12 -6.62262e-12)
(6.06804e-12 -1.78273e-12 -2.7661e-12)
(7.11248e-12 -3.08328e-12 1.49674e-12)
(8.83817e-12 -1.39832e-12 2.89393e-12)
(1.09473e-11 3.36773e-13 4.97614e-12)
(1.19949e-11 1.30396e-12 6.91174e-12)
(1.04933e-11 1.94462e-12 5.35249e-12)
(9.61127e-12 2.70028e-12 3.94601e-12)
(1.02423e-11 2.44953e-12 2.11515e-12)
(8.49116e-12 2.06741e-12 -3.85419e-13)
(8.15581e-12 1.80001e-12 -2.30996e-12)
(8.07475e-12 1.18785e-12 -2.82944e-12)
(7.36396e-12 1.47619e-12 -3.20763e-12)
(7.96751e-12 2.27601e-12 -5.74253e-12)
(8.90302e-12 2.59218e-12 -9.9136e-12)
(7.90795e-12 4.52086e-12 -1.20427e-11)
(4.94181e-12 6.44957e-12 -1.31158e-11)
(1.93327e-12 6.37638e-12 -1.45373e-11)
(-1.97329e-12 8.70871e-12 -1.59073e-11)
(-8.24599e-12 7.56748e-12 -1.44835e-11)
(-1.23247e-11 3.95636e-12 -1.40506e-11)
(-1.28118e-11 7.84047e-13 -1.34147e-11)
(-1.10844e-11 2.83749e-13 -1.20679e-11)
(-1.26061e-11 4.88028e-13 -1.06671e-11)
(-1.43863e-11 -7.59484e-13 -1.01621e-11)
(-1.40512e-11 -2.06098e-12 -9.00352e-12)
(-1.25707e-11 -3.39178e-12 -6.82808e-12)
(-9.67294e-12 -3.79968e-12 -5.36793e-12)
(-9.402e-12 -3.28289e-12 -2.87717e-12)
(-8.5704e-12 -3.52579e-12 -7.50442e-13)
(-7.61869e-12 -2.70038e-12 -6.00118e-14)
(-7.35968e-12 -2.35932e-12 -6.27146e-13)
(-6.24072e-12 -3.41789e-12 -1.88803e-12)
(-2.86018e-12 -2.96985e-12 -2.88207e-12)
(-8.08815e-13 -1.47732e-12 -2.87268e-12)
(-2.21856e-12 -6.46175e-13 -3.76052e-12)
(-3.50457e-12 -7.7714e-13 -3.3392e-12)
(-4.03823e-12 -7.58908e-13 -3.62871e-12)
(-3.12465e-12 -2.33263e-12 -3.46324e-12)
(-6.44147e-13 -3.35494e-12 -3.08547e-12)
(7.17888e-13 -1.84109e-12 -2.75549e-12)
(-1.8597e-13 8.02055e-13 -2.80303e-12)
(-2.51133e-12 2.0177e-12 -5.54231e-12)
(-3.73354e-12 2.56595e-12 -8.69996e-12)
(-3.52291e-12 1.18401e-12 -8.57287e-12)
(-1.43961e-12 1.32138e-12 -7.84475e-12)
(-1.05096e-12 2.50653e-12 -5.48178e-12)
(-2.47969e-12 4.1104e-12 -3.87774e-12)
(-3.98495e-12 3.95619e-12 -2.32724e-12)
(-4.8516e-12 2.37433e-12 -1.21356e-12)
(-3.93501e-12 2.91273e-13 -5.86466e-13)
(-2.69728e-12 3.05609e-13 1.21075e-12)
(-1.8063e-12 1.22314e-13 1.31701e-12)
(-3.89543e-12 7.65031e-13 7.56629e-13)
(-5.92799e-12 -1.33263e-13 -3.21129e-13)
(-5.03033e-12 -1.32013e-12 -1.83896e-12)
(-4.46024e-12 -2.19477e-12 -3.73392e-12)
(-2.54696e-12 -2.97105e-12 -4.25034e-12)
(-1.22533e-13 -1.416e-12 -6.17368e-12)
(4.94174e-15 1.49303e-12 -8.43048e-12)
(-2.70254e-13 2.39038e-12 -1.12476e-11)
(-1.41644e-12 1.91694e-12 -1.09948e-11)
(-1.83684e-12 4.31123e-13 -1.01685e-11)
(-8.88805e-14 -6.51994e-13 -8.48136e-12)
(6.45308e-13 -1.56065e-12 -8.72992e-12)
(2.47116e-12 -1.58965e-12 -7.87686e-12)
(4.04936e-12 -4.85979e-13 -7.45585e-12)
(2.50681e-12 3.22932e-13 -6.63169e-12)
(-3.94527e-15 1.85002e-13 -6.05774e-12)
(-9.04746e-13 1.94383e-13 -3.22925e-12)
(-1.72218e-12 -4.71088e-13 -1.25018e-12)
(-1.22957e-12 -2.32208e-12 4.60965e-13)
(7.43853e-13 -3.17422e-12 2.03817e-12)
(2.67685e-12 -3.48564e-12 3.59819e-12)
(1.97157e-12 -2.67409e-12 2.74243e-12)
(-4.84805e-13 -3.1707e-12 2.28136e-12)
(7.37908e-13 -5.17871e-12 9.37605e-13)
(2.465e-12 -5.83456e-12 -1.0262e-12)
(3.29619e-12 -5.37273e-12 -6.26259e-13)
(2.68639e-12 -4.32386e-12 2.15703e-13)
(2.41997e-12 -3.38663e-12 -3.93067e-13)
(3.06438e-12 -2.28733e-12 1.14765e-13)
(3.4808e-12 -2.00161e-12 -1.54837e-12)
(5.25008e-12 -1.90654e-12 -2.86567e-12)
(5.26332e-12 -6.01759e-13 -4.07989e-12)
(3.5503e-12 5.69352e-14 -4.35583e-12)
(317.762 4.52133e-05 -1.46034e-05)
(317.762 4.70181e-05 -1.54706e-05)
(317.761 4.53734e-05 -1.44298e-05)
(317.76 4.24404e-05 -1.03839e-05)
(317.754 3.8532e-05 -4.40511e-06)
(317.716 3.37172e-05 4.68899e-08)
(317.471 3.63758e-05 -2.19783e-07)
(315.93 4.95162e-05 -5.14614e-06)
(306.537 7.21664e-05 -1.20516e-05)
(258.135 8.87482e-05 -1.51464e-05)
(116.752 4.81569e-05 -7.10631e-06)
(9.10274 3.68641e-06 -4.98206e-07)
(0.0595513 2.20352e-08 -3.10099e-09)
(2.45486e-05 8.5631e-12 -2.31929e-12)
(7.65318e-10 1.00269e-12 -8.10783e-13)
(1.57451e-11 6.42007e-13 -1.99229e-12)
(1.66714e-11 8.28023e-13 -2.16731e-12)
(1.77881e-11 8.09954e-13 -2.62335e-12)
(1.7114e-11 2.21565e-12 -4.39395e-12)
(1.53077e-11 2.11785e-12 -7.42966e-12)
(1.43678e-11 2.30989e-12 -1.05044e-11)
(1.15003e-11 2.95236e-12 -1.12183e-11)
(8.1696e-12 4.18159e-12 -1.08952e-11)
(4.75513e-12 3.25318e-12 -1.30614e-11)
(9.03366e-13 2.64334e-12 -1.60116e-11)
(-3.18815e-12 2.59988e-12 -1.5971e-11)
(-6.44562e-12 3.30089e-12 -1.55154e-11)
(-9.84013e-12 3.12988e-12 -1.57567e-11)
(-1.39524e-11 2.43198e-12 -1.71379e-11)
(-1.6279e-11 1.0201e-12 -1.77438e-11)
(-1.57559e-11 7.26813e-13 -1.66242e-11)
(-1.54589e-11 8.66532e-13 -1.66746e-11)
(-1.55164e-11 4.15885e-13 -1.63562e-11)
(-1.5861e-11 1.04384e-12 -1.57338e-11)
(-1.71791e-11 2.22868e-14 -1.52336e-11)
(-1.82903e-11 -9.11953e-13 -1.44042e-11)
(-1.77007e-11 -2.11411e-13 -1.39484e-11)
(-1.64321e-11 -8.52198e-13 -1.36315e-11)
(-1.61412e-11 -1.20585e-12 -1.25966e-11)
(-1.58646e-11 -3.61234e-12 -1.29093e-11)
(-1.44088e-11 -4.13715e-12 -1.14525e-11)
(-1.23211e-11 -2.89939e-12 -9.01243e-12)
(-8.18655e-12 -3.0512e-12 -7.55675e-12)
(-4.89573e-12 -9.46215e-13 -6.99059e-12)
(-3.16957e-12 7.43656e-13 -5.57868e-12)
(-5.13592e-13 1.11052e-12 -3.49542e-12)
(1.10583e-12 1.09507e-12 -1.24817e-12)
(9.93794e-13 2.14516e-12 -1.01513e-12)
(1.96285e-12 2.85064e-12 -8.11027e-13)
(3.39399e-12 3.40787e-12 -1.93151e-12)
(4.43394e-12 3.89021e-12 -2.67848e-12)
(5.43134e-12 3.21715e-12 -2.33164e-12)
(7.34553e-12 2.93002e-12 -1.73705e-12)
(8.84174e-12 1.41957e-12 -1.69209e-12)
(8.289e-12 1.27642e-12 -1.79819e-12)
(9.17171e-12 2.64437e-13 -3.50677e-12)
(1.07156e-11 2.07752e-13 -4.36303e-12)
(9.43672e-12 8.34027e-13 -3.94178e-12)
(8.77918e-12 1.72044e-12 -1.86843e-12)
(9.73594e-12 2.28902e-12 2.22429e-13)
(7.43279e-12 4.02899e-12 6.38585e-13)
(4.20235e-12 6.18599e-12 2.55325e-12)
(1.10347e-12 5.24228e-12 4.87841e-12)
(-2.5631e-12 4.39258e-12 4.51248e-12)
(-3.54283e-12 3.13147e-12 6.10103e-12)
(-4.60643e-12 1.92891e-12 6.59943e-12)
(-6.43561e-12 9.53223e-13 5.95481e-12)
(-7.54696e-12 2.22436e-12 5.68038e-12)
(-9.8751e-12 2.17851e-12 4.51444e-12)
(-1.24886e-11 9.9303e-13 2.45474e-12)
(-1.3495e-11 3.18929e-13 1.5075e-12)
(-1.31419e-11 -1.90323e-12 2.70717e-12)
(-1.24602e-11 -4.9381e-12 2.89472e-12)
(-1.04805e-11 -5.34898e-12 3.37709e-12)
(-9.81485e-12 -4.81293e-12 5.02302e-12)
(-7.88143e-12 -4.70239e-12 5.16996e-12)
(-6.01742e-12 -4.18254e-12 5.52658e-12)
(-6.32442e-12 -2.8006e-12 8.142e-12)
(-7.11501e-12 -6.19011e-13 1.06376e-11)
(-6.95616e-12 -4.96637e-13 1.30339e-11)
(-6.42606e-12 5.56304e-13 1.36947e-11)
(-4.76954e-12 1.46491e-12 1.37828e-11)
(-3.93406e-12 1.64633e-12 1.26174e-11)
(-3.35087e-12 9.53676e-13 1.06581e-11)
(-2.28464e-12 1.4908e-12 8.61905e-12)
(-4.24317e-12 2.22672e-12 7.21558e-12)
(-5.31356e-12 9.92132e-13 7.55044e-12)
(-4.8617e-12 -3.93793e-13 8.32475e-12)
(-6.04035e-12 -3.92207e-13 8.44183e-12)
(-7.36628e-12 -1.29578e-12 9.87622e-12)
(-7.1094e-12 9.46775e-13 1.15441e-11)
(-7.19684e-12 -1.13688e-13 1.4224e-11)
(-7.47754e-12 1.30183e-12 1.60131e-11)
(-6.15164e-12 1.97169e-12 1.1664e-11)
(-6.16595e-12 3.57612e-12 6.18259e-12)
(-7.74831e-12 3.927e-12 5.49359e-12)
(-7.70992e-12 3.37547e-12 4.75479e-12)
(-6.16252e-12 4.14514e-12 4.42239e-12)
(-6.45844e-12 3.27799e-12 4.10335e-12)
(-7.28076e-12 1.44976e-12 4.6901e-12)
(-6.17229e-12 -2.21665e-13 4.75293e-12)
(-4.7014e-12 -1.80203e-12 5.19257e-12)
(-3.42038e-12 -1.8018e-12 4.68076e-12)
(-2.95443e-12 -3.18574e-14 4.42408e-12)
(-2.83228e-12 2.01372e-13 3.50841e-12)
(-2.01839e-12 6.37854e-13 3.09861e-12)
(2.60981e-13 6.52283e-13 3.11059e-12)
(1.56597e-12 -3.35446e-13 1.41969e-12)
(3.37874e-12 7.44803e-13 -3.19291e-13)
(5.12618e-12 1.50852e-12 -1.75368e-12)
(5.5066e-12 2.58164e-12 -2.30367e-12)
(5.9742e-12 1.85367e-12 -3.77774e-12)
(6.47216e-12 1.58094e-12 -4.79183e-12)
(7.4707e-12 2.5079e-12 -5.15845e-12)
(8.2501e-12 2.93473e-12 -4.51719e-12)
(7.07695e-12 5.08923e-12 -3.74751e-12)
(5.34412e-12 5.00427e-12 -2.59907e-12)
(5.25881e-12 3.16859e-12 -6.79621e-13)
(3.92212e-12 1.71934e-12 4.92016e-13)
(3.63722e-12 1.26159e-12 -8.15025e-14)
(5.58797e-12 1.27578e-12 -5.01114e-14)
(6.98476e-12 1.06777e-12 -3.88269e-13)
(7.46915e-12 2.0407e-12 -2.30541e-12)
(9.00682e-12 2.04648e-12 -3.3498e-12)
(7.38832e-12 2.4858e-12 -6.45758e-12)
(7.38877e-12 2.18331e-12 -9.2474e-12)
(9.75767e-12 2.56367e-12 -1.00738e-11)
(1.01967e-11 2.42872e-12 -9.29896e-12)
(8.65537e-12 2.55645e-12 -8.69626e-12)
(8.75439e-12 3.58418e-12 -8.88431e-12)
(8.7032e-12 3.91643e-12 -1.11478e-11)
(7.43675e-12 4.7783e-12 -1.22861e-11)
(8.38247e-12 5.09857e-12 -1.53402e-11)
(7.79705e-12 5.83358e-12 -1.73505e-11)
(5.60788e-12 5.49871e-12 -1.78877e-11)
(4.1397e-12 6.0434e-12 -1.88193e-11)
(4.07215e-12 5.77687e-12 -1.73416e-11)
(5.20829e-12 4.71101e-12 -1.582e-11)
(5.80943e-12 3.7034e-12 -1.71892e-11)
(4.7785e-12 4.14012e-12 -1.6323e-11)
(3.92702e-12 2.67479e-12 -1.48255e-11)
(3.90893e-12 3.03415e-12 -1.22801e-11)
(2.60146e-12 2.33189e-12 -1.00086e-11)
(2.91128e-12 2.96413e-13 -1.02112e-11)
(5.88558e-12 -4.06528e-13 -9.75681e-12)
(6.06382e-12 -1.53973e-12 -6.77763e-12)
(6.45717e-12 -2.54636e-13 -2.92336e-12)
(8.29491e-12 -1.26639e-12 4.02077e-13)
(8.13202e-12 2.30688e-13 2.01497e-12)
(9.86371e-12 7.50549e-13 3.64437e-12)
(1.10901e-11 2.37977e-12 4.39465e-12)
(9.94904e-12 2.63158e-12 3.9437e-12)
(9.83274e-12 2.27205e-12 2.70429e-12)
(1.02593e-11 2.30738e-12 2.55225e-12)
(8.94042e-12 1.41495e-12 7.58357e-14)
(8.94683e-12 8.90257e-13 -2.05509e-12)
(8.33735e-12 1.3759e-12 -2.78464e-12)
(7.09504e-12 1.70614e-12 -2.78574e-12)
(7.71649e-12 1.64662e-12 -5.37291e-12)
(9.22498e-12 3.59383e-12 -8.90537e-12)
(7.88202e-12 4.37415e-12 -1.31304e-11)
(4.63336e-12 6.17412e-12 -1.29983e-11)
(8.74786e-13 6.14219e-12 -1.43675e-11)
(-2.95454e-12 8.55137e-12 -1.64038e-11)
(-7.68482e-12 7.07653e-12 -1.47104e-11)
(-1.09978e-11 4.14775e-12 -1.41174e-11)
(-1.20418e-11 1.57483e-13 -1.4329e-11)
(-1.15473e-11 -3.45197e-13 -1.17928e-11)
(-1.28747e-11 -1.47714e-13 -9.16939e-12)
(-1.38214e-11 -1.29652e-12 -8.1265e-12)
(-1.31757e-11 -1.02089e-12 -8.24387e-12)
(-1.15475e-11 -2.40433e-12 -7.32746e-12)
(-9.35762e-12 -1.89227e-12 -5.27311e-12)
(-9.01147e-12 -1.3765e-12 -3.06368e-12)
(-9.07991e-12 -2.06358e-12 -1.56802e-12)
(-8.33831e-12 -2.03936e-12 -6.01712e-13)
(-6.84395e-12 -1.75142e-12 -8.4309e-13)
(-5.88195e-12 -2.15534e-12 -2.11295e-12)
(-3.64887e-12 -2.06475e-12 -2.93966e-12)
(-1.65074e-12 -7.42272e-13 -3.06196e-12)
(-2.24248e-12 3.35603e-13 -3.34466e-12)
(-3.40506e-12 -4.17944e-14 -3.2883e-12)
(-3.39309e-12 -4.72056e-13 -3.6485e-12)
(-1.49988e-12 -1.79801e-12 -3.58568e-12)
(-2.94692e-13 -3.46309e-12 -3.68095e-12)
(-7.9759e-13 -2.28233e-12 -3.04789e-12)
(-1.10809e-12 8.00191e-14 -2.71815e-12)
(-2.48587e-12 2.02413e-12 -4.62763e-12)
(-2.60133e-12 2.2259e-12 -6.66624e-12)
(-2.31486e-12 1.39991e-12 -7.89622e-12)
(-2.32343e-12 1.34598e-12 -8.33163e-12)
(-2.40036e-12 2.75914e-12 -5.86054e-12)
(-3.81426e-12 3.7398e-12 -3.93134e-12)
(-3.35997e-12 3.35865e-12 -2.44873e-12)
(-3.17076e-12 2.17698e-12 -1.23356e-12)
(-3.36623e-12 5.65932e-13 -8.63368e-13)
(-2.81878e-12 3.1491e-13 5.78598e-13)
(-2.69635e-12 1.05089e-12 1.15723e-12)
(-3.9299e-12 1.93389e-12 7.46569e-13)
(-5.07614e-12 1.09269e-12 -6.24975e-13)
(-5.3505e-12 -1.52914e-13 -2.14769e-12)
(-4.29895e-12 -1.31763e-12 -3.90961e-12)
(-2.86245e-12 -2.06791e-12 -5.19861e-12)
(-1.4183e-12 -6.2821e-13 -6.41607e-12)
(-1.13346e-12 1.66396e-12 -8.61061e-12)
(-3.35074e-13 2.66541e-12 -9.81065e-12)
(-5.68055e-13 2.36882e-12 -1.03392e-11)
(-1.02178e-12 1.14163e-12 -1.00155e-11)
(-2.13124e-13 2.36162e-13 -8.58989e-12)
(9.19799e-14 -7.94015e-13 -8.37563e-12)
(1.62617e-12 -5.27233e-13 -7.26504e-12)
(3.42417e-12 3.41289e-13 -7.13535e-12)
(2.73597e-12 1.14714e-12 -6.46383e-12)
(1.27904e-13 1.25514e-12 -5.26718e-12)
(-8.64451e-13 8.42774e-13 -2.80846e-12)
(-8.75811e-13 -2.21165e-13 -8.06076e-13)
(-1.75241e-13 -1.61171e-12 8.29157e-13)
(9.50992e-13 -3.05779e-12 1.69654e-12)
(1.9463e-12 -3.17119e-12 2.96978e-12)
(1.43733e-12 -1.69618e-12 2.80825e-12)
(1.20527e-12 -2.88702e-12 2.57639e-12)
(2.13809e-12 -5.60587e-12 1.48804e-12)
(2.05523e-12 -6.14162e-12 2.90654e-13)
(2.48974e-12 -4.92061e-12 -7.61872e-13)
(2.46217e-12 -4.31812e-12 -2.77045e-13)
(1.78023e-12 -3.38508e-12 -4.085e-13)
(2.68961e-12 -2.30409e-12 -6.66157e-13)
(4.38356e-12 -1.4487e-12 -1.44984e-12)
(5.72304e-12 -9.96679e-13 -2.43474e-12)
(4.75349e-12 -1.58304e-13 -3.86878e-12)
(3.35602e-12 2.62683e-13 -5.18849e-12)
(317.762 6.59937e-05 -1.361e-05)
(317.762 7.52968e-05 -1.27314e-05)
(317.761 7.6912e-05 -1.05933e-05)
(317.76 7.11779e-05 -7.18805e-06)
(317.754 5.90757e-05 -3.61449e-06)
(317.716 4.97938e-05 -1.27932e-06)
(317.471 4.62159e-05 -1.34935e-06)
(315.93 4.96606e-05 -4.23142e-06)
(306.537 5.29078e-05 -6.42696e-06)
(258.135 3.66799e-05 -3.78305e-06)
(116.752 1.16853e-05 -9.52492e-07)
(9.10274 6.62949e-07 -5.30203e-08)
(0.0595514 3.34375e-09 -3.26577e-10)
(2.45486e-05 1.48409e-12 -3.23161e-12)
(7.66756e-10 1.60454e-12 -2.63796e-12)
(1.5713e-11 1.36452e-12 -5.06449e-12)
(1.65359e-11 1.41127e-12 -3.66688e-12)
(1.7676e-11 1.71088e-12 -3.38126e-12)
(1.73643e-11 2.45091e-12 -4.19592e-12)
(1.65219e-11 2.05342e-12 -6.08003e-12)
(1.52269e-11 2.99969e-12 -8.53937e-12)
(1.18285e-11 3.52306e-12 -9.88335e-12)
(8.03079e-12 3.83585e-12 -1.02158e-11)
(4.62195e-12 3.74692e-12 -1.21049e-11)
(1.01659e-12 3.23369e-12 -1.4345e-11)
(-3.07799e-12 2.45076e-12 -1.44885e-11)
(-6.83945e-12 3.17806e-12 -1.42768e-11)
(-1.01411e-11 3.0994e-12 -1.39434e-11)
(-1.33457e-11 3.35967e-12 -1.48709e-11)
(-1.55113e-11 3.03388e-12 -1.46473e-11)
(-1.67188e-11 1.79238e-12 -1.38854e-11)
(-1.62885e-11 1.17803e-12 -1.42124e-11)
(-1.57934e-11 6.63133e-13 -1.42709e-11)
(-1.65865e-11 5.92199e-13 -1.44082e-11)
(-1.6922e-11 5.08323e-13 -1.44545e-11)
(-1.83145e-11 -2.94696e-13 -1.40652e-11)
(-1.84518e-11 -8.40535e-13 -1.35486e-11)
(-1.70113e-11 -9.04243e-13 -1.33315e-11)
(-1.57861e-11 -7.4716e-13 -1.1535e-11)
(-1.54969e-11 -1.44136e-12 -1.37862e-11)
(-1.45983e-11 -1.83508e-12 -1.11488e-11)
(-1.21614e-11 -2.66614e-12 -7.82907e-12)
(-9.08813e-12 -3.00799e-12 -8.39823e-12)
(-6.22432e-12 -2.24928e-12 -6.6797e-12)
(-3.53277e-12 -2.16512e-13 -5.6721e-12)
(-7.06797e-13 8.3903e-13 -3.44704e-12)
(1.05715e-13 1.92966e-12 -9.8206e-14)
(4.38017e-13 3.49462e-12 -2.36295e-13)
(2.02142e-12 3.4391e-12 -6.83236e-13)
(3.55499e-12 3.7513e-12 -2.03384e-12)
(5.1649e-12 3.12202e-12 -3.14097e-12)
(6.17316e-12 2.94786e-12 -3.78362e-12)
(7.99078e-12 2.08884e-12 -3.58008e-12)
(8.93214e-12 2.1857e-12 -5.0909e-12)
(9.29819e-12 2.05715e-12 -3.91688e-12)
(1.00319e-11 7.79248e-13 -4.21376e-12)
(1.03606e-11 1.30414e-12 -4.67249e-12)
(1.02331e-11 1.23861e-12 -2.73826e-12)
(9.59586e-12 6.76454e-13 -1.52727e-12)
(9.04131e-12 1.56714e-12 -1.65832e-12)
(6.84405e-12 3.116e-12 -7.90636e-13)
(4.44158e-12 3.53178e-12 2.26898e-12)
(9.48417e-13 3.36581e-12 4.67317e-12)
(-1.92298e-12 2.96289e-12 6.14274e-12)
(-3.39475e-12 1.57171e-12 6.09405e-12)
(-4.43871e-12 1.81698e-12 6.23561e-12)
(-5.81176e-12 1.168e-12 4.77753e-12)
(-8.99085e-12 1.28374e-12 5.31892e-12)
(-1.12859e-11 1.7583e-12 4.07403e-12)
(-1.29085e-11 9.98595e-13 2.77072e-12)
(-1.28154e-11 -6.05938e-13 2.41821e-12)
(-1.13854e-11 -1.01351e-12 2.95917e-12)
(-1.142e-11 -2.61149e-12 2.88459e-12)
(-1.07164e-11 -3.49615e-12 2.02355e-12)
(-9.40796e-12 -3.52719e-12 3.11641e-12)
(-7.8717e-12 -3.66479e-12 2.74632e-12)
(-7.05593e-12 -2.34821e-12 5.25271e-12)
(-6.77854e-12 -1.45778e-12 8.92675e-12)
(-7.11437e-12 4.15878e-13 1.02691e-11)
(-7.23505e-12 5.90694e-13 1.2065e-11)
(-6.59044e-12 1.3479e-12 1.30321e-11)
(-4.57413e-12 1.1025e-12 1.30009e-11)
(-3.13518e-12 2.17548e-12 1.31494e-11)
(-3.08236e-12 1.00464e-12 1.17567e-11)
(-3.3981e-12 2.70819e-12 1.01624e-11)
(-4.32977e-12 2.49791e-12 9.0666e-12)
(-3.80429e-12 1.11061e-12 9.06378e-12)
(-3.9179e-12 -2.3868e-13 8.50893e-12)
(-5.96037e-12 -4.58706e-13 9.11248e-12)
(-7.91516e-12 6.70457e-15 9.80465e-12)
(-7.64276e-12 -2.66017e-13 1.0179e-11)
(-7.91165e-12 1.10481e-12 1.07987e-11)
(-8.92584e-12 1.27214e-12 1.10139e-11)
(-7.67799e-12 2.13282e-12 9.06601e-12)
(-7.27283e-12 3.04605e-12 6.30692e-12)
(-7.1574e-12 3.76454e-12 5.42053e-12)
(-7.58091e-12 3.21171e-12 4.7872e-12)
(-6.99275e-12 2.98875e-12 4.29181e-12)
(-6.07476e-12 2.16681e-12 4.66399e-12)
(-6.43529e-12 1.21407e-12 5.64693e-12)
(-5.95429e-12 7.98305e-13 4.74359e-12)
(-4.91321e-12 1.1546e-13 4.59268e-12)
(-4.36879e-12 2.0828e-13 4.25121e-12)
(-4.35544e-12 7.43983e-14 3.66879e-12)
(-3.69183e-12 7.15626e-13 3.35081e-12)
(-1.86143e-12 -5.97776e-14 2.98835e-12)
(8.48928e-13 -6.47332e-13 3.07769e-12)
(2.3184e-12 5.24491e-13 1.46053e-12)
(3.66038e-12 2.67171e-13 -1.20542e-13)
(5.21144e-12 1.84604e-12 -1.05333e-12)
(6.09581e-12 2.16235e-12 -1.25302e-12)
(6.08676e-12 2.54481e-12 -3.64308e-12)
(6.50075e-12 2.20404e-12 -5.21084e-12)
(7.13383e-12 2.14088e-12 -4.39803e-12)
(7.35825e-12 3.25469e-12 -3.73865e-12)
(7.12825e-12 3.77371e-12 -2.88347e-12)
(6.33442e-12 3.04238e-12 -2.77834e-12)
(6.02015e-12 2.5717e-12 -2.22911e-12)
(5.63347e-12 1.73953e-12 -1.64199e-12)
(4.34897e-12 9.94433e-13 -1.6838e-12)
(5.57865e-12 5.14023e-13 -1.6659e-12)
(6.74954e-12 9.33538e-13 -1.16856e-12)
(7.92618e-12 7.8396e-13 -2.52785e-12)
(8.66291e-12 1.75346e-12 -4.68562e-12)
(7.82646e-12 2.43376e-12 -6.5357e-12)
(7.86055e-12 2.0667e-12 -8.72191e-12)
(8.97581e-12 2.0596e-12 -8.96895e-12)
(9.52855e-12 2.7087e-12 -7.47656e-12)
(8.9088e-12 3.29601e-12 -6.8734e-12)
(9.0373e-12 2.64336e-12 -7.74829e-12)
(8.36227e-12 3.29694e-12 -9.43121e-12)
(7.55667e-12 3.39349e-12 -1.2041e-11)
(7.88076e-12 4.41831e-12 -1.47066e-11)
(7.82839e-12 6.22081e-12 -1.59643e-11)
(5.73401e-12 6.20178e-12 -1.68141e-11)
(3.65755e-12 5.88826e-12 -1.6873e-11)
(4.05989e-12 5.04296e-12 -1.51224e-11)
(5.56895e-12 3.89e-12 -1.4664e-11)
(5.74272e-12 3.40194e-12 -1.606e-11)
(4.80959e-12 3.21465e-12 -1.56497e-11)
(5.03238e-12 2.11763e-12 -1.50492e-11)
(4.34296e-12 1.04232e-12 -1.22709e-11)
(2.62901e-12 5.5906e-13 -1.11672e-11)
(2.51262e-12 -9.05929e-13 -1.02616e-11)
(4.44388e-12 -7.60325e-13 -9.34411e-12)
(5.46884e-12 -4.44463e-13 -6.1643e-12)
(6.15619e-12 -1.94606e-13 -2.44509e-12)
(8.22452e-12 1.70011e-13 8.38429e-13)
(9.37835e-12 1.01886e-12 1.7078e-12)
(9.92029e-12 6.30822e-13 1.36558e-12)
(1.03526e-11 1.27363e-12 1.49508e-12)
(1.124e-11 1.17254e-12 1.20008e-12)
(1.10806e-11 -2.04193e-14 1.43156e-12)
(1.03773e-11 4.23635e-13 1.11957e-12)
(9.81271e-12 7.26046e-13 -1.91427e-12)
(8.48013e-12 9.63658e-14 -2.62396e-12)
(7.47264e-12 1.25444e-12 -2.89316e-12)
(7.74609e-12 1.60472e-12 -3.99787e-12)
(7.25751e-12 9.07864e-13 -5.48563e-12)
(7.49525e-12 3.74122e-12 -7.45299e-12)
(8.3459e-12 4.94608e-12 -1.00922e-11)
(4.46716e-12 6.47287e-12 -1.14559e-11)
(2.88965e-13 6.55291e-12 -1.30549e-11)
(-2.57988e-12 6.42821e-12 -1.64118e-11)
(-7.29772e-12 4.72265e-12 -1.51776e-11)
(-9.63456e-12 3.48558e-12 -1.3404e-11)
(-1.02486e-11 1.65234e-12 -1.27937e-11)
(-1.13672e-11 3.2864e-13 -1.12032e-11)
(-1.29067e-11 -9.48254e-13 -1.0369e-11)
(-1.48903e-11 -1.24129e-12 -7.84441e-12)
(-1.42572e-11 -9.5596e-13 -6.27401e-12)
(-1.17079e-11 -9.77494e-13 -5.84481e-12)
(-1.00766e-11 1.47576e-13 -4.70715e-12)
(-8.95903e-12 -9.02284e-14 -2.73925e-12)
(-7.7826e-12 1.97096e-15 -2.18222e-12)
(-7.38631e-12 -6.62165e-13 -1.31906e-12)
(-7.0551e-12 -8.0928e-13 -7.46748e-13)
(-6.11823e-12 -5.88713e-13 -2.39974e-12)
(-3.95084e-12 -1.35765e-12 -3.12826e-12)
(-2.6515e-12 -1.008e-12 -3.1348e-12)
(-2.61506e-12 -8.58617e-13 -3.15341e-12)
(-2.14551e-12 -1.00635e-12 -3.33399e-12)
(-2.19562e-12 -1.85233e-12 -4.02041e-12)
(-6.07261e-13 -2.32877e-12 -4.00826e-12)
(-7.23938e-14 -2.28655e-12 -4.73484e-12)
(-1.07277e-12 -1.25512e-12 -3.45796e-12)
(-2.46785e-12 3.25299e-13 -2.84752e-12)
(-2.89106e-12 1.8028e-12 -3.82715e-12)
(-2.5251e-12 1.14876e-12 -4.2643e-12)
(-2.51569e-12 2.02589e-12 -6.11408e-12)
(-2.42972e-12 1.92081e-12 -6.16208e-12)
(-2.96306e-12 2.34483e-12 -5.3041e-12)
(-3.01084e-12 2.14783e-12 -3.653e-12)
(-3.80136e-12 1.39826e-12 -2.5059e-12)
(-3.44133e-12 1.04014e-12 -1.655e-12)
(-3.42683e-12 1.27723e-12 -6.93725e-13)
(-3.2449e-12 9.14601e-13 6.63134e-13)
(-3.76735e-12 1.93972e-12 1.93553e-12)
(-4.53879e-12 2.08146e-12 9.45693e-13)
(-4.61144e-12 1.96547e-12 -7.4788e-13)
(-4.68996e-12 8.74701e-13 -2.40531e-12)
(-3.97222e-12 1.53434e-13 -4.01257e-12)
(-3.16453e-12 -3.8654e-13 -5.35588e-12)
(-2.26524e-12 -2.22836e-13 -6.56529e-12)
(-9.57957e-13 8.33082e-13 -7.76371e-12)
(-2.40025e-13 6.9375e-13 -8.83485e-12)
(-7.36907e-13 1.25087e-12 -9.18073e-12)
(-1.28263e-12 6.88821e-13 -9.15673e-12)
(9.71956e-14 7.21897e-13 -8.17034e-12)
(7.84737e-13 -4.52132e-13 -7.0669e-12)
(1.64929e-12 -4.78851e-13 -5.50946e-12)
(2.65906e-12 -8.09139e-13 -6.25223e-12)
(1.78458e-12 -1.70051e-13 -6.27893e-12)
(3.41463e-13 -1.07688e-13 -5.09654e-12)
(3.50476e-13 -1.31232e-13 -2.88638e-12)
(-4.16017e-13 -1.31619e-12 -4.48668e-13)
(4.84493e-13 -1.60271e-12 1.5613e-12)
(1.23103e-12 -2.94307e-12 2.9401e-12)
(1.10694e-12 -2.54394e-12 4.27126e-12)
(1.52589e-12 -1.64566e-12 4.38848e-12)
(3.13008e-12 -2.5971e-12 3.66157e-12)
(3.13911e-12 -3.13542e-12 1.98584e-12)
(1.64721e-12 -3.61749e-12 1.15814e-12)
(2.07376e-12 -3.25002e-12 4.00436e-13)
(2.19693e-12 -3.28557e-12 -2.06186e-13)
(1.60027e-12 -3.16738e-12 -4.20396e-13)
(2.41442e-12 -3.01062e-12 -5.38956e-13)
(3.78255e-12 -1.93315e-12 -2.94545e-13)
(5.64493e-12 -2.88303e-13 -4.62113e-13)
(5.46816e-12 7.77272e-13 -2.41579e-12)
(3.93913e-12 1.13403e-12 -2.72409e-12)
(317.762 7.89921e-05 -8.8331e-06)
(317.762 8.71075e-05 -8.68806e-06)
(317.761 8.41231e-05 -7.60978e-06)
(317.76 7.31948e-05 -5.70741e-06)
(317.754 5.85958e-05 -3.33268e-06)
(317.716 4.60333e-05 -1.33971e-06)
(317.471 3.98245e-05 -6.92672e-07)
(315.93 4.05275e-05 -1.29796e-06)
(306.537 4.32866e-05 -1.87624e-06)
(258.135 3.6964e-05 -1.37495e-06)
(116.752 1.52282e-05 -4.78482e-07)
(9.10275 8.91227e-07 -2.55033e-08)
(0.0595514 3.71779e-09 -1.17666e-10)
(2.45487e-05 1.45744e-12 -6.2166e-12)
(7.65794e-10 3.75383e-13 -4.51745e-12)
(1.66899e-11 1.06255e-12 -4.76554e-12)
(1.70187e-11 2.74897e-13 -3.88603e-12)
(1.78216e-11 8.65849e-13 -3.78981e-12)
(1.81709e-11 1.31619e-12 -4.37818e-12)
(1.67966e-11 9.62215e-13 -5.57169e-12)
(1.41911e-11 2.36195e-12 -7.44398e-12)
(1.09729e-11 3.45507e-12 -8.45512e-12)
(7.84261e-12 2.95949e-12 -8.93088e-12)
(4.48691e-12 3.68731e-12 -1.02524e-11)
(4.83354e-13 3.57572e-12 -1.17255e-11)
(-3.5324e-12 3.91183e-12 -1.25974e-11)
(-7.56888e-12 3.81736e-12 -1.35749e-11)
(-1.0685e-11 3.57895e-12 -1.23456e-11)
(-1.38199e-11 3.65189e-12 -1.20555e-11)
(-1.50279e-11 3.32099e-12 -1.18662e-11)
(-1.50855e-11 2.52455e-12 -1.16844e-11)
(-1.50756e-11 1.14813e-12 -1.23592e-11)
(-1.61095e-11 8.41823e-13 -1.30551e-11)
(-1.71918e-11 -1.73305e-13 -1.33951e-11)
(-1.73533e-11 -4.55682e-13 -1.37802e-11)
(-1.77299e-11 -3.09329e-13 -1.35653e-11)
(-1.77775e-11 -1.10033e-12 -1.29168e-11)
(-1.70392e-11 -1.74222e-12 -1.26416e-11)
(-1.59964e-11 -1.69941e-12 -1.16854e-11)
(-1.56419e-11 -1.6267e-12 -1.2748e-11)
(-1.44743e-11 -2.30426e-12 -1.06684e-11)
(-1.24258e-11 -2.94643e-12 -7.36723e-12)
(-9.16685e-12 -2.68593e-12 -7.01538e-12)
(-6.99908e-12 -3.21932e-12 -4.78197e-12)
(-4.90499e-12 -6.88731e-13 -4.09984e-12)
(-2.16611e-12 3.17231e-13 -2.59241e-12)
(-8.63388e-13 1.66637e-12 -2.00283e-13)
(5.86312e-13 2.19248e-12 3.19395e-13)
(2.20137e-12 2.20556e-12 -4.70307e-13)
(3.6936e-12 2.55437e-12 -2.25347e-12)
(5.42807e-12 1.98895e-12 -3.8779e-12)
(6.77641e-12 2.05769e-12 -4.29808e-12)
(8.0971e-12 1.43984e-12 -5.34102e-12)
(9.54636e-12 1.38211e-12 -5.1023e-12)