/*--------------------------------*- C++ -*----------------------------------*\
| =========                 |                                                 |
| \\      /  F ield         | OpenFOAM: The Open Source CFD Toolbox           |
|  \\    /   O peration     | Version:  2406                                  |
|   \\  /    A nd           | Website:  www.openfoam.com                      |
|    \\/     M anipulation  |                                                 |
\*---------------------------------------------------------------------------*/
FoamFile
{
    version     2.0;
    format      ascii;
    arch        "LSB;label=32;scalar=64";
    class       volScalarField;
    location    "0.008";
    object      Ma;
}
// * * * * * * * * * * * * * * * * * * * * * * * * * * * * * * * * * * * * * //

dimensions      [0 0 0 0 0 0 0];

internalField   nonuniform List<scalar> 
81000
(
0.00136331
0.0013631
0.00136277
0.0013623
0.00136178
0.00136127
0.00136083
0.00136049
0.00136026
0.00136013
0.00136008
0.00136006
0.00136007
0.00136011
0.00136021
0.00136042
0.00136074
0.00136119
0.00136175
0.0013624
0.00136311
0.00136383
0.00136454
0.0013652
0.00136578
0.00136628
0.0013667
0.00136703
0.0013673
0.00136749
0.00136762
0.00136768
0.00136773
0.00136779
0.00136788
0.001368
0.00136814
0.00136831
0.00136852
0.00136877
0.00136904
0.00136936
0.0013697
0.00137006
0.00137044
0.00137082
0.00137119
0.00137155
0.00137188
0.00137218
0.00137242
0.00137261
0.00137272
0.00137275
0.0013727
0.00137257
0.00137236
0.00137207
0.00137173
0.00137133
0.00137088
0.00137039
0.00136986
0.00136929
0.00136868
0.00136801
0.00136728
0.00136647
0.00136557
0.00136456
0.00136339
0.00136205
0.0013605
0.00135872
0.0013567
0.00135445
0.001352
0.00134938
0.00134662
0.00134379
0.00134095
0.00133819
0.00133559
0.00133322
0.00133114
0.00132939
0.00132799
0.00132693
0.00132622
0.00132581
0.00132564
0.00132559
0.00132561
0.00132573
0.00132603
0.00132658
0.00132731
0.00132805
0.00132861
0.00132891
0.00382335
0.00382305
0.0038229
0.00382251
0.00382187
0.00382107
0.00382032
0.00381978
0.00381949
0.00381939
0.00381939
0.00381946
0.00381962
0.00381985
0.00382016
0.00382055
0.003821
0.0038215
0.00382204
0.0038226
0.00382313
0.00382364
0.00382409
0.00382448
0.0038248
0.00382506
0.00382526
0.0038254
0.00382547
0.0038255
0.00382551
0.00382554
0.00382558
0.00382564
0.00382571
0.00382579
0.00382586
0.00382593
0.003826
0.00382607
0.00382615
0.00382625
0.00382635
0.00382645
0.00382655
0.00382663
0.00382668
0.00382668
0.00382662
0.0038265
0.00382631
0.00382604
0.00382569
0.00382527
0.00382478
0.00382423
0.00382362
0.00382297
0.00382228
0.00382158
0.00382089
0.00382022
0.00381959
0.00381901
0.0038185
0.00381804
0.00381761
0.0038172
0.00381681
0.00381644
0.00381608
0.0038157
0.00381529
0.00381481
0.00381428
0.0038137
0.00381311
0.00381255
0.00381207
0.0038117
0.00381144
0.0038113
0.00381128
0.00381137
0.00381156
0.00381188
0.00381232
0.00381292
0.00381371
0.00381477
0.00381615
0.00381795
0.00382023
0.00382296
0.00382602
0.00382919
0.00383212
0.00383445
0.00383594
0.00383681
0.0045325
0.00453167
0.00453113
0.00453041
0.0045296
0.00452872
0.00452782
0.00452698
0.00452631
0.00452587
0.00452565
0.00452558
0.00452558
0.00452564
0.00452586
0.00452628
0.00452688
0.00452761
0.00452841
0.00452925
0.00453008
0.00453089
0.00453164
0.00453231
0.00453287
0.0045333
0.0045336
0.00453378
0.00453387
0.0045339
0.00453388
0.00453382
0.00453371
0.00453355
0.00453333
0.00453306
0.00453275
0.00453242
0.00453208
0.00453177
0.00453147
0.00453112
0.00453068
0.00453017
0.00452957
0.00452889
0.00452812
0.00452728
0.00452638
0.00452547
0.00452457
0.00452375
0.00452305
0.00452252
0.00452218
0.00452208
0.00452224
0.0045227
0.00452344
0.00452446
0.00452573
0.00452722
0.00452891
0.0045308
0.00453285
0.00453503
0.00453728
0.0045396
0.00454193
0.00454425
0.00454654
0.00454879
0.00455101
0.00455324
0.00455551
0.0045579
0.00456046
0.00456331
0.00456652
0.00457022
0.00457446
0.00457929
0.00458471
0.00459074
0.00459728
0.00460428
0.00461164
0.00461924
0.00462688
0.00463447
0.00464191
0.00464916
0.00465613
0.00466268
0.00466859
0.00467361
0.00467741
0.00467985
0.00468105
0.00468205
0.0068487
0.00686887
0.0068689
0.00686886
0.00686869
0.00686841
0.00686803
0.00686774
0.00686755
0.0068675
0.0068675
0.00686752
0.00686757
0.00686764
0.00686772
0.00686784
0.00686796
0.00686812
0.00686828
0.00686846
0.00686862
0.00686878
0.0068689
0.00686899
0.00686906
0.0068691
0.00686912
0.00686913
0.00686913
0.00686909
0.00686898
0.00686882
0.00686859
0.00686832
0.00686801
0.00686767
0.00686732
0.00686696
0.00686661
0.0068663
0.00686599
0.00686568
0.00686534
0.00686499
0.00686464
0.00686432
0.00686403
0.00686381
0.00686366
0.00686362
0.00686371
0.00686397
0.00686442
0.00686508
0.00686592
0.00686694
0.00686812
0.00686946
0.00687097
0.00687263
0.00687443
0.00687633
0.00687829
0.00688028
0.00688225
0.00688416
0.006886
0.00688773
0.00688937
0.00689092
0.00689239
0.0068938
0.00689518
0.00689654
0.00689792
0.00689932
0.00690073
0.00690216
0.00690365
0.00690519
0.00690681
0.00690851
0.00691032
0.00691224
0.00691423
0.00691624
0.00691821
0.00692012
0.00692192
0.00692359
0.00692516
0.00692664
0.00692822
0.00692967
0.00693181
0.00693427
0.00693702
0.0069396
0.00694138
0.00694274
0.0125601
0.0125764
0.0125764
0.0125764
0.0125763
0.0125761
0.0125759
0.0125756
0.0125753
0.0125751
0.0125748
0.0125746
0.0125744
0.0125742
0.012574
0.0125738
0.0125737
0.0125735
0.0125734
0.0125732
0.0125731
0.012573
0.0125729
0.0125728
0.0125727
0.0125725
0.0125724
0.0125723
0.0125722
0.0125721
0.0125719
0.0125718
0.0125717
0.0125715
0.0125714
0.0125713
0.0125712
0.0125712
0.0125711
0.0125711
0.0125711
0.0125712
0.0125712
0.0125714
0.0125716
0.0125719
0.0125722
0.0125727
0.0125732
0.0125737
0.0125742
0.0125748
0.0125753
0.0125758
0.0125762
0.0125764
0.0125765
0.0125763
0.0125759
0.0125752
0.0125742
0.0125729
0.0125713
0.0125695
0.0125676
0.0125656
0.0125636
0.0125617
0.01256
0.0125586
0.0125576
0.0125569
0.0125565
0.0125565
0.0125569
0.0125576
0.0125585
0.0125595
0.0125607
0.0125619
0.0125632
0.0125645
0.0125658
0.0125671
0.0125684
0.0125695
0.0125705
0.0125715
0.0125725
0.0125734
0.0125743
0.0125751
0.0125759
0.0125767
0.0125778
0.0125788
0.0125803
0.012582
0.0125837
0.0125865
0.0240661
0.024086
0.0240861
0.0240861
0.0240861
0.024086
0.024086
0.0240859
0.0240859
0.0240858
0.0240857
0.0240857
0.0240856
0.0240856
0.0240855
0.0240855
0.0240855
0.0240855
0.0240854
0.0240854
0.0240853
0.0240852
0.0240851
0.0240849
0.0240848
0.0240846
0.0240844
0.0240842
0.0240839
0.0240837
0.0240834
0.0240831
0.0240828
0.0240825
0.0240823
0.024082
0.0240818
0.0240816
0.0240814
0.0240812
0.0240811
0.024081
0.0240809
0.0240809
0.0240809
0.0240809
0.024081
0.0240811
0.0240813
0.0240815
0.0240818
0.0240821
0.0240825
0.0240829
0.0240834
0.0240839
0.0240846
0.0240852
0.024086
0.0240868
0.0240878
0.0240888
0.02409
0.0240913
0.0240929
0.0240947
0.0240967
0.024099
0.0241016
0.0241045
0.0241077
0.0241112
0.0241149
0.0241188
0.0241228
0.0241268
0.0241309
0.0241349
0.0241388
0.0241425
0.024146
0.0241492
0.0241521
0.0241548
0.0241573
0.0241594
0.0241614
0.0241631
0.0241645
0.0241657
0.0241667
0.0241675
0.0241681
0.0241685
0.0241687
0.0241689
0.024169
0.0241691
0.0241693
0.02417
0.041465
0.0414706
0.0414709
0.041471
0.0414712
0.0414712
0.0414713
0.0414714
0.0414715
0.0414715
0.0414715
0.0414715
0.0414715
0.0414715
0.0414715
0.0414714
0.0414713
0.0414712
0.041471
0.0414708
0.0414705
0.0414702
0.0414699
0.0414695
0.0414691
0.0414687
0.0414683
0.0414679
0.0414675
0.0414671
0.0414667
0.0414663
0.041466
0.0414658
0.0414656
0.0414654
0.0414653
0.0414653
0.0414653
0.0414653
0.0414654
0.0414655
0.0414656
0.0414657
0.0414658
0.0414658
0.0414659
0.041466
0.041466
0.041466
0.041466
0.041466
0.0414659
0.0414658
0.0414657
0.0414655
0.0414652
0.0414648
0.0414644
0.0414638
0.0414631
0.0414624
0.0414617
0.0414609
0.0414602
0.0414596
0.0414591
0.0414588
0.0414587
0.041459
0.0414594
0.0414599
0.0414608
0.0414618
0.0414631
0.0414646
0.0414662
0.0414679
0.0414696
0.0414713
0.0414729
0.0414744
0.0414758
0.0414769
0.0414779
0.0414788
0.0414795
0.04148
0.0414805
0.0414808
0.0414811
0.0414814
0.0414815
0.0414817
0.0414818
0.0414819
0.041482
0.041482
0.041482
0.0414823
0.0578586
0.0581076
0.058108
0.058108
0.0581078
0.0581077
0.0581074
0.058107
0.0581065
0.0581059
0.0581053
0.0581045
0.0581037
0.0581028
0.0581019
0.058101
0.0581001
0.0580991
0.0580982
0.0580973
0.0580965
0.0580957
0.0580949
0.0580942
0.0580935
0.0580929
0.0580923
0.0580917
0.0580912
0.0580907
0.0580903
0.0580899
0.0580896
0.0580894
0.0580892
0.0580891
0.058089
0.0580891
0.0580891
0.0580892
0.0580893
0.0580895
0.0580896
0.0580898
0.0580899
0.0580901
0.0580903
0.0580905
0.0580907
0.058091
0.0580913
0.0580915
0.0580917
0.0580918
0.058092
0.0580921
0.0580922
0.0580922
0.0580923
0.0580922
0.0580921
0.0580919
0.0580917
0.0580913
0.058091
0.0580905
0.0580901
0.0580897
0.0580893
0.058089
0.0580888
0.0580887
0.0580887
0.0580888
0.0580891
0.0580895
0.0580901
0.0580907
0.0580915
0.0580924
0.0580934
0.0580945
0.0580956
0.0580967
0.058098
0.0580992
0.0581004
0.0581017
0.058103
0.0581043
0.0581056
0.0581069
0.0581082
0.0581094
0.0581104
0.0581113
0.0581121
0.0581133
0.0581122
0.0578441
0.0637601
0.0637216
0.063721
0.0637197
0.0637177
0.0637148
0.0637111
0.0637069
0.0637024
0.0636978
0.0636933
0.063689
0.0636851
0.0636815
0.0636783
0.0636756
0.0636732
0.0636712
0.0636696
0.0636682
0.0636672
0.0636663
0.0636656
0.0636651
0.0636647
0.0636644
0.0636641
0.0636639
0.0636638
0.0636638
0.0636637
0.0636636
0.0636636
0.0636636
0.0636635
0.0636635
0.0636635
0.0636635
0.0636635
0.0636635
0.0636635
0.0636636
0.0636636
0.0636636
0.0636636
0.0636637
0.0636638
0.0636639
0.063664
0.0636641
0.0636643
0.0636645
0.0636647
0.0636649
0.0636652
0.0636654
0.0636656
0.0636659
0.0636661
0.0636664
0.0636666
0.0636669
0.0636671
0.0636674
0.0636676
0.0636678
0.0636681
0.0636684
0.0636687
0.063669
0.0636694
0.0636698
0.0636703
0.0636708
0.0636714
0.0636721
0.0636728
0.0636737
0.0636748
0.0636761
0.0636777
0.0636795
0.0636816
0.063684
0.0636868
0.0636899
0.0636935
0.0636973
0.0637015
0.0637059
0.0637105
0.063715
0.0637195
0.0637236
0.063727
0.0637296
0.0637317
0.0637333
0.0637343
0.0637726
0.0686155
0.0685363
0.0685339
0.0685301
0.068525
0.0685189
0.0685123
0.0685054
0.0684987
0.0684922
0.0684862
0.0684808
0.068476
0.0684718
0.0684682
0.0684651
0.0684625
0.0684603
0.0684586
0.0684571
0.068456
0.0684551
0.0684544
0.0684538
0.0684534
0.0684531
0.0684529
0.0684528
0.0684526
0.0684526
0.0684525
0.0684525
0.0684525
0.0684525
0.0684525
0.0684525
0.0684525
0.0684526
0.0684526
0.0684526
0.0684526
0.0684527
0.0684527
0.0684528
0.0684529
0.068453
0.0684531
0.0684532
0.0684533
0.0684535
0.0684537
0.0684539
0.0684541
0.0684544
0.0684547
0.068455
0.0684553
0.0684557
0.068456
0.0684564
0.0684568
0.0684571
0.0684575
0.0684579
0.0684582
0.0684586
0.0684589
0.0684593
0.0684596
0.0684599
0.0684602
0.0684605
0.0684608
0.0684611
0.0684614
0.0684618
0.0684623
0.0684629
0.0684636
0.0684645
0.0684657
0.0684671
0.0684688
0.0684709
0.0684733
0.0684762
0.0684796
0.0684836
0.0684881
0.0684931
0.0684988
0.0685048
0.0685113
0.0685179
0.0685243
0.0685303
0.0685354
0.0685392
0.0685416
0.0686215
0.00136025
0.00136004
0.00135985
0.00135952
0.00135907
0.00135855
0.00135805
0.00135761
0.00135728
0.00135705
0.00135692
0.00135687
0.00135686
0.00135686
0.00135689
0.00135697
0.00135713
0.00135738
0.00135773
0.00135816
0.00135864
0.00135914
0.00135964
0.0013601
0.00136052
0.00136088
0.00136119
0.00136143
0.00136163
0.00136177
0.00136186
0.00136193
0.00136199
0.00136207
0.00136218
0.00136231
0.00136247
0.00136265
0.00136287
0.00136311
0.00136338
0.00136367
0.00136399
0.00136433
0.00136467
0.00136501
0.00136534
0.00136565
0.00136593
0.00136618
0.00136636
0.00136648
0.00136652
0.00136646
0.00136631
0.00136607
0.00136574
0.00136533
0.00136485
0.00136432
0.00136374
0.00136313
0.00136249
0.00136184
0.00136119
0.00136053
0.00135988
0.00135922
0.00135855
0.00135784
0.00135706
0.00135618
0.00135515
0.00135397
0.00135263
0.00135114
0.0013495
0.00134775
0.00134591
0.00134404
0.00134218
0.00134039
0.00133874
0.00133726
0.00133601
0.00133503
0.00133434
0.00133393
0.00133375
0.0013337
0.00133371
0.0013338
0.00133405
0.00133451
0.0013352
0.00133605
0.00133694
0.00133773
0.00133827
0.00133866
0.00381307
0.00381203
0.0038112
0.00381003
0.0038087
0.00380741
0.00380628
0.00380539
0.00380477
0.0038044
0.00380421
0.00380414
0.00380415
0.00380422
0.00380437
0.00380462
0.00380497
0.00380539
0.00380586
0.00380634
0.00380681
0.00380725
0.00380765
0.00380799
0.00380827
0.0038085
0.00380866
0.00380877
0.00380882
0.00380884
0.00380884
0.00380886
0.0038089
0.00380897
0.00380905
0.00380915
0.00380927
0.00380939
0.00380952
0.00380967
0.00380983
0.00381001
0.0038102
0.0038104
0.00381059
0.00381078
0.00381095
0.00381108
0.00381117
0.0038112
0.00381117
0.00381108
0.00381092
0.0038107
0.00381042
0.00381007
0.00380967
0.00380922
0.00380873
0.00380821
0.00380768
0.00380716
0.00380665
0.00380616
0.0038057
0.00380525
0.0038048
0.00380432
0.0038038
0.00380323
0.0038026
0.0038019
0.00380111
0.00380024
0.00379928
0.00379823
0.00379713
0.003796
0.00379491
0.00379389
0.00379301
0.00379232
0.00379182
0.00379152
0.00379138
0.00379135
0.00379142
0.00379163
0.00379206
0.00379278
0.0037939
0.0037955
0.00379765
0.00380031
0.00380334
0.00380646
0.00380927
0.00381143
0.00381272
0.00381391
0.00456974
0.00457532
0.00457521
0.00457482
0.00457403
0.00457286
0.0045715
0.00457016
0.00456902
0.00456819
0.00456767
0.00456738
0.00456727
0.00456724
0.00456726
0.00456733
0.00456753
0.00456785
0.0045683
0.00456884
0.0045694
0.00456993
0.0045704
0.00457077
0.00457103
0.00457118
0.00457125
0.00457126
0.00457123
0.00457116
0.00457105
0.00457089
0.0045707
0.00457048
0.00457023
0.00456998
0.00456972
0.00456947
0.00456924
0.00456906
0.00456891
0.00456875
0.00456858
0.00456839
0.00456818
0.00456798
0.00456778
0.0045676
0.00456746
0.00456737
0.00456738
0.0045675
0.00456779
0.00456826
0.00456892
0.00456978
0.00457084
0.0045721
0.00457353
0.00457515
0.00457691
0.00457882
0.00458084
0.00458297
0.00458519
0.00458748
0.00458978
0.00459205
0.00459421
0.00459617
0.00459784
0.00459917
0.00460012
0.00460061
0.00460057
0.00460004
0.00459909
0.00459787
0.00459654
0.00459527
0.00459424
0.00459355
0.00459323
0.00459335
0.00459389
0.00459494
0.00459662
0.004599
0.00460213
0.00460591
0.00461026
0.00461503
0.00462009
0.00462515
0.00462984
0.00463361
0.0046361
0.00463726
0.00463753
0.00461057
0.00673771
0.0067488
0.0067488
0.00674874
0.00674857
0.00674822
0.00674777
0.00674725
0.00674685
0.00674654
0.00674639
0.00674633
0.00674632
0.00674633
0.00674637
0.00674644
0.00674657
0.00674671
0.0067469
0.00674705
0.00674721
0.00674731
0.00674739
0.00674743
0.00674745
0.00674746
0.00674746
0.00674744
0.00674739
0.0067473
0.00674716
0.00674697
0.00674675
0.00674647
0.00674617
0.00674584
0.00674549
0.00674513
0.0067448
0.0067445
0.00674424
0.006744
0.00674375
0.00674349
0.00674323
0.00674299
0.00674278
0.00674262
0.00674254
0.00674257
0.00674274
0.00674308
0.00674363
0.00674437
0.00674532
0.00674645
0.00674778
0.00674931
0.00675107
0.00675307
0.00675533
0.00675787
0.0067607
0.00676383
0.00676727
0.00677102
0.00677502
0.00677922
0.00678357
0.00678802
0.00679248
0.00679689
0.00680119
0.00680532
0.00680926
0.00681296
0.00681641
0.00681961
0.00682258
0.00682534
0.00682792
0.00683034
0.00683262
0.00683479
0.00683684
0.00683873
0.00684045
0.006842
0.00684342
0.00684474
0.00684599
0.0068472
0.00684845
0.00684968
0.00685091
0.00685198
0.00685275
0.00685312
0.0068532
0.00683547
0.0124349
0.012459
0.012459
0.012459
0.0124589
0.0124587
0.0124585
0.0124582
0.0124579
0.0124576
0.0124574
0.0124573
0.0124571
0.0124571
0.012457
0.0124569
0.0124569
0.0124569
0.0124568
0.0124568
0.0124567
0.0124566
0.0124565
0.0124565
0.0124564
0.0124563
0.0124562
0.012456
0.0124559
0.0124558
0.0124556
0.0124554
0.0124553
0.0124551
0.012455
0.0124549
0.0124548
0.0124547
0.0124546
0.0124546
0.0124547
0.0124548
0.0124549
0.0124551
0.0124554
0.0124558
0.0124563
0.0124568
0.0124575
0.0124584
0.0124593
0.0124604
0.0124617
0.0124631
0.0124647
0.0124664
0.0124683
0.0124702
0.0124721
0.0124741
0.0124761
0.0124781
0.01248
0.0124819
0.0124837
0.0124854
0.0124872
0.0124889
0.0124907
0.0124926
0.0124946
0.0124967
0.0124989
0.0125012
0.0125037
0.0125063
0.0125089
0.0125114
0.012514
0.0125164
0.0125187
0.0125209
0.0125229
0.0125248
0.0125265
0.0125281
0.0125295
0.0125307
0.0125318
0.0125329
0.0125338
0.0125347
0.0125355
0.0125363
0.012537
0.0125375
0.0125379
0.0125382
0.0125382
0.0125334
0.0239845
0.0240074
0.0240075
0.0240075
0.0240075
0.0240074
0.0240074
0.0240073
0.0240072
0.0240071
0.024007
0.0240069
0.0240068
0.0240067
0.0240066
0.0240066
0.0240065
0.0240065
0.0240064
0.0240063
0.0240062
0.0240061
0.0240059
0.0240058
0.0240056
0.0240055
0.0240053
0.0240051
0.0240049
0.0240047
0.0240045
0.0240043
0.0240041
0.024004
0.0240038
0.0240037
0.0240037
0.0240037
0.0240037
0.0240038
0.0240039
0.024004
0.0240042
0.0240043
0.0240045
0.0240047
0.0240049
0.0240051
0.0240053
0.0240056
0.0240059
0.0240062
0.0240066
0.024007
0.0240074
0.0240079
0.0240084
0.0240089
0.0240094
0.0240099
0.0240104
0.0240109
0.0240113
0.0240118
0.0240123
0.024013
0.0240137
0.0240147
0.0240158
0.0240172
0.0240189
0.0240207
0.0240228
0.0240251
0.0240276
0.0240301
0.0240328
0.0240355
0.0240382
0.0240408
0.0240433
0.0240457
0.0240479
0.0240499
0.0240517
0.0240534
0.0240549
0.0240562
0.0240574
0.0240584
0.0240591
0.0240598
0.0240602
0.0240606
0.0240608
0.0240609
0.024061
0.024061
0.024061
0.0240514
0.0413688
0.0413732
0.0413736
0.0413738
0.041374
0.041374
0.0413741
0.0413742
0.0413742
0.0413743
0.0413743
0.0413743
0.0413744
0.0413744
0.0413744
0.0413743
0.0413743
0.0413743
0.0413742
0.041374
0.0413738
0.0413736
0.0413733
0.041373
0.0413727
0.0413723
0.0413719
0.0413715
0.041371
0.0413706
0.0413702
0.0413698
0.0413694
0.041369
0.0413687
0.0413683
0.0413681
0.0413678
0.0413676
0.0413674
0.0413673
0.0413671
0.041367
0.041367
0.0413669
0.0413669
0.0413669
0.0413669
0.0413669
0.0413669
0.041367
0.041367
0.0413671
0.0413672
0.0413673
0.0413674
0.0413675
0.0413676
0.0413678
0.0413679
0.0413681
0.0413684
0.0413686
0.041369
0.0413693
0.0413698
0.0413704
0.041371
0.0413718
0.0413728
0.0413739
0.0413753
0.0413769
0.0413786
0.0413805
0.0413825
0.0413846
0.0413867
0.0413887
0.0413906
0.0413924
0.0413941
0.0413955
0.0413967
0.0413977
0.0413985
0.0413991
0.0413996
0.0414
0.0414002
0.0414004
0.0414006
0.0414008
0.0414009
0.041401
0.041401
0.0414011
0.0414011
0.0414011
0.0413957
0.0578222
0.0580744
0.0580748
0.0580747
0.0580745
0.0580743
0.058074
0.0580736
0.0580732
0.0580726
0.058072
0.0580713
0.0580705
0.0580697
0.0580688
0.0580679
0.058067
0.0580662
0.0580653
0.0580644
0.0580636
0.0580629
0.0580621
0.0580614
0.0580607
0.0580601
0.0580595
0.0580589
0.0580584
0.0580579
0.0580574
0.058057
0.0580566
0.0580563
0.058056
0.0580557
0.0580556
0.0580554
0.0580553
0.0580553
0.0580552
0.0580552
0.0580552
0.0580552
0.0580553
0.0580554
0.0580555
0.0580557
0.0580559
0.0580561
0.0580565
0.0580568
0.0580571
0.0580575
0.0580579
0.0580584
0.0580588
0.0580594
0.0580599
0.0580605
0.0580612
0.0580619
0.0580627
0.0580635
0.0580643
0.0580651
0.058066
0.0580669
0.0580678
0.0580688
0.0580699
0.0580711
0.0580722
0.0580735
0.0580747
0.058076
0.0580773
0.0580786
0.05808
0.0580814
0.0580827
0.0580841
0.0580854
0.0580867
0.0580881
0.0580894
0.0580906
0.0580919
0.0580931
0.0580944
0.0580957
0.0580969
0.0580981
0.0580992
0.0581003
0.0581011
0.0581022
0.058104
0.0581032
0.0578262
0.063994
0.0642124
0.0642116
0.064209
0.0642057
0.0642024
0.0641989
0.0641952
0.0641913
0.0641874
0.0641835
0.0641798
0.0641762
0.0641729
0.06417
0.0641673
0.064165
0.0641631
0.0641614
0.0641599
0.0641587
0.0641577
0.0641569
0.0641563
0.0641557
0.0641553
0.0641549
0.0641546
0.0641544
0.0641542
0.064154
0.0641539
0.0641537
0.0641536
0.0641535
0.0641535
0.0641534
0.0641533
0.0641533
0.0641533
0.0641532
0.0641532
0.0641532
0.0641532
0.0641532
0.0641533
0.0641533
0.0641534
0.0641535
0.0641537
0.0641539
0.0641541
0.0641543
0.0641545
0.0641548
0.0641551
0.0641554
0.0641557
0.0641561
0.0641565
0.0641569
0.0641573
0.0641578
0.0641582
0.0641587
0.0641593
0.0641598
0.0641604
0.064161
0.0641617
0.0641624
0.0641632
0.064164
0.0641648
0.0641658
0.0641668
0.0641679
0.0641691
0.0641705
0.0641721
0.0641739
0.064176
0.0641783
0.0641808
0.0641837
0.0641868
0.0641902
0.0641938
0.0641975
0.0642013
0.0642051
0.0642088
0.0642124
0.0642158
0.0642188
0.0642215
0.0642239
0.0642264
0.0642249
0.0640111
0.0690567
0.0694467
0.0694505
0.0694472
0.0694423
0.0694369
0.0694313
0.0694256
0.06942
0.0694145
0.0694092
0.0694044
0.0693999
0.069396
0.0693925
0.0693894
0.0693868
0.0693846
0.0693828
0.0693812
0.0693799
0.0693789
0.069378
0.0693773
0.0693768
0.0693763
0.069376
0.0693757
0.0693755
0.0693754
0.0693752
0.0693751
0.0693751
0.069375
0.069375
0.069375
0.069375
0.069375
0.069375
0.069375
0.069375
0.069375
0.0693751
0.0693751
0.0693752
0.0693753
0.0693754
0.0693755
0.0693756
0.0693758
0.069376
0.0693762
0.0693765
0.0693768
0.0693771
0.0693774
0.0693777
0.0693781
0.0693785
0.0693789
0.0693793
0.0693797
0.0693801
0.0693805
0.069381
0.0693814
0.0693818
0.0693823
0.0693827
0.0693831
0.0693835
0.069384
0.0693844
0.0693848
0.0693853
0.0693858
0.0693864
0.0693871
0.069388
0.069389
0.0693903
0.0693918
0.0693936
0.0693957
0.0693981
0.069401
0.0694043
0.069408
0.0694121
0.0694166
0.0694215
0.0694267
0.069432
0.0694373
0.0694424
0.0694473
0.0694517
0.0694551
0.0694516
0.0690539
0.00136223
0.00136184
0.0013615
0.00136103
0.00136049
0.00135995
0.00135944
0.00135899
0.00135862
0.00135833
0.00135813
0.001358
0.00135793
0.0013579
0.00135789
0.00135789
0.00135791
0.00135796
0.00135807
0.00135824
0.00135848
0.00135876
0.00135905
0.00135934
0.0013596
0.00135983
0.00136001
0.00136016
0.00136028
0.00136035
0.00136038
0.00136039
0.0013604
0.00136043
0.00136049
0.00136059
0.00136071
0.00136086
0.00136103
0.00136123
0.00136146
0.00136171
0.00136197
0.00136225
0.00136253
0.00136282
0.00136309
0.00136335
0.00136357
0.00136374
0.00136385
0.00136387
0.0013638
0.00136363
0.00136336
0.00136301
0.00136257
0.00136205
0.00136147
0.00136084
0.00136018
0.00135951
0.00135883
0.00135818
0.00135757
0.00135701
0.0013565
0.00135605
0.00135566
0.00135532
0.00135499
0.00135464
0.00135424
0.00135376
0.00135318
0.0013525
0.00135174
0.00135091
0.00135003
0.00134914
0.00134828
0.0013475
0.00134685
0.00134637
0.00134606
0.00134591
0.00134586
0.00134586
0.00134589
0.00134599
0.0013462
0.00134656
0.00134714
0.00134796
0.00134904
0.00135036
0.00135178
0.00135311
0.00135407
0.00135475
0.00382037
0.00381886
0.00381766
0.003816
0.00381419
0.00381247
0.00381101
0.00380987
0.00380904
0.00380849
0.00380816
0.003808
0.00380794
0.00380798
0.00380809
0.00380829
0.00380856
0.00380888
0.00380922
0.00380956
0.00380988
0.00381016
0.0038104
0.00381059
0.00381073
0.00381082
0.00381086
0.00381086
0.00381083
0.00381077
0.00381072
0.00381069
0.00381068
0.00381072
0.00381079
0.00381089
0.00381102
0.00381118
0.00381136
0.00381156
0.00381179
0.00381204
0.00381231
0.0038126
0.00381289
0.00381318
0.00381346
0.00381372
0.00381394
0.00381412
0.00381425
0.00381434
0.00381436
0.00381434
0.00381426
0.00381413
0.00381395
0.00381372
0.00381346
0.00381317
0.00381287
0.00381255
0.00381222
0.00381188
0.00381154
0.00381118
0.00381079
0.00381034
0.00380983
0.0038092
0.00380846
0.00380758
0.00380657
0.0038054
0.00380408
0.00380262
0.00380106
0.00379942
0.00379774
0.00379606
0.00379443
0.0037929
0.00379152
0.00379038
0.00378953
0.00378899
0.00378874
0.00378868
0.00378869
0.00378885
0.00378933
0.00379031
0.00379192
0.00379422
0.0037971
0.00380032
0.00380351
0.00380621
0.00380804
0.00380993
0.00464919
0.00464757
0.00464698
0.00464576
0.00464397
0.00464187
0.00463981
0.00463802
0.00463661
0.00463556
0.0046348
0.00463425
0.00463385
0.00463359
0.00463344
0.00463337
0.00463337
0.00463341
0.00463351
0.00463366
0.00463383
0.00463399
0.00463411
0.00463416
0.00463416
0.00463409
0.00463395
0.00463375
0.0046335
0.00463323
0.00463293
0.00463263
0.00463234
0.00463207
0.00463182
0.0046316
0.00463143
0.0046313
0.00463124
0.00463124
0.0046313
0.00463141
0.00463158
0.00463183
0.00463216
0.00463259
0.00463315
0.00463384
0.0046347
0.00463574
0.00463697
0.00463842
0.00464007
0.00464193
0.00464397
0.00464618
0.00464852
0.00465096
0.00465348
0.00465605
0.00465864
0.00466121
0.00466375
0.00466627
0.00466875
0.00467115
0.00467343
0.00467553
0.00467733
0.0046787
0.00467944
0.00467934
0.00467825
0.00467616
0.00467299
0.00466868
0.00466326
0.00465683
0.00464959
0.00464179
0.00463371
0.00462569
0.00461806
0.00461126
0.00460566
0.00460149
0.00459882
0.00459746
0.00459702
0.00459699
0.0045972
0.00459796
0.0045995
0.00460188
0.00460499
0.00460867
0.00461262
0.00461638
0.00461923
0.00462211
0.00666909
0.0066666
0.00666604
0.00666585
0.00666563
0.00666534
0.00666496
0.00666449
0.00666399
0.00666359
0.00666328
0.00666312
0.00666303
0.00666302
0.00666302
0.00666304
0.0066631
0.00666322
0.00666334
0.00666349
0.00666358
0.00666365
0.00666368
0.00666369
0.00666369
0.00666367
0.00666363
0.00666355
0.00666344
0.0066633
0.00666312
0.00666292
0.00666268
0.00666242
0.00666213
0.00666183
0.00666151
0.00666119
0.00666089
0.00666061
0.00666037
0.00666018
0.00666
0.00665982
0.00665964
0.00665946
0.00665932
0.00665923
0.00665923
0.00665933
0.00665957
0.00665999
0.0066606
0.00666141
0.00666241
0.0066636
0.00666498
0.00666654
0.00666831
0.00667029
0.00667249
0.00667491
0.00667754
0.00668039
0.00668344
0.00668672
0.0066903
0.00669422
0.00669847
0.00670297
0.00670767
0.00671249
0.00671737
0.00672223
0.00672699
0.00673159
0.00673599
0.00674013
0.00674399
0.00674757
0.00675087
0.00675388
0.0067566
0.00675903
0.00676116
0.006763
0.00676456
0.00676585
0.00676693
0.0067679
0.00676879
0.0067696
0.00677034
0.006771
0.00677153
0.00677188
0.00677206
0.00677211
0.00677184
0.00672265
0.0123493
0.012356
0.012356
0.012356
0.0123559
0.0123558
0.0123556
0.0123554
0.0123551
0.0123549
0.0123548
0.0123547
0.0123546
0.0123546
0.0123546
0.0123546
0.0123546
0.0123546
0.0123546
0.0123545
0.0123545
0.0123545
0.0123544
0.0123543
0.0123543
0.0123542
0.0123541
0.012354
0.0123538
0.0123537
0.0123535
0.0123534
0.0123532
0.0123531
0.0123529
0.0123528
0.0123527
0.0123526
0.0123525
0.0123525
0.0123525
0.0123526
0.0123528
0.012353
0.0123533
0.0123536
0.0123541
0.0123546
0.0123553
0.0123561
0.0123572
0.0123584
0.0123598
0.0123614
0.0123633
0.0123654
0.0123678
0.0123706
0.0123737
0.0123771
0.012381
0.0123852
0.0123898
0.0123948
0.0124001
0.0124057
0.0124116
0.0124177
0.012424
0.0124303
0.0124365
0.0124427
0.0124488
0.0124546
0.0124602
0.0124656
0.0124707
0.0124754
0.0124798
0.0124838
0.0124875
0.0124908
0.0124938
0.0124965
0.0124988
0.0125009
0.0125028
0.0125044
0.0125058
0.0125071
0.0125082
0.0125092
0.01251
0.0125107
0.0125112
0.0125116
0.0125117
0.0125118
0.0125118
0.0124986
0.024023
0.0240349
0.0240349
0.0240349
0.0240349
0.0240348
0.0240347
0.0240346
0.0240344
0.0240342
0.0240341
0.0240339
0.0240338
0.0240337
0.0240335
0.0240334
0.0240333
0.0240332
0.024033
0.0240329
0.0240327
0.0240326
0.0240324
0.0240323
0.0240321
0.0240319
0.0240318
0.0240316
0.0240314
0.0240312
0.024031
0.0240309
0.0240307
0.0240306
0.0240305
0.0240305
0.0240305
0.0240305
0.0240306
0.0240307
0.0240308
0.0240309
0.0240311
0.0240312
0.0240314
0.0240316
0.0240317
0.0240319
0.0240322
0.0240324
0.0240327
0.024033
0.0240334
0.0240338
0.0240342
0.0240346
0.0240351
0.0240355
0.0240359
0.0240363
0.0240366
0.0240369
0.0240371
0.0240372
0.0240372
0.0240371
0.024037
0.0240368
0.0240367
0.0240366
0.0240366
0.0240368
0.0240372
0.0240378
0.0240386
0.0240396
0.0240407
0.024042
0.0240433
0.0240446
0.024046
0.0240474
0.0240486
0.0240499
0.024051
0.0240521
0.024053
0.0240539
0.0240546
0.0240553
0.0240559
0.0240564
0.0240567
0.024057
0.0240572
0.0240573
0.0240573
0.0240573
0.0240573
0.0240482
0.041402
0.0414201
0.0414207
0.0414207
0.0414207
0.0414208
0.0414208
0.0414209
0.0414209
0.0414209
0.041421
0.041421
0.041421
0.041421
0.041421
0.041421
0.0414209
0.0414208
0.0414207
0.0414206
0.0414204
0.0414202
0.04142
0.0414197
0.0414193
0.0414189
0.0414185
0.0414181
0.0414177
0.0414172
0.0414168
0.0414163
0.0414158
0.0414154
0.0414149
0.0414145
0.0414141
0.0414137
0.0414134
0.041413
0.0414128
0.0414125
0.0414123
0.0414121
0.041412
0.0414119
0.0414119
0.0414119
0.0414118
0.0414118
0.0414119
0.0414119
0.041412
0.0414122
0.0414124
0.0414127
0.0414131
0.0414136
0.0414141
0.0414148
0.0414156
0.0414164
0.0414173
0.0414184
0.0414195
0.0414208
0.0414221
0.0414236
0.0414252
0.0414269
0.0414287
0.0414307
0.0414328
0.041435
0.0414372
0.0414395
0.0414418
0.0414441
0.0414462
0.0414483
0.0414501
0.0414518
0.0414532
0.0414543
0.0414553
0.0414561
0.0414566
0.0414571
0.0414574
0.0414576
0.0414577
0.0414578
0.0414579
0.041458
0.0414581
0.0414582
0.0414582
0.0414582
0.0414584
0.0414465
0.0580292
0.058279
0.058279
0.0582787
0.0582785
0.0582783
0.058278
0.0582776
0.0582772
0.0582766
0.058276
0.0582754
0.0582746
0.0582738
0.058273
0.0582722
0.0582713
0.0582704
0.0582696
0.0582687
0.0582679
0.0582671
0.0582664
0.0582656
0.058265
0.0582643
0.0582637
0.0582631
0.0582625
0.058262
0.0582616
0.0582611
0.0582607
0.0582604
0.0582602
0.05826
0.0582598
0.0582597
0.0582597
0.0582596
0.0582596
0.0582596
0.0582596
0.0582597
0.0582598
0.0582599
0.05826
0.0582602
0.0582604
0.0582607
0.058261
0.0582614
0.0582618
0.0582623
0.0582627
0.0582632
0.0582637
0.0582643
0.0582649
0.0582656
0.0582663
0.058267
0.0582678
0.0582686
0.0582695
0.0582703
0.0582712
0.0582722
0.0582732
0.0582742
0.0582754
0.0582766
0.0582779
0.0582793
0.0582807
0.0582822
0.0582837
0.0582853
0.0582868
0.0582884
0.05829
0.0582915
0.0582931
0.0582946
0.0582961
0.0582975
0.0582989
0.0583002
0.0583015
0.0583028
0.0583041
0.0583053
0.0583064
0.0583075
0.0583085
0.0583093
0.0583107
0.0583122
0.0583109
0.0580435
0.0649427
0.0654773
0.0654814
0.0654779
0.0654741
0.0654708
0.0654676
0.0654644
0.0654614
0.0654584
0.0654555
0.0654526
0.0654499
0.0654474
0.065445
0.0654428
0.0654408
0.065439
0.0654374
0.065436
0.0654348
0.0654337