/*--------------------------------*- C++ -*----------------------------------*\
| =========                 |                                                 |
| \\      /  F ield         | OpenFOAM: The Open Source CFD Toolbox           |
|  \\    /   O peration     | Version:  2406                                  |
|   \\  /    A nd           | Website:  www.openfoam.com                      |
|    \\/     M anipulation  |                                                 |
\*---------------------------------------------------------------------------*/
FoamFile
{
    version     2.0;
    format      ascii;
    arch        "LSB;label=32;scalar=64";
    class       volVectorField;
    location    "0.008";
    object      U;
}
// * * * * * * * * * * * * * * * * * * * * * * * * * * * * * * * * * * * * * //

dimensions      [0 1 -1 0 0 0 0];

internalField   nonuniform List<vector> 
81000
(
(-0.0171667 0.468226 0)
(-0.0171658 0.468132 0)
(-0.0171697 0.468018 0)
(-0.0171774 0.467858 0)
(-0.0171872 0.467678 0)
(-0.0171961 0.467502 0)
(-0.0172028 0.46735 0)
(-0.017207 0.467232 0)
(-0.0172093 0.467154 0)
(-0.0172105 0.46711 0)
(-0.017211 0.467091 0)
(-0.0172112 0.467087 0)
(-0.0172114 0.467089 0)
(-0.0172113 0.467103 0)
(-0.0172106 0.467138 0)
(-0.0172092 0.467208 0)
(-0.0172071 0.467319 0)
(-0.0172042 0.467474 0)
(-0.0172002 0.467667 0)
(-0.017195 0.467892 0)
(-0.0171885 0.468135 0)
(-0.0171806 0.468385 0)
(-0.0171714 0.468628 0)
(-0.0171607 0.468854 0)
(-0.0171487 0.469055 0)
(-0.0171347 0.469229 0)
(-0.0171184 0.469373 0)
(-0.0170982 0.469489 0)
(-0.0170725 0.46958 0)
(-0.0170377 0.469648 0)
(-0.0169907 0.469693 0)
(-0.016933 0.469718 0)
(-0.016871 0.469737 0)
(-0.0168071 0.469761 0)
(-0.016742 0.469794 0)
(-0.0166747 0.469836 0)
(-0.0166051 0.469887 0)
(-0.0165324 0.46995 0)
(-0.0164574 0.470024 0)
(-0.0163804 0.47011 0)
(-0.0163025 0.470209 0)
(-0.0162238 0.470319 0)
(-0.0161443 0.470439 0)
(-0.0160631 0.470566 0)
(-0.0159797 0.470698 0)
(-0.015893 0.470833 0)
(-0.0158023 0.470965 0)
(-0.0157066 0.471092 0)
(-0.0156053 0.47121 0)
(-0.0154975 0.471314 0)
(-0.0153829 0.471402 0)
(-0.0152609 0.471469 0)
(-0.0151315 0.471512 0)
(-0.0149954 0.471528 0)
(-0.0148538 0.471515 0)
(-0.0147079 0.471474 0)
(-0.0145575 0.471405 0)
(-0.0144015 0.471313 0)
(-0.0142378 0.471199 0)
(-0.0140638 0.471067 0)
(-0.013877 0.470919 0)
(-0.0136754 0.470757 0)
(-0.0134578 0.470581 0)
(-0.0132239 0.470392 0)
(-0.0129744 0.470187 0)
(-0.0127105 0.469965 0)
(-0.0124342 0.469721 0)
(-0.0121473 0.46945 0)
(-0.0118522 0.469148 0)
(-0.0115547 0.468806 0)
(-0.0112639 0.468414 0)
(-0.0109915 0.467959 0)
(-0.0107486 0.46743 0)
(-0.0105423 0.466822 0)
(-0.0103753 0.466133 0)
(-0.0102454 0.465364 0)
(-0.0101461 0.464523 0)
(-0.0100711 0.463623 0)
(-0.0100164 0.462677 0)
(-0.00997815 0.461704 0)
(-0.00995102 0.460729 0)
(-0.00993096 0.45978 0)
(-0.00991552 0.458886 0)
(-0.00990308 0.458072 0)
(-0.00989293 0.457357 0)
(-0.00988538 0.456755 0)
(-0.00988006 0.456272 0)
(-0.00987606 0.455911 0)
(-0.00987221 0.455667 0)
(-0.00986855 0.455526 0)
(-0.00986575 0.455464 0)
(-0.00986388 0.455449 0)
(-0.0098609 0.455456 0)
(-0.00985666 0.455496 0)
(-0.00984916 0.455602 0)
(-0.00983805 0.455791 0)
(-0.00982509 0.456041 0)
(-0.00981405 0.456296 0)
(-0.00980783 0.456487 0)
(-0.00980676 0.456609 0)
(-0.0191457 1.31389 0)
(-0.0191384 1.3137 0)
(-0.0191295 1.31365 0)
(-0.0191175 1.31352 0)
(-0.0191 1.3133 0)
(-0.0190759 1.31303 0)
(-0.019048 1.31277 0)
(-0.01902 1.31258 0)
(-0.0189958 1.31248 0)
(-0.018977 1.31245 0)
(-0.0189564 1.31245 0)
(-0.0189395 1.31247 0)
(-0.0189191 1.31253 0)
(-0.0188946 1.31261 0)
(-0.0188669 1.31272 0)
(-0.0188372 1.31285 0)
(-0.0188052 1.313 0)
(-0.0187704 1.31318 0)
(-0.0187327 1.31336 0)
(-0.018692 1.31356 0)
(-0.0186486 1.31374 0)
(-0.0186027 1.31391 0)
(-0.0185551 1.31407 0)
(-0.0185059 1.3142 0)
(-0.0184545 1.31432 0)
(-0.0184008 1.31441 0)
(-0.0183437 1.31448 0)
(-0.0182826 1.31452 0)
(-0.0182168 1.31455 0)
(-0.0181478 1.31456 0)
(-0.018077 1.31457 0)
(-0.0180048 1.31458 0)
(-0.0179307 1.31459 0)
(-0.0178536 1.31462 0)
(-0.0177726 1.31464 0)
(-0.0176865 1.31467 0)
(-0.0175944 1.31469 0)
(-0.0174961 1.31472 0)
(-0.0173918 1.31475 0)
(-0.0172823 1.31477 0)
(-0.0171685 1.3148 0)
(-0.0170512 1.31483 0)
(-0.0169306 1.31487 0)
(-0.0168064 1.31491 0)
(-0.0166779 1.31494 0)
(-0.0165447 1.31497 0)
(-0.0164063 1.31499 0)
(-0.0162627 1.31499 0)
(-0.0161145 1.31498 0)
(-0.0159627 1.31494 0)
(-0.0158085 1.31487 0)
(-0.0156527 1.31478 0)
(-0.0154957 1.31466 0)
(-0.0153374 1.31452 0)
(-0.0151775 1.31435 0)
(-0.0150161 1.31417 0)
(-0.0148529 1.31396 0)
(-0.0146875 1.31374 0)
(-0.0145184 1.3135 0)
(-0.014343 1.31326 0)
(-0.0141576 1.31303 0)
(-0.0139588 1.3128 0)
(-0.0137433 1.31258 0)
(-0.0135097 1.31239 0)
(-0.01326 1.31222 0)
(-0.0129995 1.31206 0)
(-0.0127337 1.31191 0)
(-0.0124669 1.31178 0)
(-0.012202 1.31165 0)
(-0.01194 1.31152 0)
(-0.0116833 1.3114 0)
(-0.011434 1.31127 0)
(-0.0111972 1.31113 0)
(-0.010979 1.31097 0)
(-0.0107851 1.31079 0)
(-0.010619 1.31059 0)
(-0.01048 1.31039 0)
(-0.0103656 1.3102 0)
(-0.0102724 1.31003 0)
(-0.0101972 1.3099 0)
(-0.0101376 1.30981 0)
(-0.0100911 1.30977 0)
(-0.010049 1.30976 0)
(-0.0100154 1.30979 0)
(-0.00998637 1.30986 0)
(-0.00995776 1.30996 0)
(-0.0099295 1.31012 0)
(-0.00990091 1.31032 0)
(-0.00987239 1.31059 0)
(-0.00984813 1.31096 0)
(-0.00983269 1.31143 0)
(-0.00982604 1.31205 0)
(-0.0098257 1.31283 0)
(-0.00982879 1.31377 0)
(-0.00983303 1.31482 0)
(-0.00983718 1.31591 0)
(-0.00984084 1.31692 0)
(-0.00984362 1.31772 0)
(-0.00984508 1.31823 0)
(-0.00984677 1.31861 0)
(0.42592 1.49846 0)
(0.425822 1.49803 0)
(0.425807 1.49784 0)
(0.425775 1.49759 0)
(0.425771 1.49731 0)
(0.425776 1.49699 0)
(0.425781 1.49667 0)
(0.425786 1.49637 0)
(0.425792 1.49613 0)
(0.425797 1.49597 0)
(0.425801 1.49589 0)
(0.425803 1.49586 0)
(0.425807 1.49586 0)
(0.42581 1.49588 0)
(0.425817 1.49596 0)
(0.425827 1.49611 0)
(0.425841 1.49632 0)
(0.425858 1.49657 0)
(0.425876 1.49685 0)
(0.425897 1.49715 0)
(0.425918 1.49744 0)
(0.42594 1.49772 0)
(0.425961 1.49799 0)
(0.425982 1.49822 0)
(0.426002 1.49841 0)
(0.426022 1.49856 0)
(0.42604 1.49866 0)
(0.426056 1.49872 0)
(0.426071 1.49875 0)
(0.426086 1.49876 0)
(0.4261 1.49875 0)
(0.426116 1.49872 0)
(0.426135 1.49868 0)
(0.42616 1.49861 0)
(0.426192 1.49853 0)
(0.42623 1.49842 0)
(0.426278 1.4983 0)
(0.42634 1.49816 0)
(0.426422 1.49802 0)
(0.426534 1.49787 0)
(0.426673 1.49773 0)
(0.426817 1.49756 0)
(0.42696 1.49736 0)
(0.427106 1.49714 0)
(0.427257 1.49688 0)
(0.427414 1.49659 0)
(0.427576 1.49627 0)
(0.427747 1.49592 0)
(0.427926 1.49555 0)
(0.428116 1.49517 0)
(0.428318 1.49479 0)
(0.428533 1.49443 0)
(0.428766 1.49412 0)
(0.42902 1.49385 0)
(0.429303 1.49365 0)
(0.429623 1.49352 0)
(0.429985 1.49348 0)
(0.43039 1.49352 0)
(0.430836 1.49366 0)
(0.431326 1.49388 0)
(0.431861 1.49418 0)
(0.432445 1.49455 0)
(0.433076 1.49497 0)
(0.433753 1.49545 0)
(0.434466 1.49597 0)
(0.435208 1.49654 0)
(0.435961 1.49713 0)
(0.436702 1.49774 0)
(0.437407 1.49837 0)
(0.438069 1.49901 0)
(0.438686 1.49964 0)
(0.439265 1.50028 0)
(0.43981 1.50092 0)
(0.440328 1.50156 0)
(0.440825 1.50223 0)
(0.441305 1.50294 0)
(0.441767 1.50373 0)
(0.442207 1.50462 0)
(0.442624 1.50565 0)
(0.443015 1.50686 0)
(0.443385 1.50826 0)
(0.443671 1.50991 0)
(0.443847 1.5118 0)
(0.443981 1.51392 0)
(0.44408 1.51623 0)
(0.444153 1.51872 0)
(0.444215 1.52134 0)
(0.444274 1.52404 0)
(0.444332 1.52675 0)
(0.444394 1.52945 0)
(0.444459 1.5321 0)
(0.444531 1.53467 0)
(0.444601 1.53714 0)
(0.444654 1.53947 0)
(0.44469 1.54157 0)
(0.444716 1.54336 0)
(0.444737 1.54471 0)
(0.444756 1.54558 0)
(0.444771 1.54601 0)
(0.444882 1.54649 0)
(1.44856 1.8553 0)
(1.44833 1.864 0)
(1.44833 1.86402 0)
(1.44833 1.864 0)
(1.44833 1.86393 0)
(1.44833 1.8638 0)
(1.44833 1.86364 0)
(1.44833 1.86351 0)
(1.44833 1.86343 0)
(1.44833 1.86341 0)
(1.44832 1.86341 0)
(1.44832 1.86342 0)
(1.44832 1.86344 0)
(1.44832 1.86348 0)
(1.44832 1.86352 0)
(1.44832 1.86357 0)
(1.44832 1.86362 0)
(1.44832 1.86369 0)
(1.44832 1.86376 0)
(1.44832 1.86384 0)
(1.44832 1.86391 0)
(1.44832 1.86398 0)
(1.44832 1.86403 0)
(1.44832 1.86407 0)
(1.44833 1.8641 0)
(1.44833 1.86412 0)
(1.44833 1.86413 0)
(1.44833 1.86413 0)
(1.44833 1.86412 0)
(1.44834 1.86411 0)
(1.44834 1.86406 0)
(1.44835 1.86398 0)
(1.44836 1.86387 0)
(1.44837 1.86375 0)
(1.44838 1.8636 0)
(1.4484 1.86344 0)
(1.44842 1.86327 0)
(1.44846 1.86309 0)
(1.44851 1.86289 0)
(1.4486 1.86269 0)
(1.4487 1.86248 0)
(1.44882 1.86225 0)
(1.44894 1.86201 0)
(1.44906 1.86176 0)
(1.4492 1.86151 0)
(1.44934 1.86125 0)
(1.4495 1.861 0)
(1.44968 1.86076 0)
(1.44989 1.86054 0)
(1.45013 1.86033 0)
(1.45041 1.86016 0)
(1.45073 1.86002 0)
(1.4511 1.85993 0)
(1.45151 1.85989 0)
(1.45196 1.85991 0)
(1.45246 1.85996 0)
(1.453 1.86005 0)
(1.45359 1.86018 0)
(1.45421 1.86035 0)
(1.45487 1.86056 0)
(1.45557 1.86079 0)
(1.4563 1.86105 0)
(1.45708 1.8613 0)
(1.45788 1.86153 0)
(1.45872 1.86173 0)
(1.45959 1.86189 0)
(1.46048 1.86198 0)
(1.46141 1.86201 0)
(1.46236 1.86198 0)
(1.46333 1.86189 0)
(1.46433 1.86175 0)
(1.46533 1.86157 0)
(1.46635 1.86137 0)
(1.46736 1.86117 0)
(1.46837 1.86098 0)
(1.46936 1.86081 0)
(1.47032 1.86066 0)
(1.47125 1.86056 0)
(1.47214 1.8605 0)
(1.47299 1.86051 0)
(1.47379 1.86058 0)
(1.47455 1.86072 0)
(1.47526 1.86095 0)
(1.47592 1.86127 0)
(1.47652 1.86167 0)
(1.47706 1.86212 0)
(1.47754 1.8626 0)
(1.47795 1.86311 0)
(1.47829 1.86363 0)
(1.47855 1.86416 0)
(1.47875 1.86468 0)
(1.47889 1.86522 0)
(1.47909 1.86575 0)
(1.47907 1.86641 0)
(1.4792 1.86724 0)
(1.47922 1.8683 0)
(1.47923 1.8695 0)
(1.47924 1.87063 0)
(1.47924 1.87141 0)
(1.4795 1.87204 0)
(3.64482 2.3127 0)
(3.64398 2.32376 0)
(3.64397 2.32379 0)
(3.64397 2.32377 0)
(3.64396 2.32373 0)
(3.64395 2.32364 0)
(3.64394 2.3235 0)
(3.64393 2.32335 0)
(3.6439 2.3232 0)
(3.64388 2.32306 0)
(3.64385 2.32294 0)
(3.64383 2.32283 0)
(3.64381 2.32274 0)
(3.64379 2.32265 0)
(3.64377 2.32257 0)
(3.64375 2.3225 0)
(3.64373 2.32243 0)
(3.6437 2.32238 0)
(3.64366 2.32235 0)
(3.64363 2.32231 0)
(3.6436 2.32228 0)
(3.64358 2.32225 0)
(3.64355 2.32221 0)
(3.64353 2.32217 0)
(3.64351 2.32213 0)
(3.6435 2.32208 0)
(3.64348 2.32204 0)
(3.64346 2.32199 0)
(3.64345 2.32193 0)
(3.64343 2.32188 0)
(3.64342 2.32182 0)
(3.64341 2.32176 0)
(3.6434 2.32169 0)
(3.64339 2.32163 0)
(3.64338 2.32156 0)
(3.64338 2.3215 0)
(3.64339 2.32143 0)
(3.64341 2.32137 0)
(3.64343 2.32131 0)
(3.64346 2.32124 0)
(3.64351 2.32118 0)
(3.64356 2.32112 0)
(3.64363 2.32106 0)
(3.64371 2.32101 0)
(3.64382 2.32098 0)
(3.64395 2.32096 0)
(3.64411 2.32094 0)
(3.6443 2.32093 0)
(3.64451 2.3209 0)
(3.64477 2.32084 0)
(3.64506 2.32074 0)
(3.64538 2.32059 0)
(3.64574 2.32037 0)
(3.64613 2.32006 0)
(3.64655 2.31965 0)
(3.647 2.3191 0)
(3.64747 2.3184 0)
(3.64795 2.31753 0)
(3.64845 2.31648 0)
(3.64895 2.31524 0)
(3.64944 2.31381 0)
(3.64994 2.31219 0)
(3.65042 2.31041 0)
(3.65091 2.30849 0)
(3.6514 2.30646 0)
(3.6519 2.30437 0)
(3.65243 2.30224 0)
(3.653 2.30013 0)
(3.65362 2.29806 0)
(3.6543 2.29609 0)
(3.65504 2.29422 0)
(3.65583 2.29249 0)
(3.65669 2.2909 0)
(3.6576 2.28946 0)
(3.65856 2.28817 0)
(3.65955 2.28702 0)
(3.66054 2.28599 0)
(3.66154 2.28507 0)
(3.66252 2.28425 0)
(3.66347 2.28352 0)
(3.6644 2.28287 0)
(3.66529 2.2823 0)
(3.66613 2.28181 0)
(3.66693 2.28138 0)
(3.66765 2.28101 0)
(3.6683 2.2807 0)
(3.66886 2.28047 0)
(3.66933 2.28034 0)
(3.66972 2.28033 0)
(3.67002 2.28045 0)
(3.67024 2.28068 0)
(3.67039 2.28098 0)
(3.6705 2.28133 0)
(3.67055 2.28175 0)
(3.67066 2.28226 0)
(3.67064 2.28295 0)
(3.67068 2.28387 0)
(3.6707 2.28497 0)
(3.67071 2.28601 0)
(3.67161 2.28715 0)
(7.65586 3.12847 0)
(7.6583 3.13899 0)
(7.65831 3.139 0)
(7.65831 3.139 0)
(7.65831 3.13899 0)
(7.65831 3.13897 0)
(7.6583 3.13893 0)
(7.6583 3.13888 0)
(7.6583 3.13882 0)
(7.6583 3.13875 0)
(7.6583 3.13869 0)
(7.6583 3.13864 0)
(7.6583 3.1386 0)
(7.6583 3.13858 0)
(7.6583 3.13856 0)
(7.65829 3.13855 0)
(7.65829 3.13855 0)
(7.65827 3.13856 0)
(7.65826 3.13857 0)
(7.65824 3.13858 0)
(7.65821 3.13858 0)
(7.65818 3.13857 0)
(7.65814 3.13855 0)
(7.6581 3.13851 0)
(7.65807 3.13845 0)
(7.65802 3.13839 0)
(7.65798 3.13831 0)
(7.65794 3.13823 0)
(7.65789 3.13814 0)
(7.65783 3.13805 0)
(7.65777 3.13796 0)
(7.6577 3.13787 0)
(7.65763 3.13778 0)
(7.65756 3.13768 0)
(7.65751 3.13758 0)
(7.65746 3.13747 0)
(7.65742 3.13735 0)
(7.65739 3.13724 0)
(7.65737 3.13713 0)
(7.65735 3.13702 0)
(7.65734 3.13693 0)
(7.65734 3.13685 0)
(7.65734 3.13679 0)
(7.65734 3.13675 0)
(7.65735 3.13672 0)
(7.65737 3.13669 0)
(7.6574 3.13668 0)
(7.65745 3.13667 0)
(7.65751 3.13666 0)
(7.6576 3.13666 0)
(7.6577 3.13665 0)
(7.65784 3.13664 0)
(7.65799 3.1366 0)
(7.65817 3.13655 0)
(7.65836 3.1365 0)
(7.65859 3.13645 0)
(7.65884 3.1364 0)
(7.65911 3.13635 0)
(7.65941 3.13631 0)
(7.65973 3.13629 0)
(7.66007 3.13629 0)
(7.66044 3.13634 0)
(7.66084 3.13645 0)
(7.66127 3.13663 0)
(7.66174 3.1369 0)
(7.66224 3.13729 0)
(7.66278 3.1378 0)
(7.66338 3.13844 0)
(7.66403 3.13922 0)
(7.66473 3.14013 0)
(7.66549 3.14116 0)
(7.66631 3.14229 0)
(7.66718 3.14349 0)
(7.66809 3.14475 0)
(7.66904 3.14604 0)
(7.67002 3.14732 0)
(7.67101 3.14857 0)
(7.672 3.14977 0)
(7.67297 3.15089 0)
(7.67392 3.15193 0)
(7.67482 3.15287 0)
(7.67566 3.15372 0)
(7.67643 3.1545 0)
(7.67713 3.15521 0)
(7.67776 3.15587 0)
(7.6783 3.1565 0)
(7.67877 3.15711 0)
(7.67915 3.1577 0)
(7.67945 3.15827 0)
(7.67967 3.15881 0)
(7.67983 3.15929 0)
(7.67995 3.15971 0)
(7.68003 3.16003 0)
(7.68008 3.16027 0)
(7.68012 3.16043 0)
(7.68014 3.16052 0)
(7.68014 3.16056 0)
(7.68018 3.16058 0)
(7.68023 3.16063 0)
(7.68001 3.16363 0)
(13.5407 4.43011 0)
(13.5394 4.43579 0)
(13.5395 4.43578 0)
(13.5396 4.4358 0)
(13.5396 4.43581 0)
(13.5397 4.4358 0)
(13.5397 4.4358 0)
(13.5397 4.4358 0)
(13.5397 4.43579 0)
(13.5398 4.43578 0)
(13.5398 4.43577 0)
(13.5398 4.43575 0)
(13.5398 4.43573 0)
(13.5398 4.4357 0)
(13.5398 4.43566 0)
(13.5398 4.43562 0)
(13.5398 4.43557 0)
(13.5397 4.43551 0)
(13.5397 4.43545 0)
(13.5396 4.43539 0)
(13.5396 4.43532 0)
(13.5395 4.43525 0)
(13.5394 4.43518 0)
(13.5393 4.43511 0)
(13.5392 4.43504 0)
(13.539 4.43497 0)
(13.5389 4.43491 0)
(13.5388 4.43487 0)
(13.5386 4.43484 0)
(13.5385 4.43483 0)
(13.5383 4.43486 0)
(13.5382 4.43492 0)
(13.5381 4.43501 0)
(13.5379 4.43514 0)
(13.5378 4.4353 0)
(13.5377 4.43549 0)
(13.5376 4.43571 0)
(13.5375 4.43595 0)
(13.5374 4.43621 0)
(13.5373 4.43647 0)
(13.5373 4.43673 0)
(13.5372 4.43699 0)
(13.5372 4.43723 0)
(13.5371 4.43746 0)
(13.5371 4.43767 0)
(13.5371 4.43785 0)
(13.5371 4.43799 0)
(13.5371 4.43808 0)
(13.537 4.43812 0)
(13.537 4.43813 0)
(13.537 4.43812 0)
(13.537 4.4381 0)
(13.537 4.43805 0)
(13.5371 4.43794 0)
(13.5371 4.43777 0)
(13.5371 4.4375 0)
(13.5371 4.43713 0)
(13.5371 4.43663 0)
(13.5372 4.43599 0)
(13.5372 4.43519 0)
(13.5373 4.43424 0)
(13.5374 4.43313 0)
(13.5376 4.43187 0)
(13.5378 4.43048 0)
(13.538 4.42898 0)
(13.5383 4.42741 0)
(13.5386 4.4258 0)
(13.5391 4.42418 0)
(13.5396 4.42257 0)
(13.5402 4.42101 0)
(13.5408 4.41948 0)
(13.5415 4.41801 0)
(13.5423 4.41662 0)
(13.5431 4.41533 0)
(13.5439 4.41416 0)
(13.5448 4.41311 0)
(13.5456 4.4122 0)
(13.5465 4.4114 0)
(13.5474 4.41071 0)
(13.5482 4.41012 0)
(13.5489 4.40963 0)
(13.5496 4.40922 0)
(13.5502 4.40888 0)
(13.5507 4.4086 0)
(13.5511 4.40838 0)
(13.5515 4.4082 0)
(13.5518 4.40807 0)
(13.552 4.40798 0)
(13.5522 4.40793 0)
(13.5523 4.40792 0)
(13.5524 4.40795 0)
(13.5525 4.40801 0)
(13.5525 4.40812 0)
(13.5525 4.40827 0)
(13.5525 4.40844 0)
(13.5524 4.4086 0)
(13.5524 4.40872 0)
(13.5524 4.40878 0)
(13.5524 4.4088 0)
(13.5545 4.40756 0)
(19.3682 4.45981 0)
(19.4555 4.45825 0)
(19.4557 4.45804 0)
(19.4556 4.45802 0)
(19.4556 4.458 0)
(19.4555 4.45797 0)
(19.4554 4.45794 0)
(19.4553 4.45791 0)
(19.4552 4.45789 0)
(19.455 4.45787 0)
(19.4547 4.45785 0)
(19.4545 4.45785 0)
(19.4542 4.45785 0)
(19.4539 4.45785 0)
(19.4536 4.45785 0)
(19.4532 4.45786 0)
(19.4529 4.45786 0)
(19.4526 4.45786 0)
(19.4523 4.45785 0)
(19.4519 4.45785 0)
(19.4517 4.45786 0)
(19.4514 4.45786 0)
(19.4511 4.45786 0)
(19.4508 4.45787 0)
(19.4506 4.45788 0)
(19.4504 4.45788 0)
(19.4502 4.45789 0)
(19.45 4.4579 0)
(19.4498 4.45791 0)
(19.4496 4.45794 0)
(19.4494 4.458 0)
(19.4493 4.45808 0)
(19.4492 4.4582 0)
(19.449 4.45833 0)
(19.449 4.4585 0)
(19.4489 4.45868 0)
(19.4488 4.4589 0)
(19.4488 4.45914 0)
(19.4487 4.45939 0)
(19.4487 4.45967 0)
(19.4487 4.45995 0)
(19.4486 4.46023 0)
(19.4486 4.46052 0)
(19.4486 4.46081 0)
(19.4486 4.46109 0)
(19.4486 4.46137 0)
(19.4486 4.46164 0)
(19.4486 4.46189 0)
(19.4487 4.46213 0)
(19.4487 4.46233 0)
(19.4488 4.46251 0)
(19.4488 4.46264 0)
(19.4489 4.46275 0)
(19.4489 4.46281 0)
(19.4489 4.46284 0)
(19.449 4.46284 0)
(19.449 4.46278 0)
(19.4491 4.46263 0)
(19.4492 4.46236 0)
(19.4492 4.46194 0)
(19.4493 4.46134 0)
(19.4495 4.46056 0)
(19.4496 4.45959 0)
(19.4497 4.45844 0)
(19.4499 4.45711 0)
(19.4501 4.45562 0)
(19.4503 4.45398 0)
(19.4506 4.45222 0)
(19.4509 4.45036 0)
(19.4512 4.44845 0)
(19.4516 4.44651 0)
(19.452 4.44457 0)
(19.4524 4.44268 0)
(19.4528 4.44085 0)
(19.4533 4.43912 0)
(19.4539 4.43751 0)
(19.4544 4.43602 0)
(19.4549 4.43466 0)
(19.4555 4.43343 0)
(19.4561 4.43233 0)
(19.4566 4.43136 0)
(19.4572 4.43051 0)
(19.4577 4.42977 0)
(19.4583 4.42913 0)
(19.4588 4.42859 0)
(19.4594 4.42813 0)
(19.4599 4.42775 0)
(19.4604 4.42744 0)
(19.4609 4.42721 0)
(19.4614 4.42705 0)
(19.4619 4.42697 0)
(19.4624 4.42694 0)
(19.4628 4.42692 0)
(19.4632 4.42685 0)
(19.4637 4.42673 0)
(19.464 4.42648 0)
(19.4644 4.4262 0)
(19.4648 4.42601 0)
(19.4648 4.42444 0)
(19.3741 4.4139 0)
(21.9061 -0.384259 0)
(21.876 -0.383793 0)
(21.8757 -0.384022 0)
(21.8753 -0.384443 0)
(21.8746 -0.384963 0)
(21.8736 -0.385485 0)
(21.8723 -0.385878 0)
(21.8709 -0.386078 0)
(21.8693 -0.386098 0)
(21.8677 -0.386004 0)
(21.8662 -0.385869 0)
(21.8648 -0.385742 0)
(21.8634 -0.385651 0)
(21.8622 -0.385603 0)
(21.8611 -0.38559 0)
(21.8601 -0.385599 0)
(21.8593 -0.385611 0)
(21.8587 -0.385613 0)
(21.8581 -0.385597 0)
(21.8577 -0.385558 0)
(21.8573 -0.3855 0)
(21.857 -0.385428 0)
(21.8568 -0.385349 0)
(21.8566 -0.385269 0)
(21.8565 -0.385192 0)
(21.8564 -0.385119 0)
(21.8563 -0.385037 0)
(21.8562 -0.384968 0)
(21.8562 -0.384883 0)
(21.8562 -0.384796 0)
(21.8562 -0.384705 0)
(21.8562 -0.384612 0)
(21.8562 -0.384517 0)
(21.8561 -0.38442 0)
(21.8561 -0.384324 0)
(21.8561 -0.384227 0)
(21.8561 -0.384132 0)
(21.8561 -0.384039 0)
(21.8562 -0.383948 0)
(21.8562 -0.38386 0)
(21.8562 -0.383775 0)
(21.8562 -0.383692 0)
(21.8562 -0.383613 0)
(21.8562 -0.383535 0)
(21.8562 -0.383461 0)
(21.8562 -0.38339 0)
(21.8563 -0.383322 0)
(21.8563 -0.383258 0)
(21.8563 -0.383198 0)
(21.8564 -0.383141 0)
(21.8564 -0.383088 0)
(21.8565 -0.383038 0)
(21.8566 -0.38299 0)
(21.8567 -0.382944 0)
(21.8567 -0.382901 0)
(21.8568 -0.382864 0)
(21.8569 -0.382836 0)
(21.857 -0.382823 0)
(21.8571 -0.38283 0)
(21.8572 -0.382863 0)
(21.8572 -0.382925 0)
(21.8573 -0.383017 0)
(21.8574 -0.383143 0)
(21.8575 -0.383307 0)
(21.8575 -0.383509 0)
(21.8576 -0.383749 0)
(21.8577 -0.384024 0)
(21.8578 -0.384329 0)
(21.8579 -0.384659 0)
(21.858 -0.385006 0)
(21.8581 -0.385365 0)
(21.8582 -0.38573 0)
(21.8584 -0.386095 0)
(21.8585 -0.386454 0)
(21.8587 -0.386802 0)
(21.8589 -0.387122 0)
(21.8592 -0.38744 0)
(21.8595 -0.387685 0)
(21.8598 -0.387948 0)
(21.8603 -0.388143 0)
(21.8608 -0.388363 0)
(21.8614 -0.388584 0)
(21.8621 -0.388805 0)
(21.8629 -0.389016 0)
(21.8639 -0.389204 0)
(21.8649 -0.389348 0)
(21.8661 -0.389428 0)
(21.8675 -0.389421 0)
(21.8689 -0.389312 0)
(21.8704 -0.38911 0)
(21.872 -0.388865 0)
(21.8735 -0.388699 0)
(21.875 -0.388818 0)
(21.8764 -0.389476 0)
(21.8775 -0.390764 0)
(21.8784 -0.392556 0)
(21.8791 -0.394619 0)
(21.8796 -0.396594 0)
(21.88 -0.398051 0)
(21.9107 -0.399259 0)
(23.5122 -1.75979 0)
(23.4581 -1.75586 0)
(23.4572 -1.75601 0)
(23.4559 -1.75631 0)
(23.4541 -1.75669 0)
(23.452 -1.75707 0)
(23.4497 -1.75736 0)
(23.4473 -1.75748 0)
(23.445 -1.75743 0)
(23.4428 -1.75727 0)
(23.4407 -1.75705 0)
(23.4389 -1.75687 0)
(23.4373 -1.75677 0)
(23.4358 -1.75674 0)
(23.4346 -1.75678 0)
(23.4335 -1.75684 0)
(23.4326 -1.7569 0)
(23.4319 -1.75695 0)
(23.4313 -1.75697 0)
(23.4308 -1.75699 0)
(23.4304 -1.75698 0)
(23.4301 -1.75697 0)
(23.4299 -1.75695 0)
(23.4297 -1.75692 0)
(23.4296 -1.7569 0)
(23.4295 -1.75688 0)
(23.4294 -1.75685 0)
(23.4294 -1.75683 0)
(23.4294 -1.7568 0)
(23.4293 -1.75677 0)
(23.4293 -1.75674 0)
(23.4293 -1.75671 0)
(23.4293 -1.75669 0)
(23.4294 -1.75666 0)
(23.4294 -1.75663 0)
(23.4294 -1.7566 0)
(23.4294 -1.75658 0)
(23.4294 -1.75655 0)
(23.4294 -1.75653 0)
(23.4294 -1.75651 0)
(23.4294 -1.75648 0)
(23.4294 -1.75646 0)
(23.4295 -1.75645 0)
(23.4295 -1.75643 0)
(23.4295 -1.75642 0)
(23.4295 -1.75641 0)
(23.4296 -1.75641 0)
(23.4296 -1.75641 0)
(23.4297 -1.75642 0)
(23.4297 -1.75643 0)
(23.4298 -1.75644 0)
(23.4299 -1.75646 0)
(23.4299 -1.75648 0)
(23.43 -1.7565 0)
(23.4301 -1.75653 0)
(23.4302 -1.75656 0)
(23.4303 -1.75659 0)
(23.4305 -1.75663 0)
(23.4306 -1.75667 0)
(23.4307 -1.75671 0)
(23.4308 -1.75676 0)
(23.4309 -1.7568 0)
(23.431 -1.75685 0)
(23.4312 -1.7569 0)
(23.4313 -1.75694 0)
(23.4314 -1.75698 0)
(23.4315 -1.75702 0)
(23.4316 -1.75705 0)
(23.4317 -1.75707 0)
(23.4318 -1.75708 0)
(23.4319 -1.7571 0)
(23.432 -1.7571 0)
(23.4321 -1.75712 0)
(23.4322 -1.7571 0)
(23.4323 -1.75712 0)
(23.4324 -1.75711 0)
(23.4326 -1.75713 0)
(23.4328 -1.75715 0)
(23.433 -1.75718 0)
(23.4333 -1.75721 0)
(23.4337 -1.75724 0)
(23.4342 -1.75728 0)
(23.4347 -1.7573 0)
(23.4354 -1.75732 0)
(23.4363 -1.75733 0)
(23.4373 -1.75733 0)
(23.4384 -1.75732 0)
(23.4398 -1.75733 0)
(23.4413 -1.75734 0)
(23.4431 -1.75737 0)
(23.445 -1.75742 0)
(23.4471 -1.75746 0)
(23.4493 -1.75749 0)
(23.4516 -1.75748 0)
(23.4538 -1.75745 0)
(23.4558 -1.7574 0)
(23.4576 -1.75736 0)
(23.4589 -1.75733 0)
(23.4598 -1.75735 0)
(23.5145 -1.76138 0)
(-0.0166802 0.467223 0)
(-0.0166799 0.467097 0)
(-0.0166858 0.467033 0)
(-0.0166923 0.466919 0)
(-0.0166984 0.466763 0)
(-0.0167033 0.466586 0)
(-0.0167076 0.466413 0)
(-0.0167114 0.466263 0)
(-0.016714 0.466147 0)
(-0.0167149 0.46607 0)
(-0.0167146 0.466026 0)
(-0.016714 0.466007 0)
(-0.0167136 0.466003 0)
(-0.0167129 0.466004 0)
(-0.0167122 0.466014 0)
(-0.0167108 0.466041 0)
(-0.0167081 0.466096 0)
(-0.0167037 0.466184 0)
(-0.0166977 0.466304 0)
(-0.0166907 0.466451 0)
(-0.0166828 0.466618 0)
(-0.016674 0.46679 0)
(-0.016664 0.466962 0)
(-0.0166529 0.467122 0)
(-0.0166403 0.467267 0)
(-0.0166263 0.467391 0)
(-0.0166098 0.467496 0)
(-0.0165899 0.467581 0)
(-0.016564 0.467649 0)
(-0.0165287 0.4677 0)
(-0.0164814 0.467734 0)
(-0.0164264 0.467758 0)
(-0.0163664 0.467781 0)
(-0.016304 0.467811 0)
(-0.016239 0.46785 0)
(-0.0161716 0.467898 0)
(-0.016101 0.467955 0)
(-0.0160279 0.468022 0)
(-0.015952 0.468097 0)
(-0.0158746 0.468183 0)
(-0.0157959 0.468279 0)
(-0.0157162 0.468383 0)
(-0.0156353 0.468495 0)
(-0.0155529 0.468613 0)
(-0.015468 0.468734 0)
(-0.01538 0.468854 0)
(-0.0152879 0.468971 0)
(-0.0151911 0.469081 0)
(-0.0150884 0.469182 0)
(-0.014979 0.469268 0)
(-0.0148617 0.469336 0)
(-0.0147361 0.469381 0)
(-0.0146025 0.469398 0)
(-0.0144624 0.469383 0)
(-0.0143176 0.469336 0)
(-0.0141689 0.469257 0)
(-0.0140159 0.469148 0)
(-0.0138576 0.469013 0)
(-0.0136919 0.468853 0)
(-0.0135164 0.468674 0)
(-0.0133285 0.46848 0)
(-0.013126 0.468275 0)
(-0.0129076 0.468062 0)
(-0.0126731 0.467846 0)
(-0.012423 0.467628 0)
(-0.0121587 0.467409 0)
(-0.0118816 0.467192 0)
(-0.0115948 0.466973 0)
(-0.0113024 0.466749 0)
(-0.0110094 0.466512 0)
(-0.0107239 0.466251 0)
(-0.0104574 0.465954 0)
(-0.0102229 0.465606 0)
(-0.0100274 0.465204 0)
(-0.00987182 0.464746 0)
(-0.00975177 0.464235 0)
(-0.00966038 0.463675 0)
(-0.00959052 0.463073 0)
(-0.00953569 0.462442 0)
(-0.00949223 0.461798 0)
(-0.00945939 0.461161 0)
(-0.00943601 0.460548 0)
(-0.00942019 0.459978 0)
(-0.00941021 0.459469 0)
(-0.00940468 0.45904 0)
(-0.00940251 0.458703 0)
(-0.00940344 0.458467 0)
(-0.00940665 0.458326 0)
(-0.00940971 0.458263 0)
(-0.00941104 0.458247 0)
(-0.00941156 0.458251 0)
(-0.00941073 0.458282 0)
(-0.00940818 0.458367 0)
(-0.0094035 0.458525 0)
(-0.0093947 0.458761 0)
(-0.00937863 0.459053 0)
(-0.00935421 0.459361 0)
(-0.00932634 0.459632 0)
(-0.00930563 0.459819 0)
(-0.00929965 0.460003 0)
(-0.0189461 1.3105 0)
(-0.0189383 1.30992 0)
(-0.0189301 1.30963 0)
(-0.018911 1.30923 0)
(-0.0188817 1.30878 0)
(-0.0188484 1.30833 0)
(-0.0188163 1.30795 0)
(-0.0187865 1.30764 0)
(-0.0187599 1.30743 0)
(-0.0187371 1.3073 0)
(-0.0187187 1.30724 0)
(-0.0187039 1.30721 0)
(-0.0186862 1.30722 0)
(-0.0186691 1.30724 0)
(-0.0186473 1.30729 0)
(-0.0186205 1.30738 0)
(-0.0185893 1.3075 0)
(-0.0185547 1.30765 0)
(-0.0185171 1.30781 0)
(-0.0184767 1.30798 0)
(-0.0184342 1.30814 0)
(-0.01839 1.30829 0)
(-0.0183442 1.30843 0)
(-0.0182967 1.30855 0)
(-0.0182473 1.30864 0)
(-0.0181954 1.30872 0)
(-0.0181398 1.30878 0)
(-0.0180797 1.30882 0)
(-0.0180154 1.30884 0)
(-0.0179481 1.30884 0)
(-0.0178787 1.30885 0)
(-0.017807 1.30885 0)
(-0.0177329 1.30887 0)
(-0.0176558 1.30889 0)
(-0.0175748 1.30892 0)
(-0.0174886 1.30896 0)
(-0.0173966 1.309 0)
(-0.0172982 1.30904 0)
(-0.0171937 1.30909 0)
(-0.0170837 1.30914 0)
(-0.0169691 1.3092 0)
(-0.0168508 1.30926 0)
(-0.0167292 1.30933 0)
(-0.0166043 1.3094 0)
(-0.016476 1.30947 0)
(-0.0163436 1.30953 0)
(-0.0162068 1.30959 0)
(-0.0160651 1.30964 0)
(-0.0159188 1.30967 0)
(-0.0157683 1.30969 0)
(-0.0156144 1.30968 0)
(-0.015458 1.30965 0)
(-0.0152998 1.30959 0)
(-0.0151401 1.30952 0)
(-0.0149794 1.30942 0)
(-0.0148176 1.30931 0)
(-0.0146548 1.30917 0)
(-0.0144897 1.30902 0)
(-0.0143203 1.30885 0)
(-0.0141437 1.30868 0)
(-0.0139564 1.3085 0)
(-0.0137551 1.30832 0)
(-0.0135373 1.30814 0)
(-0.0133022 1.30798 0)
(-0.0130515 1.30782 0)
(-0.0127891 1.30767 0)
(-0.01252 1.30752 0)
(-0.0122474 1.30735 0)
(-0.0119749 1.30718 0)
(-0.0117042 1.30699 0)
(-0.011439 1.30677 0)
(-0.0111844 1.30653 0)
(-0.0109437 1.30626 0)
(-0.0107217 1.30597 0)
(-0.0105246 1.30564 0)
(-0.0103544 1.30528 0)
(-0.0102104 1.3049 0)
(-0.0100898 1.30451 0)
(-0.00998971 1.30414 0)
(-0.00990741 1.30379 0)
(-0.00984077 1.30349 0)
(-0.00978899 1.30325 0)
(-0.00974852 1.30308 0)
(-0.0097162 1.30297 0)
(-0.00969093 1.30292 0)
(-0.0096672 1.30291 0)
(-0.00964713 1.30294 0)
(-0.00962166 1.30301 0)
(-0.00958711 1.30316 0)
(-0.00954829 1.30341 0)
(-0.00951828 1.30379 0)
(-0.00950164 1.30434 0)
(-0.00949478 1.30508 0)
(-0.00949425 1.306 0)
(-0.00949998 1.30704 0)
(-0.00951502 1.30811 0)
(-0.00954144 1.30907 0)
(-0.00957425 1.30981 0)
(-0.0096013 1.31026 0)
(-0.00961674 1.31088 0)
(0.426399 1.51183 0)
(0.426026 1.51357 0)
(0.426025 1.51353 0)
(0.426023 1.51339 0)
(0.426021 1.51311 0)
(0.426022 1.51269 0)
(0.426027 1.51221 0)
(0.426035 1.51172 0)
(0.426045 1.51132 0)
(0.426054 1.51102 0)
(0.426063 1.51083 0)
(0.42607 1.51073 0)
(0.426075 1.51069 0)
(0.426078 1.51068 0)
(0.426082 1.51068 0)
(0.426088 1.51071 0)
(0.426099 1.51077 0)
(0.426114 1.51089 0)
(0.426133 1.51104 0)
(0.426155 1.51123 0)
(0.426178 1.51142 0)
(0.426203 1.51161 0)
(0.426227 1.51177 0)
(0.42625 1.51189 0)
(0.426271 1.51198 0)
(0.426288 1.51203 0)
(0.426302 1.51205 0)
(0.426315 1.51205 0)
(0.426326 1.51204 0)
(0.426339 1.51201 0)
(0.426355 1.51197 0)
(0.426375 1.51191 0)
(0.426398 1.51183 0)
(0.426427 1.51174 0)
(0.426463 1.51165 0)
(0.426506 1.51154 0)
(0.426559 1.51144 0)
(0.426625 1.51133 0)
(0.426709 1.51122 0)
(0.426816 1.51113 0)
(0.426943 1.51104 0)
(0.427079 1.51095 0)
(0.427221 1.51084 0)
(0.427369 1.51073 0)
(0.427523 1.51062 0)
(0.427681 1.5105 0)
(0.427844 1.51038 0)
(0.428012 1.51027 0)
(0.428188 1.51017 0)
(0.428374 1.51008 0)
(0.428576 1.51003 0)
(0.428798 1.51001 0)
(0.429043 1.51004 0)
(0.429312 1.51013 0)
(0.429608 1.51028 0)
(0.429935 1.51049 0)
(0.430298 1.51077 0)
(0.430702 1.5111 0)
(0.431153 1.51148 0)
(0.431651 1.51192 0)
(0.432204 1.51239 0)
(0.432813 1.5129 0)
(0.433476 1.51343 0)
(0.434182 1.51399 0)
(0.434918 1.51457 0)
(0.43567 1.51517 0)
(0.436419 1.51578 0)
(0.437145 1.51638 0)
(0.437835 1.51696 0)
(0.438486 1.51747 0)
(0.439106 1.51789 0)
(0.4397 1.5182 0)
(0.440275 1.51837 0)
(0.440838 1.51838 0)
(0.441383 1.51821 0)
(0.441896 1.51787 0)
(0.442376 1.5174 0)
(0.44282 1.51683 0)
(0.443225 1.51624 0)
(0.443581 1.51568 0)
(0.443877 1.51523 0)
(0.444111 1.51491 0)
(0.444292 1.51475 0)
(0.444452 1.51474 0)
(0.444561 1.5149 0)
(0.444657 1.51525 0)
(0.444733 1.51583 0)
(0.444791 1.51667 0)
(0.444853 1.51777 0)
(0.444928 1.5191 0)
(0.445013 1.52064 0)
(0.445097 1.52232 0)
(0.445169 1.52411 0)
(0.445222 1.52591 0)
(0.445256 1.52758 0)
(0.44527 1.52892 0)
(0.445272 1.52982 0)
(0.445269 1.53023 0)
(0.445266 1.53033 0)
(0.445348 1.52105 0)
(1.44889 1.80677 0)
(1.44846 1.81142 0)
(1.44846 1.81142 0)
(1.44846 1.8114 0)
(1.44846 1.81132 0)
(1.44846 1.81117 0)
(1.44846 1.81097 0)
(1.44846 1.81074 0)
(1.44846 1.81057 0)
(1.44846 1.81043 0)
(1.44846 1.81037 0)
(1.44846 1.81034 0)
(1.44846 1.81034 0)
(1.44846 1.81034 0)
(1.44846 1.81036 0)
(1.44846 1.81039 0)
(1.44846 1.81045 0)
(1.44846 1.81051 0)
(1.44846 1.8106 0)
(1.44846 1.81066 0)
(1.44846 1.81073 0)
(1.44846 1.81077 0)
(1.44846 1.81081 0)
(1.44847 1.81083 0)
(1.44847 1.81084 0)
(1.44847 1.81084 0)
(1.44847 1.81084 0)
(1.44847 1.81083 0)
(1.44848 1.8108 0)
(1.44848 1.81076 0)
(1.44848 1.8107 0)
(1.44849 1.81061 0)
(1.4485 1.8105 0)
(1.44851 1.81038 0)
(1.44852 1.81023 0)
(1.44854 1.81007 0)
(1.44856 1.8099 0)
(1.4486 1.80972 0)
(1.44865 1.80953 0)
(1.44873 1.80933 0)
(1.44883 1.80914 0)
(1.44895 1.80894 0)
(1.44907 1.80873 0)
(1.44919 1.80852 0)
(1.44933 1.8083 0)
(1.44947 1.80807 0)
(1.44964 1.80785 0)
(1.44982 1.80763 0)
(1.45002 1.80743 0)
(1.45027 1.80725 0)
(1.45054 1.80711 0)
(1.45086 1.807 0)
(1.45122 1.80695 0)
(1.45162 1.80695 0)
(1.45207 1.80701 0)
(1.45256 1.80712 0)
(1.4531 1.80727 0)
(1.45368 1.80747 0)
(1.45431 1.80774 0)
(1.45498 1.80809 0)
(1.45568 1.80851 0)
(1.45643 1.80903 0)
(1.45721 1.80965 0)
(1.45802 1.81037 0)
(1.45887 1.81121 0)
(1.45974 1.81215 0)
(1.46065 1.81318 0)
(1.46159 1.81427 0)
(1.46255 1.81542 0)
(1.46353 1.81658 0)
(1.46453 1.81774 0)