/*--------------------------------*- C++ -*----------------------------------*\
| =========                 |                                                 |
| \\      /  F ield         | OpenFOAM: The Open Source CFD Toolbox           |
|  \\    /   O peration     | Version:  2406                                  |
|   \\  /    A nd           | Website:  www.openfoam.com                      |
|    \\/     M anipulation  |                                                 |
\*---------------------------------------------------------------------------*/
FoamFile
{
    version     2.0;
    format      ascii;
    arch        "LSB;label=32;scalar=64";
    class       volVectorField;
    location    "0.03";
    object      U;
}
// * * * * * * * * * * * * * * * * * * * * * * * * * * * * * * * * * * * * * //

dimensions      [0 1 -1 0 0 0 0];

internalField   nonuniform List<vector> 
14020
(
(4.6694e-12 6.61526e-12 -9.73713e-13)
(5.30835e-12 7.13683e-12 -2.09601e-12)
(4.52151e-12 6.8922e-12 -2.70329e-12)
(4.75998e-12 6.93213e-12 -3.61198e-12)
(2.94366e-12 6.68915e-12 -4.89127e-12)
(1.36676e-12 5.50024e-12 -5.4551e-12)
(2.59119e-12 4.56918e-12 -7.40456e-12)
(1.99945e-12 3.04228e-12 -8.6516e-12)
(1.84364e-12 1.16999e-12 -7.69356e-12)
(4.74001e-12 9.1066e-13 -6.98483e-12)
(7.10081e-12 2.5237e-12 -7.84132e-12)
(9.65561e-12 3.77543e-12 -7.9081e-12)
(1.14722e-11 4.73054e-12 -6.01908e-12)
(1.08083e-11 5.20281e-12 -7.97409e-12)
(1.10216e-11 5.33632e-12 -7.30156e-12)
(1.15918e-11 6.24881e-12 -7.40146e-12)
(8.81015e-12 8.63591e-12 -6.10341e-12)
(6.43797e-12 1.07164e-11 -5.76771e-12)
(7.69432e-12 1.38246e-11 -5.60542e-12)
(4.69874e-12 1.68802e-11 -4.99759e-12)
(-5.97803e-13 1.72389e-11 -4.94131e-12)
(-2.87541e-12 1.61001e-11 -9.628e-12)
(-3.13634e-12 1.45425e-11 -1.40585e-11)
(-3.29203e-12 1.26224e-11 -1.43669e-11)
(-3.64139e-12 1.27927e-11 -1.56769e-11)
(-6.38067e-12 1.32497e-11 -1.56169e-11)
(-7.45152e-12 1.2223e-11 -1.46493e-11)
(-6.66236e-12 1.25715e-11 -1.34781e-11)
(-7.64569e-12 1.39422e-11 -1.37402e-11)
(-1.16464e-11 1.39192e-11 -1.26646e-11)
(-1.50334e-11 1.24644e-11 -1.17741e-11)
(-1.49086e-11 9.67015e-12 -9.58684e-12)
(-1.34369e-11 8.70571e-12 -6.94768e-12)
(-1.22001e-11 7.50024e-12 -9.34378e-12)
(-1.0455e-11 6.63974e-12 -1.26202e-11)
(-1.16781e-11 5.82474e-12 -1.58376e-11)
(-1.4217e-11 6.51603e-12 -1.97357e-11)
(-1.45701e-11 6.27476e-12 -2.37564e-11)
(-1.38771e-11 4.65984e-12 -2.00451e-11)
(-1.04118e-11 1.57843e-12 -1.60881e-11)
(-9.88664e-12 6.15328e-13 -1.08739e-11)
(-8.39294e-12 -8.84761e-13 -7.20576e-12)
(-4.32666e-12 -1.21419e-12 -6.16965e-12)
(-9.23764e-13 5.03568e-15 -5.60047e-12)
(1.35296e-12 7.63004e-13 -1.58403e-12)
(1.74167e-12 2.71975e-12 2.76116e-12)
(4.90854e-13 3.27462e-12 5.64182e-12)
(7.51047e-13 2.9632e-12 2.51023e-12)
(4.36256e-12 3.33251e-12 -1.98631e-12)
(5.434e-12 3.71802e-12 -6.54044e-12)
(5.84414e-12 2.79384e-12 -5.69521e-12)
(7.37505e-12 2.30218e-12 -6.1808e-12)
(9.00226e-12 2.11458e-12 -7.31283e-12)
(1.16314e-11 2.52696e-12 -6.82215e-12)
(1.33489e-11 5.30547e-12 -6.15271e-12)
(1.2142e-11 8.20509e-12 -8.46355e-12)
(1.06961e-11 1.02924e-11 -9.748e-12)
(9.85649e-12 1.19362e-11 -8.87109e-12)
(7.88557e-12 1.38258e-11 -5.91996e-12)
(5.56276e-12 1.28451e-11 -1.62987e-12)
(3.82447e-12 1.18225e-11 -1.89844e-12)
(3.90433e-12 9.82746e-12 -5.18961e-13)
(3.32435e-12 8.79806e-12 1.96931e-12)
(1.93524e-13 8.96767e-12 1.95916e-12)
(-3.57453e-12 1.11068e-11 2.51309e-12)
(-6.01813e-12 1.09755e-11 5.56029e-12)
(-5.23937e-12 1.08401e-11 9.11696e-12)
(-6.91428e-12 1.02745e-11 6.95295e-12)
(-1.06968e-11 6.86126e-12 4.78948e-12)
(-1.04053e-11 3.44559e-12 3.05398e-12)
(-7.74702e-12 3.64624e-12 2.49345e-12)
(-6.63978e-12 3.08568e-12 3.59042e-12)
(-6.21695e-12 3.02758e-12 4.62663e-12)
(-5.16509e-12 4.03664e-12 5.85393e-12)
(-4.442e-12 4.90659e-12 7.1547e-12)
(-3.80989e-12 4.82175e-12 7.3063e-12)
(-4.00067e-12 5.02945e-12 7.13535e-12)
(-3.09917e-12 4.20725e-12 8.87467e-12)
(-1.45487e-12 5.57493e-12 1.09258e-11)
(-4.03602e-13 6.11231e-12 1.30101e-11)
(1.3602e-12 6.88693e-12 1.17666e-11)
(1.40327e-12 9.69486e-12 1.1672e-11)
(-1.74952e-12 1.21973e-11 9.27549e-12)
(-6.22013e-12 1.19397e-11 8.00066e-12)
(-7.86011e-12 9.17689e-12 8.16528e-12)
(-6.49035e-12 6.7182e-12 1.04203e-11)
(-4.90953e-12 4.88447e-12 1.30899e-11)
(-3.29821e-12 3.7708e-12 1.12826e-11)
(-1.28709e-12 2.20976e-12 1.05777e-11)
(1.64451e-13 2.73283e-12 1.19722e-11)
(-2.86723e-13 4.09763e-12 1.12162e-11)
(-2.30733e-12 5.25823e-12 1.24232e-11)
(-3.20186e-12 6.39805e-12 1.17814e-11)
(-2.052e-12 7.52164e-12 8.99199e-12)
(-4.16769e-12 8.8203e-12 6.28784e-12)
(-8.19379e-12 9.31887e-12 5.83473e-12)
(-9.57617e-12 8.08642e-12 5.30882e-12)
(-8.18354e-12 7.75013e-12 5.08397e-12)
(-9.1442e-12 7.99879e-12 4.61539e-12)
(-1.04781e-11 6.72738e-12 4.27129e-12)
(-9.39986e-12 5.7946e-12 3.39597e-12)
(-7.94727e-12 4.44872e-12 2.93436e-12)
(-7.79462e-12 2.98847e-12 2.87525e-12)
(-7.42118e-12 2.48819e-12 3.80104e-12)
(-6.69467e-12 1.92311e-12 2.77044e-12)
(-6.30077e-12 8.72343e-13 2.69469e-12)
(-4.99154e-12 5.80995e-13 3.85371e-12)
(-3.15956e-12 4.17288e-13 1.6581e-12)
(-6.74524e-13 -4.43539e-13 -1.20403e-12)
(1.38759e-12 2.08529e-12 -3.65358e-12)
(2.14346e-12 3.93219e-12 -5.96479e-12)
(-3.97459e-15 5.18332e-12 -6.67047e-12)
(-8.3472e-13 3.87633e-12 -7.41835e-12)
(1.56904e-12 3.31441e-12 -7.87393e-12)
(2.44482e-12 2.93947e-12 -9.94765e-12)
(2.69723e-12 1.85089e-12 -7.70244e-12)
(5.15944e-12 -4.64754e-13 -5.89373e-12)
(8.1213e-12 -4.11532e-13 -5.11469e-12)
(8.47613e-12 6.09939e-13 -3.36923e-12)
(9.78219e-12 1.92376e-12 -2.39903e-12)
(9.97227e-12 2.38721e-12 -9.16507e-13)
(1.14863e-11 1.99652e-12 -2.0902e-12)
(1.48292e-11 2.22475e-12 -3.40289e-12)
(1.45067e-11 4.8039e-12 -4.74673e-12)
(1.46552e-11 5.86786e-12 -6.57708e-12)
(1.30974e-11 6.83333e-12 -7.88995e-12)
(1.11392e-11 6.25283e-12 -8.68154e-12)
(1.26581e-11 5.29067e-12 -1.00112e-11)
(1.42561e-11 5.73233e-12 -1.20827e-11)
(1.23774e-11 6.77106e-12 -1.28924e-11)
(1.05563e-11 6.09786e-12 -1.30522e-11)
(1.1027e-11 6.50019e-12 -1.36948e-11)
(1.25423e-11 7.74613e-12 -1.42196e-11)
(1.18028e-11 9.7035e-12 -1.40781e-11)
(7.27277e-12 1.03208e-11 -1.57308e-11)
(4.18507e-12 8.55029e-12 -1.78724e-11)
(2.83311e-12 9.74568e-12 -2.26887e-11)
(-6.17835e-13 9.05635e-12 -2.5805e-11)
(-9.54614e-13 8.03823e-12 -2.44815e-11)
(-9.97414e-14 7.66464e-12 -2.38214e-11)
(-1.05486e-12 7.62854e-12 -2.33339e-11)
(-3.19794e-13 6.36443e-12 -1.87791e-11)
(3.07319e-12 4.7685e-12 -1.52732e-11)
(3.48417e-12 6.05394e-12 -1.22456e-11)
(4.93359e-12 4.87097e-12 -8.31459e-12)
(5.30277e-12 6.67929e-12 -5.2614e-12)
(2.67267e-12 7.11518e-12 -4.22118e-12)
(2.79893e-12 5.73277e-12 -1.78764e-12)
(2.18969e-12 6.87487e-12 5.21977e-14)
(1.45901e-12 7.15209e-12 8.48874e-13)
(2.72734e-12 7.46565e-12 1.77263e-12)
(2.33553e-12 7.04206e-12 -2.67679e-12)
(1.4838e-12 5.65589e-12 -3.88345e-12)
(2.61862e-12 4.57153e-12 -4.06303e-12)
(4.11278e-12 3.93731e-12 -2.85597e-12)
(6.07468e-12 4.23381e-12 -3.23762e-12)
(8.20744e-12 4.90635e-12 -3.45314e-12)
(7.83996e-12 6.54486e-12 -4.05598e-12)
(7.62102e-12 6.96184e-12 -4.79307e-12)
(8.79196e-12 8.15678e-12 -5.32432e-12)
(6.84245e-12 1.08972e-11 -6.21454e-12)
(3.93707e-12 1.33769e-11 -9.51054e-12)
(-2.57594e-13 1.10689e-11 -1.13123e-11)
(-4.74861e-12 1.03874e-11 -1.45843e-11)
(-6.42235e-12 9.27571e-12 -1.88718e-11)
(-6.34691e-12 7.27566e-12 -1.6259e-11)
(-3.75145e-12 5.26858e-12 -1.40148e-11)
(-3.67973e-12 4.88552e-12 -1.17349e-11)
(-3.17551e-12 3.77759e-12 -1.04321e-11)
(-1.15379e-12 4.20141e-12 -9.69461e-12)
(7.06793e-13 4.50777e-12 -1.00341e-11)
(1.50017e-12 5.18592e-12 -7.86413e-12)
(-8.92397e-13 5.45379e-12 -5.95287e-12)
(-2.35114e-12 3.9136e-12 -5.06554e-12)
(-1.9532e-12 3.70832e-12 -3.37116e-12)
(-1.57832e-12 5.05793e-12 -1.77607e-12)
(-1.08029e-12 6.80014e-12 -2.87668e-12)
(-4.32121e-12 8.21246e-12 -3.25531e-12)
(-7.26807e-12 7.89291e-12 -3.60871e-12)
(-7.19016e-12 7.19844e-12 -4.06557e-12)
(-6.28142e-12 6.20725e-12 -2.7832e-12)
(-6.12543e-12 5.60121e-12 -3.19387e-12)
(-6.84077e-12 4.62237e-12 -3.61599e-12)
(-5.74799e-12 2.88538e-12 -3.70727e-12)
(-3.63235e-12 1.61886e-12 -3.67646e-12)
(-1.41187e-12 1.54748e-12 -2.90082e-12)
(-1.12528e-12 1.92954e-12 -1.89716e-12)
(5.89141e-14 2.24307e-12 -3.24676e-12)
(2.73923e-12 4.18146e-12 -4.3868e-12)
(3.47e-12 6.75466e-12 -5.89463e-12)
(1.42713e-12 8.82813e-12 -5.14652e-12)
(4.55664e-13 8.30982e-12 -3.57377e-12)
(-8.07726e-13 8.54475e-12 -1.78807e-12)
(-4.24917e-12 7.74656e-12 -2.24368e-12)
(-6.13198e-12 5.8519e-12 -3.57754e-12)
(-5.09938e-12 3.74955e-12 -4.7973e-12)
(-2.59426e-12 4.0394e-12 -5.0831e-12)
(-1.39896e-12 5.55517e-12 -5.38617e-12)
(-3.86792e-12 6.61907e-12 -5.10063e-12)
(-6.49729e-12 6.54963e-12 -4.57556e-12)
(-6.59088e-12 5.51899e-12 -3.84568e-12)
(-5.41257e-12 4.37372e-12 -3.38514e-12)
(-4.61321e-12 3.11862e-12 -2.83946e-12)
(-4.51835e-12 1.85346e-12 -4.0937e-12)
(-3.7474e-12 1.3944e-12 -5.73952e-12)
(-1.12804e-12 1.94346e-12 -6.12964e-12)
(-1.58513e-12 4.06814e-12 -8.37954e-12)
(-3.14235e-12 4.75859e-12 -1.23648e-11)
(-1.59783e-12 5.75346e-12 -1.54964e-11)
(-3.1846e-12 7.19333e-12 -1.31606e-11)
(-4.60797e-12 6.36905e-12 -9.5033e-12)
(-3.78202e-12 5.76559e-12 -6.70561e-12)
(-3.9996e-12 4.03912e-12 -5.82937e-12)
(-2.63401e-12 2.86385e-12 -5.72833e-12)
(-4.39351e-13 3.15367e-12 -3.57318e-12)
(2.19019e-12 4.09511e-12 -2.28502e-12)
(2.05702e-12 5.52535e-12 -2.25967e-12)
(1.39426e-12 5.74042e-12 -1.42423e-12)
(2.37288e-12 6.32067e-12 -1.17881e-12)
(1.83383e-12 7.3051e-12 8.99209e-13)
(1.45755e-12 6.99205e-12 3.22538e-12)
(1.92248e-12 6.66455e-12 1.35421e-12)
(3.47801e-12 5.49393e-12 3.32601e-13)
(5.43501e-12 5.52032e-12 -4.77905e-13)
(4.81119e-12 6.14153e-12 -4.22521e-13)
(3.12254e-12 5.85253e-12 -1.30378e-12)
(4.62879e-12 6.30513e-12 -2.09722e-12)
(4.35949e-12 7.50118e-12 -2.64377e-12)
(3.07302e-12 7.36033e-12 -2.59439e-12)
(3.4499e-12 7.50666e-12 -1.32535e-12)
(3.41059e-12 7.25823e-12 1.74848e-12)
(4.23392e-12 6.34359e-12 -1.51172e-12)
(4.83678e-12 7.30947e-12 -1.99124e-12)
(4.53806e-12 6.97353e-12 -2.62598e-12)
(4.60311e-12 6.62239e-12 -3.6305e-12)
(3.49132e-12 6.88232e-12 -4.76824e-12)
(2.43613e-12 5.42783e-12 -5.30181e-12)
(2.6662e-12 4.62825e-12 -6.68242e-12)
(3.0507e-12 3.17518e-12 -7.26686e-12)
(2.94498e-12 1.41793e-12 -7.12167e-12)
(4.42245e-12 1.20878e-12 -7.02538e-12)
(6.70218e-12 2.15664e-12 -7.70816e-12)
(8.89093e-12 3.07453e-12 -8.32017e-12)
(1.06656e-11 4.23838e-12 -7.12473e-12)
(1.0982e-11 5.10875e-12 -8.33165e-12)
(1.13727e-11 5.70291e-12 -8.67948e-12)
(1.06404e-11 6.82773e-12 -7.85161e-12)
(8.85922e-12 9.27425e-12 -6.23891e-12)
(6.77948e-12 1.08713e-11 -5.5132e-12)
(5.74517e-12 1.40446e-11 -5.68893e-12)
(3.02894e-12 1.65604e-11 -5.41273e-12)
(-1.22464e-13 1.69817e-11 -5.88176e-12)
(-1.59379e-12 1.53821e-11 -9.24459e-12)
(-1.81483e-12 1.41044e-11 -1.33095e-11)
(-2.88478e-12 1.24286e-11 -1.49514e-11)
(-4.45158e-12 1.30533e-11 -1.61214e-11)
(-6.05141e-12 1.37286e-11 -1.57624e-11)
(-7.1458e-12 1.26083e-11 -1.4895e-11)
(-7.48135e-12 1.28446e-11 -1.37274e-11)
(-8.26542e-12 1.41601e-11 -1.3955e-11)
(-1.14493e-11 1.40101e-11 -1.2953e-11)
(-1.39529e-11 1.18092e-11 -1.09207e-11)
(-1.4112e-11 9.08106e-12 -1.05339e-11)
(-1.32812e-11 8.54253e-12 -9.28841e-12)
(-1.20128e-11 7.50664e-12 -1.04694e-11)
(-1.09783e-11 6.74501e-12 -1.27843e-11)
(-1.20042e-11 6.71235e-12 -1.52112e-11)
(-1.44604e-11 6.60164e-12 -1.76316e-11)
(-1.39772e-11 6.50266e-12 -1.98189e-11)
(-1.22238e-11 4.38363e-12 -1.81676e-11)
(-1.03623e-11 1.14638e-12 -1.49276e-11)
(-1.02209e-11 6.7828e-13 -1.05384e-11)
(-8.1861e-12 -9.79314e-13 -7.08746e-12)
(-4.34958e-12 -1.06378e-12 -5.86099e-12)
(-7.29744e-13 1.22126e-13 -4.69023e-12)
(1.07224e-12 1.72699e-12 -1.49198e-12)
(1.09283e-12 2.85976e-12 2.27262e-12)
(8.76412e-13 2.99409e-12 4.17468e-12)
(1.51628e-12 2.901e-12 2.62893e-12)
(3.55069e-12 3.31914e-12 2.31407e-13)
(4.9675e-12 3.9266e-12 -3.74393e-12)
(6.66959e-12 3.13039e-12 -4.64943e-12)
(8.08642e-12 2.46895e-12 -6.3504e-12)
(9.8905e-12 2.41914e-12 -7.99578e-12)
(1.09496e-11 3.87326e-12 -8.09286e-12)
(1.10918e-11 6.05444e-12 -6.61713e-12)
(1.14669e-11 8.60992e-12 -8.30718e-12)
(1.13783e-11 1.08532e-11 -9.23893e-12)
(9.19758e-12 1.20165e-11 -8.8719e-12)
(7.15611e-12 1.34857e-11 -6.756e-12)
(6.32771e-12 1.27547e-11 -2.96458e-12)
(5.1088e-12 1.17014e-11 -1.75236e-12)
(5.21417e-12 9.21739e-12 -7.31206e-13)
(2.78693e-12 8.94429e-12 1.37641e-12)
(-1.38394e-12 9.34222e-12 2.12909e-12)
(-4.70599e-12 1.07351e-11 2.2106e-12)
(-5.67139e-12 1.05859e-11 4.64015e-12)
(-5.51093e-12 1.09963e-11 6.67333e-12)
(-6.0915e-12 1.09525e-11 5.38872e-12)
(-7.97895e-12 7.90546e-12 3.69367e-12)
(-9.33032e-12 4.5984e-12 2.03612e-12)
(-7.77478e-12 3.65443e-12 2.51974e-12)
(-6.43053e-12 3.04404e-12 3.88e-12)
(-6.96841e-12 2.96881e-12 4.98714e-12)
(-6.21314e-12 3.85017e-12 5.9094e-12)
(-4.68806e-12 4.96294e-12 7.43866e-12)
(-3.56409e-12 5.19838e-12 7.37767e-12)
(-3.25337e-12 5.36514e-12 8.2435e-12)
(-2.58292e-12 4.41769e-12 9.03483e-12)
(-2.09105e-12 5.62856e-12 1.03226e-11)
(-4.31702e-13 6.38946e-12 1.1542e-11)
(6.20356e-13 7.38368e-12 1.01049e-11)
(-5.69726e-13 9.8619e-12 1.05203e-11)
(-1.90196e-12 1.23409e-11 8.91704e-12)
(-4.9246e-12 1.16539e-11 7.67907e-12)
(-6.81174e-12 9.34371e-12 7.6274e-12)
(-5.5326e-12 7.16623e-12 8.65879e-12)
(-4.3697e-12 5.25511e-12 1.05947e-11)
(-2.30866e-12 4.32384e-12 9.66502e-12)
(-1.21715e-12 2.93085e-12 8.4583e-12)
(-6.78607e-13 3.42485e-12 9.3828e-12)
(-8.46651e-13 5.32003e-12 9.43246e-12)
(-2.48e-12 6.58952e-12 9.99116e-12)
(-3.69918e-12 7.23651e-12 8.98095e-12)
(-3.09738e-12 8.17736e-12 7.42629e-12)
(-4.91027e-12 8.2467e-12 4.62203e-12)
(-7.85432e-12 8.87375e-12 5.09899e-12)
(-8.75372e-12 7.68529e-12 5.05675e-12)
(-8.53715e-12 7.4519e-12 5.16561e-12)
(-8.57456e-12 7.78112e-12 5.13e-12)
(-9.04458e-12 6.31502e-12 5.18215e-12)
(-8.83605e-12 5.40441e-12 4.16206e-12)
(-7.31728e-12 4.38146e-12 3.76583e-12)
(-7.62515e-12 3.01809e-12 2.54237e-12)
(-7.17053e-12 2.07313e-12 2.46e-12)
(-6.33538e-12 1.70202e-12 2.08784e-12)
(-6.60068e-12 9.75753e-13 2.19343e-12)
(-5.52168e-12 1.43204e-13 2.83746e-12)
(-2.95038e-12 3.44812e-13 2.18351e-12)
(-1.36063e-12 -2.0966e-13 -7.32421e-13)
(2.45682e-14 2.34521e-12 -3.64091e-12)
(5.97194e-13 4.00066e-12 -6.36497e-12)
(5.09482e-14 5.62199e-12 -6.3176e-12)
(-2.39123e-14 4.07778e-12 -6.41553e-12)
(1.45199e-12 3.43363e-12 -7.16028e-12)
(2.77983e-12 3.25024e-12 -8.09125e-12)
(4.21321e-12 2.20054e-12 -7.05804e-12)
(5.509e-12 -1.40606e-13 -6.00431e-12)
(7.66283e-12 4.24953e-13 -4.6874e-12)
(8.26056e-12 1.04255e-12 -2.84734e-12)
(9.25482e-12 2.29768e-12 -2.75244e-12)
(1.02594e-11 2.80314e-12 -1.83371e-12)
(1.2163e-11 2.23275e-12 -1.87197e-12)
(1.3918e-11 3.02394e-12 -3.43637e-12)
(1.37456e-11 5.57692e-12 -4.8733e-12)
(1.46671e-11 6.39968e-12 -6.48846e-12)
(1.33512e-11 7.63936e-12 -7.66831e-12)
(1.18461e-11 6.48743e-12 -8.63544e-12)
(1.26672e-11 5.54033e-12 -9.86238e-12)
(1.33219e-11 5.94046e-12 -1.14907e-11)
(1.26905e-11 6.81772e-12 -1.31419e-11)
(1.14867e-11 5.64213e-12 -1.44199e-11)
(1.06194e-11 6.25862e-12 -1.45542e-11)
(1.13924e-11 7.28449e-12 -1.42168e-11)
(1.08415e-11 8.52365e-12 -1.38183e-11)
(7.83341e-12 9.78957e-12 -1.49498e-11)
(5.01948e-12 7.34811e-12 -1.68627e-11)
(2.91791e-12 8.35203e-12 -2.00805e-11)
(4.21067e-13 8.08751e-12 -2.2907e-11)
(-1.07525e-12 6.8883e-12 -2.39736e-11)
(-1.21448e-12 7.08398e-12 -2.34897e-11)
(-9.53615e-13 6.91173e-12 -2.25268e-11)
(4.33315e-13 5.95214e-12 -1.91874e-11)
(3.23076e-12 4.95964e-12 -1.64945e-11)
(3.50284e-12 5.63434e-12 -1.21979e-11)
(4.57174e-12 5.01268e-12 -7.32332e-12)
(3.44294e-12 7.13322e-12 -4.8753e-12)
(3.26746e-12 7.22722e-12 -2.69346e-12)
(3.2153e-12 4.98517e-12 -1.60799e-12)
(1.7798e-12 5.79337e-12 -2.26368e-13)
(1.46388e-12 6.21359e-12 4.14816e-13)
(2.55266e-12 6.71802e-12 5.53631e-13)
(2.89575e-12 6.55242e-12 -7.8397e-13)
(2.28031e-12 5.4654e-12 -2.47838e-12)
(3.13101e-12 4.73071e-12 -3.20275e-12)
(4.16676e-12 4.09626e-12 -3.3047e-12)
(5.62893e-12 4.26243e-12 -2.89782e-12)
(7.40469e-12 5.40662e-12 -3.44139e-12)
(7.63054e-12 7.30562e-12 -4.41081e-12)
(7.73106e-12 7.21166e-12 -4.96801e-12)
(7.87303e-12 9.48617e-12 -5.29151e-12)
(5.50859e-12 1.17084e-11 -5.58904e-12)
(4.04732e-12 1.41817e-11 -8.46553e-12)
(6.42562e-13 1.19326e-11 -1.08579e-11)
(-4.41503e-12 1.12612e-11 -1.26548e-11)
(-5.08145e-12 9.7986e-12 -1.53836e-11)
(-4.3186e-12 6.96645e-12 -1.49532e-11)
(-4.10423e-12 5.02331e-12 -1.22668e-11)
(-3.53553e-12 4.59624e-12 -1.06509e-11)
(-2.7888e-12 3.7989e-12 -9.88241e-12)
(-1.57417e-12 4.10824e-12 -9.13873e-12)
(2.09018e-13 3.48945e-12 -8.92259e-12)
(5.17672e-13 4.70814e-12 -7.97461e-12)
(-2.65195e-13 5.35939e-12 -5.89006e-12)
(-1.22062e-12 3.05084e-12 -4.91796e-12)
(-2.54262e-12 3.53672e-12 -3.79769e-12)
(-3.0382e-12 4.28327e-12 -2.70031e-12)
(-2.92002e-12 6.79209e-12 -3.24707e-12)
(-4.76189e-12 8.95724e-12 -2.99412e-12)
(-7.07807e-12 8.32283e-12 -3.54495e-12)
(-7.01811e-12 7.55234e-12 -3.52039e-12)
(-6.09337e-12 6.6654e-12 -2.99192e-12)
(-6.4223e-12 6.11485e-12 -3.10988e-12)
(-6.08611e-12 4.6274e-12 -3.55105e-12)
(-5.22933e-12 3.30106e-12 -3.6296e-12)
(-3.8332e-12 2.08252e-12 -3.66791e-12)
(-1.83731e-12 1.46205e-12 -3.21808e-12)
(-1.10494e-12 2.12942e-12 -2.37776e-12)
(-1.43134e-14 2.31459e-12 -3.16932e-12)
(2.10064e-12 3.96858e-12 -3.80246e-12)
(2.0504e-12 6.13492e-12 -5.449e-12)
(4.87081e-13 8.18618e-12 -4.65394e-12)
(4.42734e-13 7.97933e-12 -2.95146e-12)
(-6.69578e-13 9.00914e-12 -7.74526e-13)
(-3.86356e-12 8.49186e-12 -1.69522e-12)
(-4.6839e-12 6.3133e-12 -2.88677e-12)
(-4.15687e-12 4.43676e-12 -4.58703e-12)
(-3.17147e-12 4.23768e-12 -4.98974e-12)
(-2.4358e-12 5.51902e-12 -5.49198e-12)
(-3.80686e-12 7.42443e-12 -5.13539e-12)
(-5.88534e-12 7.07614e-12 -4.59913e-12)
(-6.07609e-12 5.64576e-12 -3.52982e-12)
(-5.00385e-12 4.34713e-12 -3.0806e-12)
(-3.9041e-12 2.99878e-12 -3.31962e-12)
(-3.97403e-12 1.47339e-12 -4.22895e-12)
(-3.99579e-12 1.55385e-12 -5.94517e-12)
(-2.33682e-12 2.39035e-12 -6.40541e-12)
(-2.01016e-12 4.53651e-12 -7.91671e-12)
(-2.84481e-12 4.7334e-12 -1.0244e-11)
(-3.19335e-12 5.31709e-12 -1.16788e-11)
(-3.61152e-12 6.52498e-12 -1.07275e-11)
(-3.76091e-12 5.37853e-12 -8.99305e-12)
(-3.68903e-12 5.81042e-12 -6.72496e-12)
(-3.50195e-12 4.494e-12 -5.67462e-12)
(-2.47289e-12 3.34601e-12 -5.41199e-12)
(-5.06819e-13 3.49325e-12 -4.69775e-12)
(1.3808e-12 3.74895e-12 -4.20994e-12)
(1.50563e-12 6.0762e-12 -2.7648e-12)
(1.62369e-12 5.82396e-12 -1.05743e-12)
(2.00252e-12 6.44782e-12 -1.10662e-12)
(1.89635e-12 7.35074e-12 4.20742e-13)
(2.10046e-12 6.75176e-12 1.41112e-12)
(2.58364e-12 6.2951e-12 3.5227e-13)
(3.66085e-12 5.15324e-12 -6.1041e-13)
(5.06288e-12 5.14752e-12 -1.12902e-12)
(5.13992e-12 5.17337e-12 -9.31054e-13)
(3.98374e-12 4.56168e-12 -9.85648e-13)
(3.76676e-12 4.96142e-12 -2.08192e-12)
(3.80509e-12 7.11295e-12 -2.41198e-12)
(3.29644e-12 7.12478e-12 -2.44366e-12)
(2.82073e-12 7.10477e-12 -2.07077e-12)
(2.81434e-12 6.53333e-12 -7.03758e-13)
(3.86533e-12 4.08967e-12 -1.24963e-12)
(4.58667e-12 4.28944e-12 -1.69979e-12)
(4.74928e-12 3.55096e-12 -2.65072e-12)
(4.41002e-12 3.27526e-12 -3.55617e-12)
(3.78641e-12 3.6838e-12 -4.20112e-12)
(3.03058e-12 3.43611e-12 -4.09237e-12)
(3.06992e-12 2.98574e-12 -5.04272e-12)
(3.69455e-12 2.34953e-12 -5.21309e-12)
(3.31716e-12 1.82452e-12 -5.4207e-12)
(4.70456e-12 9.34883e-13 -6.01428e-12)
(6.64867e-12 6.14504e-13 -7.53394e-12)
(8.096e-12 1.04155e-12 -8.05422e-12)
(1.01213e-11 1.97071e-12 -7.16351e-12)
(9.89935e-12 3.89218e-12 -7.41254e-12)
(1.02474e-11 5.63447e-12 -8.56253e-12)
(9.77348e-12 7.26548e-12 -7.42735e-12)
(8.49864e-12 9.14138e-12 -5.23235e-12)
(6.53717e-12 1.04492e-11 -5.60634e-12)
(5.41882e-12 1.23402e-11 -5.22532e-12)
(3.10334e-12 1.30147e-11 -5.05855e-12)
(3.24394e-13 1.31748e-11 -5.97776e-12)
(-1.55901e-12 1.23768e-11 -8.9949e-12)
(-2.24639e-12 1.07499e-11 -1.18502e-11)
(-3.32149e-12 1.10744e-11 -1.34764e-11)
(-4.72062e-12 1.15591e-11 -1.44789e-11)
(-6.09048e-12 1.16788e-11 -1.41947e-11)
(-6.98407e-12 1.19689e-11 -1.31619e-11)
(-7.69358e-12 1.12599e-11 -1.26107e-11)
(-8.8535e-12 1.19524e-11 -1.25809e-11)
(-1.0941e-11 1.12348e-11 -1.21767e-11)
(-1.25484e-11 9.02358e-12 -1.13404e-11)
(-1.40593e-11 7.30096e-12 -1.09144e-11)
(-1.345e-11 6.56251e-12 -1.02508e-11)
(-1.20023e-11 6.21492e-12 -1.0879e-11)
(-1.18019e-11 5.92433e-12 -1.19736e-11)
(-1.13266e-11 6.1022e-12 -1.30762e-11)
(-1.21194e-11 5.2523e-12 -1.44917e-11)
(-1.24757e-11 3.53799e-12 -1.53056e-11)
(-1.10859e-11 2.84211e-12 -1.46612e-11)
(-1.02233e-11 2.0232e-12 -1.26934e-11)
(-9.75167e-12 1.01605e-12 -9.57937e-12)
(-8.17522e-12 -1.28195e-12 -6.17253e-12)
(-4.87965e-12 -1.56838e-12 -5.57769e-12)
(-1.5548e-12 -1.74591e-12 -4.01198e-12)
(1.06736e-13 4.85951e-13 -1.22274e-12)
(1.67462e-12 1.29177e-12 2.12753e-12)
(9.9044e-13 1.41848e-12 4.97988e-12)
(1.40519e-12 1.62166e-12 3.26761e-12)
(3.69014e-12 2.11771e-12 1.74297e-12)
(4.91275e-12 1.56695e-12 -1.67751e-12)
(6.98182e-12 2.04927e-12 -3.71585e-12)
(8.36226e-12 2.34819e-12 -6.68652e-12)
(9.44652e-12 2.86613e-12 -9.04934e-12)
(9.61782e-12 4.99719e-12 -9.20373e-12)
(1.02871e-11 6.08293e-12 -8.07089e-12)
(1.07588e-11 7.45666e-12 -8.58632e-12)
(1.04283e-11 9.29927e-12 -8.72356e-12)
(9.38608e-12 1.05158e-11 -7.70152e-12)
(7.8574e-12 1.01571e-11 -7.06542e-12)
(6.64948e-12 1.02221e-11 -4.35851e-12)
(6.41969e-12 9.69428e-12 -1.95148e-12)
(5.65172e-12 8.87424e-12 -6.93272e-14)
(2.11589e-12 9.45419e-12 9.47554e-13)
(-1.54477e-12 9.03038e-12 2.37515e-12)
(-4.73793e-12 8.54908e-12 2.5371e-12)
(-6.27114e-12 8.17216e-12 4.7034e-12)
(-6.40097e-12 8.61003e-12 3.75605e-12)
(-6.46011e-12 8.1161e-12 3.1073e-12)
(-6.73437e-12 7.56434e-12 2.0778e-12)
(-7.36608e-12 6.60434e-12 1.73737e-12)
(-7.00208e-12 4.61532e-12 2.58608e-12)
(-6.61961e-12 4.11367e-12 4.5484e-12)
(-6.57425e-12 3.74918e-12 5.78986e-12)
(-6.19437e-12 3.01948e-12 5.4847e-12)
(-5.28399e-12 2.48918e-12 7.12075e-12)
(-3.6949e-12 3.29788e-12 7.54092e-12)
(-2.66474e-12 2.96089e-12 8.56578e-12)
(-2.02936e-12 3.59403e-12 8.75413e-12)
(-2.42323e-12 4.15728e-12 9.63567e-12)
(-1.67256e-12 5.38401e-12 1.01321e-11)
(-5.60705e-13 6.10321e-12 9.28747e-12)
(-8.5249e-13 7.2323e-12 9.4368e-12)
(-2.06381e-12 8.75985e-12 8.33976e-12)
(-4.36363e-12 8.71531e-12 6.99847e-12)
(-5.79624e-12 6.82998e-12 7.11301e-12)
(-4.79077e-12 5.28549e-12 7.27545e-12)
(-4.04078e-12 4.18172e-12 8.05576e-12)
(-2.34778e-12 3.74943e-12 7.52151e-12)
(-1.30412e-12 3.9767e-12 7.2667e-12)
(-1.75462e-12 4.5157e-12 7.13219e-12)
(-2.53666e-12 5.50508e-12 7.40602e-12)
(-2.99036e-12 6.29044e-12 7.74058e-12)
(-3.17722e-12 5.76887e-12 7.49896e-12)
(-2.54574e-12 5.79158e-12 5.65158e-12)
(-4.43514e-12 5.51972e-12 2.85132e-12)
(-7.72337e-12 5.5879e-12 4.47903e-12)
(-9.16301e-12 5.15622e-12 5.01604e-12)
(-9.02715e-12 4.87645e-12 5.65694e-12)
(-8.23556e-12 4.83512e-12 6.12019e-12)
(-8.40893e-12 4.27064e-12 7.01761e-12)
(-8.42215e-12 3.20645e-12 5.4697e-12)
(-6.72518e-12 2.11684e-12 4.22764e-12)
(-7.02405e-12 1.26519e-12 2.81481e-12)
(-7.05832e-12 -1.70825e-13 2.4549e-12)
(-6.39766e-12 -5.23409e-13 1.8962e-12)
(-6.00099e-12 -1.21329e-12 2.07218e-12)
(-5.42863e-12 -2.12169e-12 3.17351e-12)
(-4.01058e-12 -1.47432e-12 3.36412e-12)
(-2.43447e-12 -9.51078e-13 2.8884e-13)
(-1.07346e-12 2.75074e-13 -3.32195e-12)
(-6.74206e-13 1.75945e-12 -5.34684e-12)
(-2.02968e-13 2.16571e-12 -5.48965e-12)
(6.40469e-13 1.76031e-12 -5.70574e-12)
(2.04163e-12 6.22963e-13 -6.41089e-12)
(3.17592e-12 1.10334e-13 -6.83951e-12)
(4.68362e-12 2.37343e-13 -6.32482e-12)
(5.43555e-12 -4.62113e-13 -5.70974e-12)
(6.86629e-12 1.10411e-13 -4.34412e-12)
(8.28966e-12 4.3655e-13 -3.31752e-12)
(8.90361e-12 1.37862e-12 -2.62531e-12)
(1.04494e-11 1.79602e-12 -2.48783e-12)
(1.15816e-11 1.90617e-12 -1.90023e-12)
(1.30913e-11 2.87937e-12 -2.86043e-12)
(1.38463e-11 4.32264e-12 -4.17409e-12)
(1.40106e-11 4.58455e-12 -5.79058e-12)
(1.35944e-11 5.51092e-12 -7.23641e-12)
(1.25609e-11 5.16674e-12 -8.28796e-12)
(1.2481e-11 4.8154e-12 -9.16794e-12)
(1.36113e-11 5.03183e-12 -1.0036e-11)
(1.34045e-11 4.94292e-12 -1.29602e-11)
(1.18838e-11 4.72983e-12 -1.55229e-11)
(1.10719e-11 4.94223e-12 -1.46699e-11)
(1.18765e-11 4.72144e-12 -1.41626e-11)
(1.07816e-11 5.29337e-12 -1.49895e-11)
(8.63505e-12 5.79458e-12 -1.42723e-11)
(6.37716e-12 4.36223e-12 -1.54484e-11)
(2.72313e-12 4.16485e-12 -1.81964e-11)
(-1.02232e-12 4.82343e-12 -2.03621e-11)
(-2.2202e-12 4.13731e-12 -2.16045e-11)
(-1.14312e-12 4.39306e-12 -2.22141e-11)
(-1.06161e-12 4.56433e-12 -2.1064e-11)
(6.16014e-14 4.30367e-12 -1.83396e-11)
(3.05402e-12 4.24969e-12 -1.63522e-11)
(3.68239e-12 4.69279e-12 -1.2345e-11)
(3.34699e-12 4.9737e-12 -7.41202e-12)
(2.85381e-12 5.64208e-12 -3.66683e-12)
(4.55654e-12 5.00221e-12 -2.38174e-12)
(3.95744e-12 5.04118e-12 -1.08179e-12)
(1.2171e-12 4.50302e-12 -1.15022e-13)
(1.17872e-12 4.07207e-12 5.19026e-15)
(2.45122e-12 4.09249e-12 -3.97428e-13)
(2.73294e-12 3.91865e-12 -1.19049e-12)
(2.6117e-12 3.17254e-12 -1.90922e-12)
(2.89011e-12 2.92996e-12 -1.36602e-12)
(3.9119e-12 3.03219e-12 -2.03147e-12)
(4.85546e-12 3.25087e-12 -1.90814e-12)
(6.07988e-12 4.43641e-12 -3.09429e-12)
(7.56304e-12 5.68806e-12 -4.01925e-12)
(6.58395e-12 7.51718e-12 -5.08654e-12)
(6.91096e-12 9.92026e-12 -5.63492e-12)
(5.52322e-12 1.07574e-11 -6.64217e-12)
(3.25321e-12 1.111e-11 -8.3574e-12)
(1.5086e-12 1.05427e-11 -1.01188e-11)
(-1.64217e-12 8.97616e-12 -1.14058e-11)
(-3.38562e-12 6.12872e-12 -1.16436e-11)
(-3.70203e-12 6.52224e-12 -1.13729e-11)
(-2.86428e-12 5.87865e-12 -1.02257e-11)
(-2.70732e-12 4.1809e-12 -8.71758e-12)
(-2.39901e-12 3.77415e-12 -7.34021e-12)
(-7.11936e-13 3.58682e-12 -7.4572e-12)
(-4.60644e-13 2.98182e-12 -6.85998e-12)
(-1.15147e-12 3.43802e-12 -6.4577e-12)
(5.4591e-14 3.52864e-12 -5.6534e-12)
(-9.34893e-13 4.00444e-12 -4.9089e-12)
(-2.80653e-12 4.00968e-12 -3.88943e-12)
(-4.51135e-12 4.09997e-12 -3.48317e-12)
(-5.67601e-12 6.00443e-12 -4.17384e-12)
(-5.39808e-12 7.1265e-12 -3.5297e-12)
(-6.16585e-12 7.01727e-12 -3.82746e-12)
(-6.68874e-12 5.83422e-12 -2.94634e-12)
(-5.91936e-12 5.22872e-12 -2.8723e-12)
(-5.40175e-12 4.12618e-12 -2.90956e-12)
(-5.74459e-12 3.37552e-12 -3.50016e-12)
(-5.17493e-12 3.01577e-12 -3.40012e-12)
(-3.29753e-12 2.51448e-12 -3.98338e-12)
(-2.00539e-12 1.72493e-12 -3.38194e-12)
(-1.43226e-12 1.9221e-12 -2.63768e-12)
(3.30296e-13 1.977e-12 -3.03135e-12)
(2.00852e-12 2.77644e-12 -3.10188e-12)
(1.91725e-12 3.70781e-12 -4.66975e-12)
(9.89654e-13 4.61035e-12 -4.25849e-12)
(-7.37074e-13 5.61069e-12 -2.93095e-12)
(-2.15411e-12 6.40314e-12 -1.15949e-12)
(-3.55921e-12 5.5639e-12 -8.40654e-13)
(-3.9932e-12 4.10344e-12 -5.29789e-13)
(-3.96603e-12 3.93441e-12 -2.07787e-12)
(-2.60053e-12 2.89495e-12 -4.07525e-12)
(-3.37404e-12 3.85806e-12 -6.36298e-12)
(-4.53122e-12 4.69849e-12 -4.94641e-12)
(-4.66777e-12 4.20722e-12 -3.53437e-12)
(-5.24788e-12 2.99877e-12 -2.87962e-12)
(-4.44306e-12 2.32115e-12 -2.66723e-12)
(-3.10338e-12 1.78202e-12 -2.82436e-12)
(-3.85196e-12 1.87317e-12 -3.759e-12)
(-4.77934e-12 1.41212e-12 -5.38739e-12)
(-3.35614e-12 1.64926e-12 -5.40459e-12)
(-2.18822e-12 1.66297e-12 -6.71493e-12)
(-1.69923e-12 1.57534e-12 -8.00381e-12)
(-3.23887e-12 2.27356e-12 -8.49737e-12)
(-4.0588e-12 2.78626e-12 -8.38532e-12)
(-3.94848e-12 2.77686e-12 -8.49471e-12)
(-4.22202e-12 2.81102e-12 -6.55075e-12)
(-3.19227e-12 2.887e-12 -5.2234e-12)
(-2.35967e-12 2.08651e-12 -4.98964e-12)
(-4.53773e-13 2.52387e-12 -5.50421e-12)
(2.86629e-13 3.02727e-12 -7.09381e-12)
(8.15944e-13 3.89485e-12 -3.86599e-12)
(2.00384e-12 3.34237e-12 -1.50926e-12)
(2.11141e-12 4.28837e-12 -1.76515e-13)
(2.35636e-12 4.14088e-12 9.72468e-13)
(2.81056e-12 4.0084e-12 1.22111e-12)
(3.12482e-12 3.76841e-12 1.98651e-13)
(3.78837e-12 3.39764e-12 -1.04714e-12)
(5.61705e-12 3.58977e-12 -1.5475e-12)
(6.31908e-12 3.54848e-12 -1.04316e-12)
(4.44934e-12 3.97642e-12 -9.61224e-13)
(2.35853e-12 4.03337e-12 -1.27933e-12)
(2.22247e-12 4.58218e-12 -1.12202e-12)
(3.02333e-12 4.86545e-12 -1.28642e-12)
(3.48173e-12 4.53234e-12 -2.26534e-12)
(4.4937e-12 3.73355e-12 -1.70182e-12)
(4.25502e-12 1.36712e-12 -1.57502e-12)
(4.96079e-12 1.81381e-12 -1.98091e-12)
(5.24392e-12 1.65895e-12 -2.83459e-12)
(4.4461e-12 7.12677e-13 -3.22114e-12)
(3.25936e-12 5.73939e-13 -3.77777e-12)
(2.80682e-12 2.56299e-13 -3.4767e-12)
(3.29435e-12 -9.98891e-14 -4.0972e-12)
(3.59891e-12 -1.75716e-13 -4.35458e-12)
(3.8347e-12 -4.32784e-13 -4.25472e-12)
(5.19636e-12 -6.97568e-13 -5.32821e-12)
(7.12398e-12 -1.04851e-12 -6.89534e-12)
(7.60987e-12 -2.92753e-13 -8.40176e-12)
(8.55203e-12 1.16616e-12 -8.43274e-12)
(8.04475e-12 2.51859e-12 -8.46255e-12)
(9.39721e-12 3.78906e-12 -8.72393e-12)
(8.8545e-12 5.3911e-12 -8.00533e-12)
(7.76155e-12 7.31222e-12 -6.31166e-12)
(6.48657e-12 7.95897e-12 -5.70916e-12)
(4.83053e-12 9.10643e-12 -5.19982e-12)
(3.44636e-12 1.04729e-11 -5.12624e-12)
(1.26452e-12 1.01542e-11 -5.57516e-12)
(-1.08738e-14 1.00826e-11 -7.48842e-12)
(-1.89954e-12 9.47042e-12 -9.19759e-12)
(-3.85467e-12 9.3305e-12 -1.03141e-11)
(-4.42116e-12 8.88388e-12 -1.18378e-11)
(-6.13948e-12 8.91621e-12 -1.18908e-11)
(-7.08658e-12 8.88958e-12 -1.16069e-11)
(-8.03091e-12 8.49958e-12 -1.1217e-11)
(-8.75554e-12 8.70435e-12 -1.03655e-11)
(-1.00266e-11 8.20997e-12 -1.02949e-11)
(-1.16707e-11 7.49144e-12 -1.04173e-11)
(-1.26366e-11 6.3023e-12 -1.0642e-11)
(-1.30124e-11 4.94256e-12 -1.05977e-11)
(-1.22564e-11 4.46406e-12 -1.10134e-11)
(-1.21212e-11 3.86053e-12 -1.11889e-11)
(-1.17048e-11 3.40129e-12 -1.07943e-11)
(-1.11231e-11 2.73873e-12 -1.1398e-11)
(-1.08698e-11 1.43621e-12 -1.12959e-11)
(-1.07754e-11 1.77117e-12 -1.09845e-11)
(-1.06227e-11 1.3951e-12 -1.00454e-11)
(-8.54426e-12 3.70416e-13 -8.51598e-12)
(-6.89858e-12 -1.16149e-12 -5.75951e-12)
(-4.25396e-12 -1.85043e-12 -5.62382e-12)
(-2.15648e-12 -2.4575e-12 -4.33746e-12)
(-3.98643e-13 -1.44189e-12 -1.23999e-12)
(1.0429e-12 -6.87131e-13 1.50739e-12)
(9.90017e-13 7.4992e-13 2.82146e-12)
(1.53499e-12 1.2176e-13 2.20506e-12)
(2.91659e-12 1.99472e-13 9.86755e-13)
(5.19549e-12 6.70281e-13 -6.67266e-13)
(6.97018e-12 1.55877e-12 -2.72965e-12)
(8.2588e-12 1.98873e-12 -5.2863e-12)
(8.8194e-12 2.85256e-12 -7.42695e-12)