/*--------------------------------*- C++ -*----------------------------------*\
| =========                 |                                                 |
| \\      /  F ield         | OpenFOAM: The Open Source CFD Toolbox           |
|  \\    /   O peration     | Version:  2406                                  |
|   \\  /    A nd           | Website:  www.openfoam.com                      |
|    \\/     M anipulation  |                                                 |
\*---------------------------------------------------------------------------*/
FoamFile
{
    version     2.0;
    format      ascii;
    arch        "LSB;label=32;scalar=64";
    class       volScalarField;
    location    "0.02";
    object      Ma;
}
// * * * * * * * * * * * * * * * * * * * * * * * * * * * * * * * * * * * * * //

dimensions      [0 0 0 0 0 0 0];

internalField   nonuniform List<scalar> 
13988
(
1.5432e-14
6.14125e-15
1.00595e-14
8.91071e-15
4.44131e-15
1.0846e-14
1.50466e-14
2.13725e-14
2.87014e-14
3.57949e-14
3.87214e-14
2.99553e-14
2.47887e-14
2.54268e-14
1.70612e-14
5.69246e-15
7.61438e-15
1.14108e-14
9.96514e-15
1.25541e-14
1.37938e-14
7.16927e-15
1.01031e-14
7.9923e-15
1.27679e-14
1.3168e-14
1.43593e-14
1.7651e-14
2.37396e-14
3.03167e-14
2.77468e-14
2.43549e-14
2.11089e-14
1.41889e-14
7.44642e-15
9.61488e-15
1.1139e-14
1.81411e-14
1.79366e-14
9.24021e-15
1.69111e-14
2.0731e-14
1.90461e-14
1.424e-14
1.74471e-14
1.35185e-14
1.69646e-14
1.10406e-14
7.63105e-15
7.95513e-15
1.35748e-14
9.84772e-15
9.97802e-15
8.67208e-15
1.21136e-14
1.30128e-14
1.03128e-14
6.40768e-15
8.75915e-15
2.05978e-15
7.03601e-15
2.07141e-14
2.97796e-14
3.41844e-14
3.87427e-14
3.86753e-14
4.23361e-14
4.02493e-14
4.22298e-14
4.42706e-14
4.42209e-14
4.14448e-14
3.48691e-14
3.15851e-14
3.02506e-14
2.92994e-14
2.71073e-14
2.70443e-14
2.5421e-14
3.11994e-14
3.01228e-14
2.95383e-14
2.67761e-14
3.0638e-14
3.03631e-14
2.91398e-14
1.95488e-14
2.03529e-14
1.94135e-14
2.03561e-14
1.85922e-14
2.15162e-14
1.75424e-14
2.44999e-14
3.44883e-14
3.17908e-14
2.96927e-14
2.48084e-14
2.00509e-14
1.70549e-14
1.95708e-14
2.67797e-14
1.65936e-14
1.82749e-14
1.36086e-14
5.16661e-15
7.53354e-15
9.87311e-15
1.44583e-14
2.46607e-14
3.20276e-14
2.66622e-14
2.25952e-14
2.07286e-14
2.15558e-14
2.09251e-14
1.04811e-14
8.38738e-15
7.60542e-15
6.71096e-15
1.25644e-14
2.45965e-15
9.3754e-15
1.0375e-14
9.13119e-15
1.25617e-14
1.14108e-14
1.03668e-14
1.6416e-14
1.8272e-14
2.0302e-14
1.83305e-14
1.89481e-14
1.17415e-14
1.44865e-14
1.69513e-14
1.67556e-14
1.39354e-14
5.74309e-15
9.0942e-15
1.11478e-14
1.72451e-14
1.86068e-14
1.47257e-14
7.76144e-15
1.26865e-14
1.78259e-14
2.00205e-14
9.25981e-15
8.46802e-15
1.07265e-14
1.75793e-14
1.10922e-14
6.92728e-15
7.99495e-15
6.8495e-15
1.24667e-14
1.14695e-14
1.38379e-14
1.25755e-14
5.75698e-15
1.14151e-14
1.68513e-14
1.96252e-14
3.57454e-14
3.9849e-14
3.69294e-14
4.38612e-14
4.25772e-14
4.46322e-14
3.89151e-14
4.41465e-14
3.70391e-14
3.6799e-14
3.90018e-14
3.29093e-14
2.91051e-14
2.82101e-14
1.67601e-14
1.98633e-14
2.63988e-14
2.15849e-14
1.70722e-14
2.24611e-14
2.0715e-14
2.47678e-14
2.69582e-14
1.78142e-14
1.75259e-14
2.59168e-14
1.88731e-14
1.98605e-14
1.95336e-14
2.2876e-14
2.11053e-14
2.5281e-14
2.41751e-14
2.30455e-14
1.8411e-14
1.59593e-14
1.25554e-14
2.26752e-14
2.23407e-14
2.24384e-14
1.36653e-14
9.25927e-15
1.58046e-14
1.10138e-14
1.42517e-14
1.8261e-14
2.53968e-14
1.92595e-14
1.77479e-14
1.97727e-14
2.12765e-14
1.82357e-14
1.35758e-14
1.08874e-14
1.31935e-14
1.43615e-14
1.2327e-14
6.7732e-15
1.55629e-14
1.36894e-14
1.10775e-14
1.66651e-14
1.3608e-14
1.26981e-14
1.75601e-14
1.40767e-14
1.28291e-14
1.78932e-14
2.48087e-14
2.02364e-14
9.66277e-15
1.71689e-14
2.29263e-14
2.77592e-14
1.83136e-14
1.28518e-14
1.68508e-14
1.80544e-14
1.53535e-14
1.5558e-14
1.58298e-14
1.23546e-14
2.08122e-14
1.34816e-14
1.3013e-14
8.11687e-15
1.21822e-14
7.94654e-15
1.26164e-14
2.05564e-14
1.42874e-14
1.02645e-14
1.57076e-14
1.40208e-14
1.0739e-14
8.11037e-15
1.2292e-14
2.03041e-14
1.80463e-14
2.03074e-14
2.34947e-14
2.81254e-14
2.83727e-14
3.71697e-14
4.30315e-14
4.66947e-14
4.13918e-14
3.96695e-14
3.19057e-14
3.37857e-14
3.29863e-14
3.15131e-14
2.66355e-14
2.0443e-14
2.08794e-14
2.08227e-14
2.55462e-14
1.92124e-14
1.94707e-14
2.92123e-14
3.20729e-14
2.6386e-14
1.75915e-14
1.21608e-14
1.66734e-14
2.66447e-14
2.02287e-14
1.84452e-14
2.38364e-14
2.1912e-14
2.14923e-14
2.49583e-14
2.6463e-14
1.93709e-14
1.54756e-14
1.72989e-14
1.77301e-14
2.25539e-14
2.4349e-14
1.85682e-14
1.10345e-14
1.02469e-14
7.41836e-15
1.15412e-14
1.5406e-14
1.63117e-14
1.63802e-14
2.31544e-14
1.8393e-14
1.91894e-14
1.68418e-14
1.55972e-14
1.23155e-14
1.8403e-14
1.65759e-14
7.56043e-15
6.19644e-15
1.32722e-14
1.28845e-14
1.27015e-14
1.39671e-14
1.47833e-14
1.21643e-14
1.30877e-14
9.41338e-15
1.17566e-14
1.51718e-14
2.75117e-14
2.75706e-14
1.6096e-14
3.19891e-14
3.30393e-14
2.90306e-14
1.27717e-14
1.34728e-14
1.5239e-14
1.70433e-14
1.3478e-14
9.03609e-15
1.49907e-14
1.3084e-14
1.36376e-14
9.1086e-15
8.92009e-15
1.30984e-14
9.26332e-15
1.12709e-14
1.04289e-14
2.45337e-14
1.81032e-14
3.32917e-15
1.50018e-14
1.756e-14
1.76649e-14
1.38781e-14
2.06919e-14
1.51853e-14
1.36708e-14
1.20508e-14
9.46483e-15
2.07846e-14
3.16436e-14
3.97051e-14
4.098e-14
3.59645e-14
3.15563e-14
2.97029e-14
2.74114e-14
2.48215e-14
2.62966e-14
2.52715e-14
2.15471e-14
2.15999e-14
2.13924e-14
2.31374e-14
2.85887e-14
2.48123e-14
2.10654e-14
2.6461e-14
3.00638e-14
1.47977e-14
2.35985e-15
7.84442e-15
9.99902e-15
1.62993e-14
1.64559e-14
2.01473e-14
2.07538e-14
2.14536e-14
2.20752e-14
2.74332e-14
2.67828e-14
2.08279e-14
5.79923e-15
3.57245e-15
2.08425e-14
2.49847e-14
1.94467e-14
8.84021e-15
8.38902e-15
1.66463e-14
1.98494e-14
1.75665e-14
1.04672e-14
1.18466e-14
1.97162e-14
1.8584e-14
2.04139e-14
1.47169e-14
1.09103e-14
1.04904e-14
1.50396e-14
1.65672e-14
6.54461e-15
5.82251e-15
1.22405e-14
1.48376e-14
1.47579e-14
1.44075e-14
1.37252e-14
1.58514e-14
1.33792e-14
1.7202e-14
1.49444e-14
1.64319e-14
1.96196e-14
2.18224e-14
1.99417e-14
2.90673e-14
3.01445e-14
2.23432e-14
1.42357e-14
1.45188e-14
1.62446e-14
2.09114e-14
1.67144e-14
1.15903e-14
1.05148e-14
1.24145e-14
9.46033e-15
1.62604e-14
1.13456e-14
1.51422e-14
1.43709e-14
1.1889e-14
1.41154e-14
1.578e-14
1.21543e-14
2.65836e-15
1.38277e-14
1.98007e-14
2.60685e-14
2.46484e-14
1.73511e-14
8.59076e-15
7.86228e-15
7.36704e-15
6.93481e-15
1.51157e-14
1.82508e-14
2.04631e-14
2.45858e-14
2.48648e-14
2.19251e-14
2.19131e-14
2.42466e-14
2.30219e-14
2.84023e-14
3.00791e-14
2.39042e-14
2.64233e-14
2.75308e-14
2.2371e-14
2.62256e-14
2.75111e-14
2.43416e-14
2.13645e-14
1.29754e-14
1.96058e-16
1.07761e-14
8.26289e-15
8.09987e-15
3.72622e-15
8.92145e-15
1.98247e-14
2.54343e-14
3.01696e-14
2.80218e-14
2.56132e-14
2.37669e-14
1.57749e-14
1.81892e-14
2.18589e-14
1.95214e-14
2.41211e-14
2.37484e-14
1.29787e-14
2.34263e-14
2.69145e-14
2.9379e-14
2.91186e-14
2.52672e-14
2.29636e-14
2.30868e-14
1.87578e-14
1.79746e-14
2.15604e-14
1.82945e-14
1.79852e-14
2.41671e-14
2.06422e-14
2.40619e-14
1.86522e-14
1.96034e-14
2.44305e-14
2.06325e-14
2.18914e-14
2.42529e-14
2.59405e-14
2.54189e-14
2.68422e-14
2.13979e-14
1.2378e-14
2.05343e-14
2.79901e-14
2.94899e-14
2.92145e-14
3.31491e-14
3.00542e-14
2.61142e-14
2.01466e-14
2.62429e-14
2.79896e-14
2.72684e-14
1.99423e-14
1.66764e-14
1.47763e-14
2.23465e-14
2.96534e-14
2.55958e-14
2.75015e-14
2.41541e-14
1.83489e-14
1.96508e-14
1.58939e-14
1.61245e-14
8.47191e-15
1.54567e-14
2.14798e-14
3.00649e-14
3.23402e-14
2.25657e-14
1.60192e-14
1.75797e-14
1.54421e-14
1.83687e-14
2.32003e-14
2.05804e-14
1.72489e-14
2.82183e-14
3.17422e-14
2.86657e-14
2.73624e-14
2.71915e-14
2.66878e-14
3.29535e-14
3.30478e-14
2.83677e-14
3.33763e-14
3.61673e-14
3.51663e-14
3.43191e-14
3.60518e-14
3.10743e-14
2.11904e-14
1.23694e-14
1.25047e-14
1.86535e-14
1.66723e-14
1.70353e-14
1.68455e-14
1.91188e-14
2.32596e-14
3.36219e-14
4.03458e-14
3.66006e-14
3.16089e-14
3.18818e-14
2.6844e-14
4.11012e-14
4.24197e-14
1.80139e-14
2.91325e-14
2.44149e-14
1.78517e-14
2.29526e-14
1.97496e-14
2.20449e-14
2.15942e-14
2.43031e-14
2.22871e-14
2.10807e-14
2.14997e-14
1.34771e-14
1.61375e-14
2.27865e-14
2.14954e-14
1.84798e-14
2.26844e-14
2.38572e-14
1.86394e-14
1.22265e-14
1.54616e-14
1.58964e-14
1.96264e-14
2.27302e-14
2.036e-14
2.11102e-14
2.10265e-14
2.12527e-14
1.00523e-14
2.08593e-14
2.12588e-14
2.13339e-14
2.75852e-14
2.44551e-14
1.71369e-14
1.39009e-14
1.56231e-14
2.70333e-14
2.05203e-14
1.86851e-14
1.34503e-14
1.22873e-14
1.30209e-14
1.17483e-14
1.19235e-14
1.39845e-14
2.00452e-14
2.26858e-14
2.07721e-14
1.85635e-14
1.27086e-14
1.00832e-14
1.09362e-14
1.93216e-14
2.41881e-14
3.01703e-14
3.14607e-14
2.23217e-14
1.74341e-14
1.35139e-14
9.79378e-15
1.54398e-14
1.15088e-14
1.26838e-14
1.0599e-14
1.80497e-14
1.92782e-14
1.86631e-14
2.08526e-14
1.97765e-14
1.9609e-14
2.28582e-14
2.3508e-14
2.15224e-14
3.16199e-14
3.14024e-14
3.06752e-14
3.44544e-14
3.34783e-14
2.41457e-14
1.29974e-14
1.1743e-14
1.41857e-14
2.68282e-14
1.68187e-14
1.10067e-14
9.73097e-15
1.09096e-14
2.0173e-14
3.56434e-14
3.25019e-14
2.78237e-14
2.88297e-14
2.66769e-14
1.98732e-14
4.62189e-14
5.07894e-14
1.81877e-14
1.64153e-14
1.47642e-14
1.89816e-14
1.19798e-14
1.47413e-14
1.45754e-14
1.13079e-14
1.16508e-14
2.36833e-14
1.48548e-14
1.31248e-14
1.33223e-14
1.32448e-14
1.41401e-14
1.51258e-14
1.03304e-14
1.44137e-14
1.02925e-14
8.70988e-15
3.68044e-15
8.50155e-15
1.45613e-14
1.87616e-14
1.81656e-14
1.54915e-14
1.4948e-14
9.55707e-15
1.7092e-14
1.3465e-14
1.91101e-14
1.97699e-14
1.86691e-14
2.19462e-14
1.48789e-14
1.18874e-14
1.18332e-14
1.47755e-14
2.1898e-14
8.21566e-15
6.62765e-15
1.2059e-14
1.03614e-14
1.08967e-14
9.71602e-15
6.84822e-15
7.15285e-15
1.75973e-14
1.61655e-14
2.11804e-14
1.8056e-14
1.30225e-14
1.22784e-14
9.84552e-15
1.77201e-14
2.13014e-14
2.13653e-14
1.88497e-14
1.86582e-14
1.49282e-14
9.33624e-15
7.28761e-15
9.43615e-15
7.30027e-15
1.08592e-14
1.0196e-14
5.63056e-15
1.19267e-14
1.55917e-14
1.70485e-14
1.66445e-14
1.5828e-14
1.24695e-14
1.27861e-14
1.43265e-14
2.18778e-14
1.76026e-14
1.49871e-14
2.38947e-14
2.72649e-14
2.25534e-14
1.61736e-14
9.01325e-15
9.24035e-15
1.04748e-14
8.12391e-15
7.61796e-15
7.88359e-15
6.63591e-15
1.67939e-14
2.60099e-14
2.2909e-14
2.67917e-14
2.23069e-14
1.33154e-14
1.17404e-14
3.66167e-14
3.78627e-14
1.05181e-14
1.01198e-14
1.23649e-14
1.5045e-14
6.88266e-15
1.54587e-14
9.87432e-15
7.41517e-15
1.28901e-14
1.93848e-14
2.28138e-14
1.49861e-14
7.32333e-15
1.10684e-14
8.33596e-15
8.6372e-15
9.02082e-15
1.35315e-14
5.07315e-15
8.293e-15
6.53321e-15
1.10659e-14
1.1784e-14
1.75191e-14
2.10419e-14
2.09553e-14
1.69678e-14
1.03901e-14
8.49232e-15
4.61084e-15
1.0648e-14
1.13188e-14
1.47014e-14
1.76023e-14
1.27508e-14
1.56174e-14
1.4102e-14
1.74986e-14
1.32714e-14
6.16981e-15
6.39907e-15
1.10625e-14
1.75805e-14
1.72262e-14
1.89108e-14
2.05077e-14
2.06148e-14
1.86722e-14
1.07157e-14
1.57321e-14
8.38947e-15
1.04879e-14
1.2733e-14
1.51626e-14
1.20952e-14
1.24294e-14
1.46084e-14
1.49993e-14
1.72516e-14
2.22133e-14
1.17692e-14
1.28248e-14
5.53838e-15
7.1632e-15
1.20936e-14
9.61335e-15
7.97104e-15
1.62939e-14
2.37098e-14
2.02839e-14
2.14917e-14
1.59943e-14
1.16424e-14
9.3077e-15
1.18581e-14
1.21611e-14
5.85957e-15
3.99464e-15
1.23933e-14
2.17329e-14
2.48362e-14
1.81114e-14
1.87603e-14
1.92745e-14
1.77011e-14
1.46056e-14
1.59363e-14
1.30926e-14
8.58766e-15
1.67382e-14
2.04896e-14
2.02396e-14
2.3652e-14
2.82234e-14
1.63964e-14
9.20252e-15
1.64989e-14
1.53643e-14
1.48266e-14
9.91772e-15
9.69996e-15
1.16836e-14
4.87488e-15
1.15142e-14
1.4007e-14
1.39463e-14
2.092e-14
2.90253e-14
1.96802e-14
8.62535e-15
1.09262e-14
1.06647e-14
7.73995e-15
1.1986e-14
6.7931e-15
1.03253e-14
1.06578e-14
2.16289e-15
6.8551e-15
9.43988e-15
1.52426e-14
1.98965e-14
3.00807e-14
2.49928e-14
1.69426e-14
1.44551e-14
1.66822e-14
7.46667e-15
1.29565e-14
1.30518e-14
4.81249e-15
9.34739e-15
9.16603e-15
1.44793e-14
1.01869e-14
1.37606e-14
8.59668e-15
2.01133e-15
3.86287e-15
5.6995e-15
6.15177e-15
8.49533e-15
4.89197e-15
1.03769e-14
1.017e-14
6.10821e-15
8.24586e-15
1.59035e-14
9.8887e-15
8.88086e-15
2.73213e-15
8.00777e-15
1.27965e-14
1.35227e-14
1.94082e-14
2.03375e-14
2.24398e-14
2.08228e-14
1.64609e-14
8.13078e-15
1.09419e-14
9.54984e-15
1.10358e-14
1.23573e-14
1.09836e-14
1.265e-14
1.37444e-14
1.30951e-14
1.93434e-14
1.41295e-14
7.99595e-15
5.29323e-15
2.77547e-15
1.00523e-14
1.69171e-14
1.26305e-14
8.20489e-15
1.4364e-14
1.99033e-14
1.55701e-14
1.68527e-14
9.67902e-15
8.77436e-15
4.57949e-15
8.36262e-15
1.05774e-14
9.00928e-15
1.66486e-14
2.46572e-14
2.24315e-14
2.62251e-14
3.46906e-14
2.52278e-14
7.21456e-15
1.10121e-14
9.52787e-15
1.83422e-14
1.246e-14
1.01772e-14
5.12521e-15
7.22378e-15
5.10783e-15
8.48166e-15
1.04472e-14
1.73211e-14
1.64745e-14
1.12658e-14
1.6226e-14
1.3287e-14
6.74844e-15
4.07924e-15
6.82057e-15
8.62394e-15
9.85545e-15
3.51656e-15
2.10679e-15
7.13765e-15
1.3904e-14
1.95681e-14
1.79669e-14
2.19611e-14
2.04697e-14
1.95813e-14
1.6694e-14
1.47472e-14
1.60001e-14
1.24986e-14
1.18642e-14
9.83211e-15
3.08067e-15
5.79397e-15
6.93583e-15
4.66257e-15
4.99685e-15
7.23587e-15
3.27781e-15
4.15461e-15
9.32758e-15
5.262e-15
4.56174e-15
5.18002e-15
7.30838e-15
6.25782e-15
3.34872e-15
4.90746e-15
6.07086e-15
6.86445e-15
7.6696e-15
8.52679e-16
7.6582e-15
1.24687e-14
1.561e-14
1.84797e-14
2.25207e-14
2.42739e-14
2.44522e-14
2.42324e-14
2.06892e-14
1.62734e-14
1.44585e-14
1.81904e-14
1.9362e-14
1.50113e-14
1.16452e-14
7.62702e-15
7.30435e-15
9.85979e-15
8.2912e-15
6.25012e-15
3.00436e-15
4.70137e-15
3.81616e-15
6.37114e-15
1.1543e-14
1.0348e-14
1.16205e-14
9.34228e-15
9.43981e-15
1.2162e-14
6.54969e-15
7.73571e-15
9.59375e-15
1.36106e-14
1.65304e-14
1.61035e-14
1.82578e-14
1.79354e-14
2.48643e-14
2.73925e-14
2.4321e-14
1.78094e-14
1.26192e-14
7.22101e-15
5.96611e-15
2.87389e-14
2.9308e-14
2.28969e-14
1.77929e-14
1.63878e-14
1.5222e-14
1.59006e-14
1.77095e-14
1.53842e-14
2.18604e-14
2.77296e-14
2.90044e-14
2.91812e-14
2.44452e-14
2.01658e-14
1.88409e-14
1.46062e-14
1.35832e-14
1.6207e-14
1.63295e-14
1.73096e-14
2.6947e-14
3.24713e-14
3.26387e-14
3.44876e-14
3.11579e-14
2.90469e-14
2.56095e-14
2.71066e-14
2.8676e-14
2.59694e-14
2.41684e-14
2.34723e-14
2.86605e-14
2.96421e-14
2.6042e-14
2.35831e-14
1.86608e-14
1.6524e-14
1.77593e-14
2.0501e-14
1.94543e-14
2.09526e-14
2.04763e-14
2.03523e-14
1.86621e-14
1.71689e-14
1.80466e-14
1.79744e-14
1.91696e-14
2.12177e-14
2.24115e-14
1.73813e-14
2.00385e-14
2.59248e-14
2.77965e-14
3.07707e-14
3.16805e-14
3.0632e-14
3.11599e-14
2.58595e-14
1.87399e-14
1.68835e-14
2.09773e-14
2.5333e-14
2.61121e-14
2.25665e-14
2.10521e-14
1.88367e-14
1.79918e-14
1.80999e-14
1.8322e-14
1.6812e-14
1.85977e-14
2.13454e-14
2.31947e-14
2.04422e-14
1.46981e-14
1.33793e-14
1.43083e-14
1.46997e-14
2.0298e-14
2.1968e-14
2.07582e-14
2.05155e-14
2.32498e-14
2.267e-14
2.35999e-14
2.44621e-14
2.75857e-14
3.25103e-14
3.49135e-14
3.41133e-14
2.78796e-14
1.74797e-14
1.50525e-14
1.76823e-14
2.30555e-14
1.5169e-14
1.40658e-14
1.18027e-14
8.71382e-15
8.23249e-15
7.38725e-15
1.05999e-14
1.49714e-14
1.51218e-14
2.00247e-14
1.7425e-14
1.53526e-14
1.6073e-14
1.8025e-14
1.79829e-14
1.65035e-14
1.41118e-14
1.2407e-14
9.50158e-15
8.40742e-15
1.46221e-14
1.80495e-14
2.83936e-14
2.66851e-14
2.33051e-14
2.42342e-14
2.34336e-14
2.22356e-14
2.76572e-14
2.37686e-14
2.11336e-14
1.87566e-14
2.16345e-14
1.99231e-14
1.56952e-14
1.64277e-14
1.54852e-14
1.48865e-14
1.60067e-14
1.3761e-14
1.01508e-14
1.18719e-14
1.08793e-14
1.14634e-14
1.03009e-14
1.05502e-14
7.56499e-15
8.00039e-15
8.6994e-15
9.68352e-15
9.77256e-15
1.25596e-14
1.25592e-14
1.69382e-14
1.85258e-14
2.22236e-14
2.4296e-14
3.1867e-14
3.3834e-14
2.93782e-14
3.08253e-14
2.1401e-14
1.60145e-14
1.8436e-14
1.97442e-14
1.96284e-14
2.33776e-14
2.011e-14
1.3234e-14
9.38452e-15
9.5713e-15
9.03283e-15
7.17133e-15
9.16247e-15
9.3196e-15
7.35711e-15
8.83538e-15
4.80363e-15
5.67225e-15
6.98781e-15
7.13391e-15
7.97689e-15
9.76796e-15
8.67118e-15
1.47122e-14
1.68018e-14
2.12827e-14
2.60521e-14
2.22506e-14
2.4005e-14
3.05447e-14
3.55158e-14
2.90002e-14
1.89658e-14
1.2532e-14
1.06897e-14
1.50281e-14
1.34236e-14
2.12468e-15
1.0052e-14
8.45572e-15
4.27568e-15
1.13623e-14
8.27021e-15
1.16683e-14
1.08067e-14
1.05968e-14
1.19203e-14
8.9764e-15
6.92803e-15
6.69428e-15
6.18214e-15
7.55225e-15
6.63038e-15
8.22874e-15
6.50801e-15
3.11384e-15
7.62509e-15
4.58687e-15
1.08651e-14
1.39956e-14
1.44229e-14
1.40786e-14
1.49432e-14
1.62636e-14
1.60742e-14
2.01042e-14
1.53672e-14
1.37589e-14
1.27915e-14
1.39326e-14
1.40602e-14
1.44251e-14
1.27027e-14
9.48968e-15
6.8083e-15
7.83379e-15
8.13818e-15
5.14951e-15
6.38458e-15
5.23088e-15
8.63286e-15
1.14185e-14
9.71991e-15
5.12655e-15
5.05252e-15
3.99741e-15
3.16384e-15
3.49098e-15
2.97392e-15
7.45169e-15
1.30083e-14
1.9802e-14
1.91749e-14
1.8891e-14
2.30567e-14
2.78649e-14
2.52597e-14
2.32275e-14
2.00647e-14
1.97152e-14
1.85708e-14
2.06943e-14
2.28541e-14
2.19405e-14
2.14842e-14
1.79915e-14
1.32939e-14
1.14398e-14
7.71747e-15
5.34663e-15
6.49443e-15
6.30485e-15
1.3791e-14
1.44016e-14
1.21245e-14
1.20609e-14
8.10613e-15
5.80969e-15
6.85176e-15
1.05254e-14
1.09012e-14
1.0065e-14
1.47641e-14
1.62702e-14
1.92344e-14
1.91389e-14
2.01905e-14
2.12778e-14
2.60204e-14
1.97168e-14
1.3631e-14
8.32448e-15
9.53718e-15
1.26874e-14
1.4829e-14
5.59693e-15
5.26243e-15
6.93786e-15
6.47458e-15
1.30829e-14
6.8582e-15
7.72279e-15
1.33922e-14
1.53886e-14
1.46474e-14
1.4117e-14
8.44312e-15
8.6618e-15
8.66886e-15
7.99555e-15
6.97965e-15
9.5888e-15
6.11608e-15
7.00129e-15
8.56816e-15
4.79372e-15
7.9103e-15
1.2103e-14
1.02245e-14
9.99795e-15
1.05965e-14
1.41149e-14
1.67092e-14
1.68484e-14
1.26463e-14
1.20128e-14
1.27161e-14
1.42629e-14
1.43338e-14
1.5974e-14
1.51095e-14
1.16445e-14
6.93332e-15
1.09934e-14
1.0781e-14
1.11834e-14
8.66571e-15
1.07038e-14
1.15201e-14
1.16463e-14
1.22577e-14
1.05279e-14
4.8592e-15
4.7278e-15
4.78652e-15
5.63848e-15
5.05326e-15
7.59115e-15
1.56979e-14
2.31342e-14
2.01369e-14
2.07589e-14
2.12307e-14
2.28234e-14
2.58148e-14
2.18203e-14
2.14627e-14
1.84622e-14
1.81237e-14
2.24871e-14
2.72724e-14
2.35996e-14
1.96059e-14
1.32748e-14
1.22355e-14
1.17929e-14
1.28433e-14
6.38791e-15
4.72839e-15
7.76152e-15
1.2908e-14
7.16036e-15
3.53306e-15
7.13743e-15
3.74158e-15
3.75201e-15
3.08823e-15
4.31772e-15
7.40778e-15
8.79483e-15
1.52884e-14
1.51887e-14
1.65594e-14
1.84384e-14
1.99591e-14
1.8416e-14
1.96698e-14
2.07009e-14
1.78157e-14
1.75409e-14
1.24338e-14
1.50983e-14
1.63512e-14
4.89921e-15
4.5541e-15
2.75905e-15
5.6401e-15
9.05922e-15
1.00099e-14
5.24408e-15
1.32771e-14
1.96805e-14
2.00929e-14
1.56548e-14
8.43066e-15
8.15713e-15
6.69854e-15
1.04106e-14
9.13138e-15
8.51904e-15
6.13468e-15
2.87675e-15
3.90144e-15
1.06554e-14
8.44897e-15
4.10181e-15
3.43976e-15
4.32812e-15
8.58328e-15
1.36465e-14
1.12198e-14
9.44268e-15
7.19603e-15
9.68212e-15
9.93206e-15
1.65574e-14
2.02129e-14
1.98958e-14
1.394e-14
9.69601e-15
3.21165e-15
5.71799e-15
1.2262e-14
1.60897e-14
1.48158e-14
1.32329e-14
1.35753e-14
1.57971e-14
1.6127e-14
1.05966e-14
6.09376e-15
6.40473e-15
4.31437e-15
3.285e-15
3.64311e-15
7.20256e-15
1.17195e-14
1.85298e-14
1.51477e-14
1.27728e-14
1.65036e-14
1.43541e-14
1.64861e-14
1.7014e-14
1.74532e-14
2.42123e-14
2.18143e-14
2.3848e-14
2.79355e-14
2.15341e-14
1.63034e-14
7.32562e-15
1.08627e-14
1.53455e-14
1.51491e-14
1.73336e-14
7.83443e-15
9.71794e-15
1.02004e-14
6.77372e-15
7.0635e-15
4.18097e-15
8.42382e-15
6.771e-15
8.96309e-15
2.18763e-15
3.06174e-15
7.33955e-15
8.48514e-15
8.7938e-15
1.35103e-14
1.25269e-14
1.30501e-14
1.01248e-14
7.24028e-15
9.1022e-15
8.07489e-15
1.13946e-14
1.05085e-14
6.67164e-15
1.19122e-14
1.00718e-14
1.15712e-14
1.68529e-14
1.99492e-14
1.84046e-14
1.38242e-14
1.5944e-14
1.86412e-14
2.20354e-14
2.4541e-14
2.33358e-14
1.81018e-14
1.36912e-14
1.5305e-14
1.26046e-14
1.1601e-14
9.62474e-15
1.37769e-14
1.73254e-14
2.36525e-14
2.47051e-14
2.18242e-14
2.35932e-14
1.84227e-14
1.63816e-14
1.29931e-14
1.23563e-14
1.61812e-14
1.65839e-14
1.67979e-14
1.34633e-14
1.34935e-14
1.3859e-14
1.17268e-14
1.30813e-14
1.37017e-14
1.15625e-14
1.53108e-14
1.40803e-14
1.8887e-14
2.47964e-14
2.92141e-14
2.88888e-14
2.58349e-14
2.03715e-14
1.8976e-14
1.70229e-14
1.62331e-14
1.45255e-14
1.93731e-14
1.76675e-14
1.84537e-14
1.56291e-14
1.69387e-14
1.63496e-14
1.93122e-14
1.94896e-14
1.38563e-14
1.30808e-14
1.71496e-14
1.88608e-14
2.06056e-14
2.32931e-14
2.74602e-14
2.75425e-14
2.56671e-14
2.35413e-14
2.20388e-14
2.02686e-14
2.20247e-14
2.55774e-14
2.74353e-14
3.09657e-14
2.58159e-14
2.02308e-14
1.80132e-14
1.47331e-14
1.50313e-14
1.51453e-14
1.83236e-14
2.07322e-14
2.13715e-14
2.22327e-14
1.86141e-14
1.70989e-14
1.80852e-14
1.97071e-14
1.43118e-14
1.44237e-14
1.13369e-14
1.17258e-14
1.5518e-14
1.45632e-14
1.59573e-14
1.64168e-14
1.38089e-14
1.55892e-14
1.09796e-14
2.61254e-14
2.91157e-14
2.78303e-14
2.82586e-14
2.77808e-14
2.84786e-14
2.41009e-14
3.21526e-14
3.48577e-14
3.52222e-14
3.17211e-14
3.10248e-14
2.56571e-14
2.77297e-14
2.67716e-14
2.57245e-14
2.61281e-14
2.91527e-14
3.23074e-14
3.47835e-14
2.99399e-14
3.12737e-14
3.69424e-14
3.75828e-14
3.46894e-14
2.82299e-14
2.35286e-14
2.56819e-14
3.21135e-14
3.33071e-14
3.32477e-14
3.16727e-14
3.01942e-14
3.25215e-14
3.0519e-14
2.96639e-14
2.824e-14
2.71248e-14
2.584e-14
2.40914e-14
2.77453e-14
3.24253e-14
3.30694e-14
3.48503e-14
3.07069e-14
3.05824e-14
2.91632e-14
3.20611e-14
2.87899e-14
3.19074e-14
3.07587e-14
3.55595e-14
3.15841e-14
3.19549e-14
3.07046e-14
2.7622e-14
2.66944e-14
3.01617e-14
2.73963e-14
2.99204e-14
2.97425e-14
2.94603e-14
2.99184e-14
3.26182e-14
3.15805e-14
3.55714e-14
3.20978e-14
3.07175e-14
3.62444e-14
3.70754e-14
3.87256e-14
3.40081e-14
3.44218e-14
3.67086e-14
2.92246e-14
2.54245e-14
3.04001e-14
2.56622e-14
2.49999e-14
2.62045e-14
2.62086e-14
2.87304e-14
3.22308e-14
2.96229e-14
2.72122e-14
2.68828e-14
2.71303e-14
2.47182e-14
2.22429e-14
2.39893e-14
2.62035e-14
2.84811e-14
3.0087e-14
2.61197e-14
2.67629e-14
2.32052e-14
2.38709e-14
2.75434e-14
8.68161e-15
9.48152e-15
9.48112e-15
1.23122e-14
9.74692e-15
7.26648e-15
8.00664e-15
1.27026e-14
1.58394e-14
2.18487e-14
1.97737e-14
1.62759e-14
1.28835e-14
9.42764e-15
5.84932e-15
4.9366e-15
6.32892e-15
1.41682e-14
1.97689e-14
1.96063e-14
1.76154e-14
1.81796e-14
1.54551e-14
1.94897e-14
1.69059e-14
1.27667e-14
5.56026e-15
1.02558e-14
1.64465e-14
1.58705e-14
1.47466e-14
1.73126e-14
1.72198e-14
2.24928e-14
1.66097e-14
1.40855e-14
1.35736e-14
1.44642e-14
1.14723e-14
1.05773e-14
1.5619e-14
1.65705e-14
1.83991e-14
1.48167e-14
1.1347e-14
1.0936e-14
1.56509e-14
1.79359e-14
1.25861e-14
1.3219e-14
1.16026e-14
1.97579e-14
1.46019e-14
1.13726e-14
1.01763e-14
1.20603e-14
1.23277e-14
1.66826e-14
1.02698e-14
1.18435e-14
1.159e-14
1.11942e-14
1.6625e-14
1.87489e-14
1.77572e-14
2.10522e-14
1.79442e-14
1.64558e-14
2.21628e-14
1.8074e-14
2.22864e-14
1.91808e-14
2.17537e-14
2.01084e-14
1.44169e-14
6.73907e-15
1.24661e-14
5.96561e-15
6.85374e-15
8.95369e-15
1.38559e-14
1.08322e-14
1.69124e-14
1.41358e-14
1.15853e-14
6.16635e-15
3.95211e-15
8.47956e-15
2.46002e-15
1.24866e-14
1.72887e-14
1.40913e-14
2.16538e-14
1.58787e-14
9.59796e-15
4.02123e-15
1.0465e-14
6.7291e-15
8.56548e-15
1.19751e-14
1.4156e-14
1.75881e-14
1.36254e-14
8.70101e-15
8.28189e-15
9.55715e-15
1.51595e-14
1.46127e-14
2.73152e-14
2.01897e-14
1.84388e-14
1.13101e-14
1.16964e-14
1.15617e-14
1.11698e-14
1.83646e-14
2.88317e-14
2.12822e-14
9.53616e-15
1.02628e-14
1.27904e-14
1.11634e-14
2.16323e-14
1.70881e-14
8.39169e-15
1.87767e-14
2.11858e-14
1.01534e-14
1.41301e-14
1.56659e-14
1.97898e-14
2.74247e-14
2.70741e-14
1.73025e-14
1.81447e-14
1.36141e-14
1.65614e-14
1.4583e-14
1.40185e-14
1.61763e-14
1.86782e-14
1.23206e-14
7.39712e-15
1.37324e-14
2.26852e-14
8.77159e-15
1.28785e-14
1.00992e-14
1.57028e-14
7.42843e-15
1.44954e-14
1.05753e-14
8.82803e-15
1.54135e-14
2.1169e-14
1.44299e-14
1.52765e-14
1.01274e-14
1.26395e-14
2.00714e-14
2.71525e-14
1.89654e-14
2.11947e-14
1.9669e-14
2.26936e-14
2.2698e-14
1.85201e-14
1.94076e-14
1.72419e-14
1.95945e-14
2.17492e-14
2.7741e-14
1.77436e-14
1.11504e-14
5.25985e-15
8.87145e-15
1.2042e-14
1.89739e-14
9.96168e-15
6.89996e-15
4.86398e-15
2.47309e-14
2.28457e-14
1.19083e-14
1.12442e-14
1.53288e-14
2.04631e-14
2.23739e-14
2.1843e-14
2.27276e-14
2.12406e-14
3.02215e-14
2.16164e-14
1.82404e-14
8.46758e-15
1.11145e-14
5.02269e-15
5.44144e-15
5.62951e-15
9.00787e-15
5.95833e-15
6.66651e-15
9.53285e-15
6.78352e-15
9.75269e-15
1.44377e-14
1.06737e-14
9.16357e-15
1.30401e-14
6.59144e-15
1.22846e-14
2.07991e-14
1.81781e-14
1.1955e-14
9.94704e-15
1.51938e-14
1.01441e-14
1.51643e-14
7.90397e-15
1.20438e-14
1.55187e-15
8.95932e-15
1.19879e-14
1.5448e-14
6.50944e-15
1.05757e-14
7.51238e-15
6.01187e-15
1.4322e-14
1.07871e-14
1.26978e-14
9.20017e-15
1.20575e-14
1.2424e-14
8.5361e-15
6.47662e-15
9.29436e-15
6.09959e-15
5.86399e-15
7.09849e-15
4.40455e-15
4.50067e-15
8.3983e-15
1.12687e-14
4.70035e-15
5.30498e-15
7.51114e-15
1.32271e-14
1.20788e-14
8.54377e-15
1.2879e-14
1.46925e-14
1.3069e-14
1.11481e-14
1.4016e-14
8.69569e-15
1.39266e-14
1.32658e-14
1.70387e-14
1.49111e-14
1.67297e-14
1.3815e-14
1.56239e-14
1.20247e-14
1.31098e-14
1.28845e-14
1.53393e-14
1.31899e-14
1.31418e-14
1.20142e-14
1.16164e-14
1.19728e-14
7.21322e-15
1.13386e-14
1.15722e-14
6.42327e-15
9.15358e-15
6.47749e-15
1.08836e-14
8.0441e-16
9.75469e-15
1.42511e-14
1.30122e-14
1.70675e-14
1.63375e-14
1.53076e-14
1.13022e-14
1.37526e-14
1.16749e-14
1.8446e-14
1.96892e-14
2.55313e-14
1.35438e-14
1.34184e-14
1.95213e-14
1.81549e-14
1.98232e-14
2.84653e-14
3.12959e-14
3.02513e-14
2.96653e-14
2.76514e-14
3.03322e-14
2.88884e-14
2.90023e-14
2.73623e-14
2.64184e-14
2.26861e-14
2.77379e-14
2.3859e-14
2.50129e-14
2.19847e-14
1.68205e-14
1.78097e-14
2.14512e-14
2.38841e-14
2.55438e-14
2.31885e-14
2.01324e-14
1.70668e-14
1.75896e-14
2.29117e-14
3.01121e-14
2.38102e-14
2.55935e-14
2.50764e-14
2.36157e-14
2.33321e-14
2.61752e-14
2.20309e-14
2.45253e-14
2.29392e-14
2.36171e-14
2.14998e-14
2.6881e-14
2.33331e-14
2.82677e-14
2.38737e-14
2.72233e-14
2.32611e-14
2.62313e-14
2.61209e-14
3.09021e-14
2.93056e-14
3.29689e-14
3.54503e-14
3.08738e-14
2.48718e-14
2.35602e-14
2.90763e-14
3.52449e-14
3.26489e-14
3.0582e-14
2.39796e-14
2.13974e-14
2.30519e-14
2.15787e-14
2.10148e-14
2.13393e-14
2.19424e-14
2.1193e-14
2.49341e-14
2.49455e-14
3.05567e-14
2.86194e-14
2.79878e-14
2.82248e-14
2.7564e-14
2.12806e-14
2.19835e-14
1.89967e-14
2.12923e-14
2.02473e-14
2.1514e-14
1.95411e-14
2.32306e-14
2.05225e-14
1.82363e-14
1.71827e-14
2.11382e-14
2.02917e-14
1.80608e-14
1.99334e-14
1.82447e-14
2.45129e-14
2.8997e-14
2.26128e-14
2.16986e-14
2.20096e-14
2.13539e-14
1.93278e-14
2.23314e-14
4.63695e-14
4.29294e-14
4.48496e-14
5.13086e-14
4.87237e-14
4.346e-14
4.38747e-14
4.55205e-14
4.99544e-14
5.01086e-14
5.05125e-14
4.67994e-14
4.6506e-14
4.27294e-14
4.1087e-14
3.46556e-14
3.78658e-14
4.33041e-14
3.9065e-14
3.25202e-14
3.57829e-14
3.82157e-14
3.80282e-14
3.89722e-14
4.05432e-14
4.25108e-14
4.80724e-14
4.94803e-14
4.62424e-14
4.51091e-14
4.72353e-14
4.73634e-14
4.48723e-14
4.37835e-14
4.29225e-14
4.13594e-14
4.44341e-14
4.37402e-14
4.01223e-14
4.16999e-14
4.37902e-14
3.90367e-14
4.20694e-14
4.00869e-14
4.28595e-14
4.19238e-14
4.32599e-14
4.29447e-14
4.36959e-14
4.03091e-14
4.50503e-14
4.8606e-14
5.27135e-14
4.99614e-14
4.6396e-14
4.69163e-14
4.62985e-14
4.80085e-14
4.22886e-14
4.61633e-14
4.54495e-14
4.37467e-14
4.5052e-14
4.18257e-14
4.56855e-14
4.25717e-14
4.32295e-14
4.39244e-14
4.22665e-14
4.38594e-14
3.97224e-14
4.18926e-14
4.07882e-14
4.15748e-14
4.08428e-14
4.18321e-14
3.99285e-14
4.3181e-14
4.10106e-14
4.34276e-14
4.45245e-14
4.59314e-14
4.24051e-14
4.13212e-14
3.79369e-14
3.96923e-14
4.12904e-14
4.2427e-14
3.98267e-14
4.58409e-14
4.48682e-14
4.81484e-14
5.04658e-14
4.92703e-14
4.73007e-14
4.75053e-14
4.33943e-14
4.73001e-14
2.90251e-14
3.25219e-14
3.04323e-14
2.72205e-14
2.06567e-14
2.11163e-14
2.35022e-14
2.67559e-14
2.58286e-14
3.09313e-14
2.88726e-14
2.55904e-14
2.43117e-14
1.96155e-14
1.17055e-14
1.29866e-14
1.09668e-14
1.57972e-14
1.74386e-14
1.88485e-14
1.89149e-14
1.61106e-14
1.30819e-14
1.64608e-14
2.04948e-14
2.58857e-14
2.46738e-14
2.54291e-14
2.3674e-14
2.64812e-14
2.63701e-14
3.01263e-14
2.71515e-14
2.56455e-14
2.13397e-14
2.19039e-14
1.833e-14
1.89851e-14
1.72128e-14
2.11275e-14
1.47169e-14
1.6374e-14
1.46181e-14
1.62365e-14
1.18823e-14
1.84425e-14
1.8652e-14
2.20412e-14
2.12458e-14
2.24362e-14
2.34216e-14
2.58558e-14
2.71632e-14
2.82158e-14
2.58083e-14
2.36147e-14
1.91702e-14
2.02053e-14
1.69767e-14
2.10266e-14
2.506e-14
2.37772e-14
2.62968e-14
2.46719e-14
2.38406e-14
2.16736e-14
2.27841e-14
2.03667e-14
1.92012e-14
1.45347e-14
1.57444e-14
1.64877e-14
1.51913e-14
1.33592e-14
1.78273e-14
1.54252e-14
1.94114e-14
1.82798e-14
2.53797e-14
2.7726e-14
2.77947e-14
2.32728e-14
2.56918e-14
2.50932e-14
2.10801e-14
1.57953e-14
1.8795e-14
2.15977e-14
2.12991e-14
2.51873e-14
2.3997e-14
2.24874e-14
2.88949e-14
2.9376e-14
2.72217e-14
2.93791e-14
3.00145e-14
2.68882e-14
2.3266e-14
1.97345e-14
1.89767e-14
2.3078e-14
2.54845e-14
1.99302e-14
2.69354e-14
1.95003e-14
2.44758e-14
2.14997e-14
2.37455e-14
2.49355e-14
2.79198e-14
2.76225e-14
2.48502e-14
2.28226e-14
2.24949e-14
2.09262e-14
1.7833e-14
2.02159e-14
2.14604e-14
2.28515e-14
2.37766e-14
2.18547e-14
2.10774e-14
2.45468e-14
2.2664e-14
1.57223e-14
1.21365e-14
1.22322e-14
1.55025e-14
1.69341e-14
1.69257e-14
1.9762e-14
2.19941e-14
2.29937e-14
2.41685e-14
2.19021e-14
2.21854e-14
2.17764e-14
2.45255e-14
2.39953e-14
2.5834e-14
2.68918e-14
2.73702e-14
2.5986e-14
2.41e-14
2.46698e-14
2.55177e-14
2.28064e-14
2.29125e-14
2.12939e-14
1.98775e-14
1.97623e-14
1.70544e-14
1.93279e-14
2.03877e-14
1.62693e-14
1.57206e-14
1.68202e-14
1.65811e-14
1.58075e-14
1.42339e-14
1.50811e-14
1.84456e-14
1.7689e-14
1.92209e-14
2.30851e-14
2.07597e-14
2.2454e-14
2.17687e-14
2.33299e-14
2.36101e-14
2.15593e-14
1.9498e-14
2.43919e-14
2.30722e-14
2.47105e-14
2.53896e-14
2.33364e-14
1.79947e-14
1.84056e-14
1.82965e-14
2.20936e-14
2.11138e-14
2.26129e-14
1.97296e-14
1.87681e-14
1.62125e-14