/*--------------------------------*- C++ -*----------------------------------*\
| =========                 |                                                 |
| \\      /  F ield         | OpenFOAM: The Open Source CFD Toolbox           |
|  \\    /   O peration     | Version:  2406                                  |
|   \\  /    A nd           | Website:  www.openfoam.com                      |
|    \\/     M anipulation  |                                                 |
\*---------------------------------------------------------------------------*/
FoamFile
{
    version     2.0;
    format      ascii;
    arch        "LSB;label=32;scalar=64";
    class       volVectorField;
    location    "0.02";
    object      U;
}
// * * * * * * * * * * * * * * * * * * * * * * * * * * * * * * * * * * * * * //

dimensions      [0 1 -1 0 0 0 0];

internalField   nonuniform List<vector> 
13988
(
(1.12531e-12 -3.64604e-12 3.68323e-12)
(6.74523e-14 -1.83979e-12 1.03197e-12)
(-1.14369e-13 -9.47685e-13 3.32269e-12)
(-2.30684e-13 -2.02979e-12 2.28131e-12)
(-2.11199e-13 -1.42722e-12 4.98073e-13)
(-2.39595e-13 -3.48465e-12 -1.30123e-12)
(8.07688e-13 -3.40447e-12 -3.8074e-12)
(8.20063e-13 -2.41225e-12 -6.8889e-12)
(8.62338e-13 -4.70025e-12 -8.62874e-12)
(1.46625e-12 -6.19744e-12 -1.05246e-11)
(-3.14248e-13 -8.14712e-12 -1.0517e-11)
(-1.90319e-12 -4.59211e-12 -9.01488e-12)
(-3.18562e-12 -3.48015e-12 -7.09321e-12)
(-1.79824e-12 -2.04805e-12 -8.30235e-12)
(-1.9984e-13 -2.94251e-12 -5.06757e-12)
(-5.8685e-13 -1.44005e-12 -1.187e-12)
(9.40921e-13 -2.42327e-12 3.0002e-13)
(1.38296e-12 -3.518e-12 1.04364e-12)
(5.19271e-13 -3.24798e-12 9.5356e-13)
(2.21983e-12 -3.68549e-12 -3.21588e-13)
(2.53087e-12 -3.80724e-12 -1.25353e-12)
(-8.11192e-13 -2.2937e-12 -3.88993e-13)
(-2.12863e-12 -2.56048e-12 9.83928e-13)
(-1.64189e-13 -2.10406e-12 -1.75788e-12)
(-2.09706e-13 -8.97329e-13 -4.29002e-12)
(-4.82123e-13 1.21083e-12 -4.33364e-12)
(4.83553e-13 8.40636e-14 -4.91031e-12)
(-1.21379e-12 -9.10995e-13 -5.8731e-12)
(-3.12702e-12 -1.82223e-12 -7.31173e-12)
(-1.9893e-12 -1.68612e-12 -1.00871e-11)
(-1.3632e-12 -2.9687e-12 -8.95855e-12)
(-9.33389e-13 -2.03596e-12 -8.06466e-12)
(1.47091e-12 -1.71722e-12 -6.89301e-12)
(2.24786e-12 1.05556e-12 -4.19649e-12)
(2.47239e-12 -4.70191e-13 -4.63714e-13)
(1.04819e-12 -1.12099e-12 2.92626e-12)
(-9.48046e-13 -3.70136e-12 2.35053e-13)
(4.42528e-13 -3.43082e-12 -5.18673e-12)
(2.48125e-12 -4.08935e-12 -3.88812e-12)
(1.61784e-12 -2.25053e-12 -1.54974e-12)
(1.99716e-12 -4.62284e-12 -2.90119e-12)
(5.9184e-13 -5.68499e-12 -4.25311e-12)
(-7.47401e-13 -5.60592e-12 -3.29514e-12)
(1.44062e-13 -4.49979e-12 -1.91841e-12)
(-1.75616e-12 -5.71412e-12 4.64951e-13)
(-9.42846e-13 -4.05727e-12 2.05749e-12)
(3.79782e-13 -5.24145e-12 2.52456e-12)
(-4.303e-13 -3.76731e-12 1.36239e-13)
(-1.77613e-12 -1.5146e-12 1.1954e-12)
(1.67567e-13 7.6841e-13 2.61833e-12)
(2.22334e-12 -1.51631e-12 3.81068e-12)
(1.50539e-12 -1.73637e-12 2.48443e-12)
(1.87276e-12 -1.81287e-12 2.22821e-12)
(2.97806e-13 -1.32176e-12 2.6545e-12)
(-1.15995e-12 -3.99659e-12 1.11955e-13)
(-2.36835e-12 -3.42737e-12 -1.62573e-12)
(-2.48916e-12 -1.60096e-12 -1.94986e-12)
(4.64003e-13 -5.49433e-13 -2.08135e-12)
(1.30571e-12 -2.09922e-12 -1.71747e-12)
(-4.73332e-14 1.19286e-13 6.96141e-13)
(-9.14665e-13 -2.20145e-12 -4.04795e-13)
(1.70588e-12 -6.48711e-12 -2.38398e-12)
(1.57973e-12 -7.66607e-12 -6.5935e-12)
(-6.55772e-13 -6.37306e-12 -9.84724e-12)
(1.43045e-12 -5.56818e-12 -1.20093e-11)
(2.25518e-12 -3.03713e-12 -1.27416e-11)
(7.73073e-13 -4.54495e-12 -1.37997e-11)
(-1.16344e-12 -3.32137e-12 -1.33771e-11)
(1.20351e-12 -2.97637e-12 -1.41533e-11)
(3.03716e-12 -4.2485e-12 -1.42898e-11)
(7.47361e-13 -3.11502e-12 -1.48557e-11)
(7.49223e-13 -4.51424e-12 -1.3488e-11)
(-7.30993e-13 -1.44816e-12 -1.18729e-11)
(-1.37797e-12 -8.74279e-13 -1.07313e-11)
(-2.23233e-13 -7.20104e-13 -1.03687e-11)
(3.19101e-13 -6.6266e-13 -1.00422e-11)
(1.18891e-12 -3.1226e-12 -8.69599e-12)
(5.95861e-13 -6.47283e-12 -6.64296e-12)
(-1.49263e-12 -5.16244e-12 -6.88796e-12)
(-3.10149e-12 -5.53887e-12 -8.6409e-12)
(-2.21189e-12 -2.25743e-12 -9.85789e-12)
(-1.85139e-12 -5.02086e-12 -8.62619e-12)
(-6.45553e-14 -2.8805e-12 -8.73927e-12)
(1.52343e-12 -4.93069e-12 -9.17774e-12)
(4.63615e-13 -4.08805e-12 -9.58937e-12)
(1.15235e-12 -5.8795e-12 -8.02432e-12)
(1.42484e-12 -4.7672e-12 -4.51423e-12)
(1.31388e-12 -3.73627e-12 -5.76521e-12)
(-5.03317e-14 -1.36988e-12 -6.52938e-12)
(-3.25217e-12 -2.71202e-12 -5.56847e-12)
(-1.87321e-12 -2.09851e-12 -5.73694e-12)
(-1.77734e-12 -4.37906e-12 -5.68694e-12)
(-2.92186e-12 -2.14778e-12 -4.8161e-12)
(-1.73557e-12 -2.08264e-12 -7.97136e-12)
(5.62164e-13 -4.24445e-12 -1.10521e-11)
(2.75393e-12 -4.6226e-12 -9.50844e-12)
(2.16095e-12 -2.31752e-12 -9.69985e-12)
(3.06865e-13 -3.09888e-12 -7.93671e-12)
(7.79207e-13 6.81035e-13 -6.81261e-12)
(1.05036e-12 -1.69948e-13 -5.76377e-12)
(1.06373e-13 4.40759e-13 -6.71047e-12)
(4.98822e-13 -2.13183e-13 9.18721e-12)
(-1.57377e-12 6.5195e-13 5.44225e-12)
(1.38571e-13 1.54163e-12 6.08671e-12)
(-9.15848e-13 3.14597e-12 3.33712e-12)
(-3.79629e-13 1.73039e-12 1.19672e-13)
(1.16057e-12 1.88803e-13 -2.3066e-12)
(5.72247e-13 -1.75078e-12 -2.84956e-12)
(1.55352e-12 -1.68377e-12 -4.40912e-12)
(2.78382e-12 -3.84201e-12 -7.02247e-12)
(3.46334e-12 -3.64882e-12 -9.78976e-12)
(-9.84039e-13 -3.78141e-12 -8.28794e-12)
(-4.60244e-12 -8.0372e-13 -6.20234e-12)
(-3.1065e-12 -7.48399e-13 -6.3668e-12)
(-2.26192e-12 -7.23478e-14 -7.0538e-12)
(-2.14535e-12 6.98288e-13 -6.82813e-12)
(-1.08464e-12 1.04299e-12 -3.2726e-12)
(2.44286e-12 5.75817e-13 -1.41751e-12)
(2.31579e-12 8.14187e-13 8.97603e-13)
(2.17293e-12 -7.72493e-13 -2.66904e-14)
(2.91342e-12 -3.17132e-12 -3.1519e-13)
(5.19783e-13 -3.23391e-13 -5.82894e-13)
(-2.53571e-12 -8.47153e-13 -1.79825e-12)
(-2.34144e-12 -1.57403e-12 -2.18012e-12)
(-6.14619e-13 -1.19514e-12 -2.83572e-12)
(-1.12542e-12 -1.1682e-12 -4.00066e-12)
(-7.23938e-13 8.83368e-13 -3.7515e-12)
(1.37105e-12 1.24234e-13 -3.28595e-12)
(-5.95814e-13 2.0555e-12 -5.21992e-12)
(-2.38416e-12 3.77401e-13 -5.79696e-12)
(-2.0767e-12 7.25372e-13 -6.62121e-12)
(-2.99489e-12 -1.15723e-12 -5.41994e-12)
(-1.76559e-12 -2.23655e-13 -6.26387e-12)
(3.14661e-13 8.95876e-13 -3.92181e-12)
(2.52487e-12 3.46464e-12 -2.53112e-12)
(4.60618e-12 3.4951e-12 -7.10256e-13)
(2.15399e-12 3.94594e-12 3.5983e-12)
(-2.02439e-13 -1.792e-13 4.78145e-12)
(1.17535e-13 -1.90859e-12 -4.88792e-13)
(7.32846e-13 -2.5493e-12 -1.65282e-12)
(1.87051e-12 -2.08167e-12 -2.61631e-12)
(3.60327e-12 -2.97594e-12 -3.64472e-12)
(1.4681e-12 -3.60074e-12 -5.07631e-12)
(-4.09154e-13 -4.4041e-12 -2.45907e-12)
(1.47646e-12 -2.14597e-12 -5.74048e-13)
(-6.81651e-13 -4.10747e-12 1.2933e-12)
(-2.01786e-12 -3.90939e-12 4.26313e-12)
(-9.96247e-13 -2.93399e-12 6.14313e-12)
(-2.38535e-12 -7.55398e-13 1.96629e-12)
(-1.797e-12 1.2463e-12 1.92003e-12)
(6.20649e-13 -1.55301e-12 3.28509e-12)
(2.00137e-12 4.75415e-13 5.68038e-12)
(1.33902e-12 -2.64029e-14 3.56899e-12)
(1.64987e-12 -3.29861e-14 1.71592e-12)
(1.90923e-12 3.67011e-13 1.94147e-12)
(-9.74019e-14 -1.84105e-12 1.46357e-12)
(-3.74382e-12 -1.46377e-12 -1.48218e-12)
(-2.44819e-12 3.95975e-13 -3.06369e-12)
(1.4147e-12 8.25461e-13 -4.46464e-12)
(-1.72631e-13 1.02567e-13 -4.31707e-12)
(-3.3598e-13 8.08289e-13 -1.77429e-12)
(2.49632e-12 -3.00981e-12 -3.14596e-13)
(2.51432e-12 -4.67264e-12 -2.32001e-12)
(3.30068e-13 -3.64506e-12 -5.66504e-12)
(-1.76412e-12 -5.30835e-12 -1.09369e-11)
(-1.04033e-14 -2.66962e-12 -1.3432e-11)
(1.9181e-12 -1.40087e-12 -1.24671e-11)
(2.07932e-13 -7.97889e-13 -1.5051e-11)
(-8.39865e-13 1.29013e-12 -1.45511e-11)
(1.93153e-12 1.45169e-13 -1.52157e-11)
(2.04116e-12 4.04818e-13 -1.32108e-11)
(4.38301e-13 -1.07445e-14 -1.51652e-11)
(-5.88887e-13 -1.47035e-12 -1.26301e-11)
(-2.3422e-12 -3.54291e-13 -1.24227e-11)
(-1.13494e-12 -1.87797e-12 -1.32227e-11)
(-7.48107e-13 -1.14166e-12 -1.12271e-11)
(8.09549e-13 -2.02722e-12 -9.76129e-12)
(3.89855e-12 1.48972e-13 -8.87515e-12)
(2.13959e-12 -1.46946e-12 -5.14186e-12)
(-1.90427e-12 -1.38777e-12 -6.40673e-12)
(-4.21463e-12 -2.99929e-12 -7.45306e-12)
(-2.10626e-12 -1.74129e-12 -6.8962e-12)
(-7.91369e-13 -1.98371e-12 -5.46459e-12)
(-5.25022e-14 -1.9739e-12 -7.46223e-12)
(1.30644e-12 -1.50246e-12 -6.83493e-12)
(5.25443e-13 -3.27034e-12 -7.84089e-12)
(8.50968e-13 -4.01444e-12 -8.30615e-12)
(8.16215e-13 -2.7774e-12 -5.39443e-12)
(-1.87052e-13 -7.29332e-13 -5.97576e-12)
(-2.72975e-13 1.86672e-12 -8.70457e-12)
(-1.01315e-12 -1.70331e-13 -6.40413e-12)
(-7.06329e-13 -1.65042e-12 -6.58504e-12)
(-2.60449e-12 -7.55065e-14 -6.18669e-12)
(-5.10979e-12 1.24244e-12 -5.84397e-12)
(-1.76578e-12 -1.3985e-12 -6.89449e-12)
(1.01375e-12 -1.80487e-12 -8.43795e-12)
(2.47488e-12 -3.27225e-12 -7.22439e-12)
(2.41195e-12 -1.7658e-12 -7.33413e-12)
(3.58611e-13 -3.40517e-13 -6.30785e-12)
(-9.44851e-15 9.74795e-13 -5.39731e-12)
(5.02436e-13 2.87274e-12 -3.18007e-12)
(4.97986e-13 5.24931e-13 7.75898e-12)
(-1.59091e-12 -1.6666e-12 7.32382e-12)
(-1.81147e-12 -1.2917e-12 7.38334e-12)
(-1.0033e-12 -7.82129e-13 4.52069e-12)
(7.16394e-13 -3.08345e-12 3.23647e-13)
(2.13863e-12 -3.6043e-12 -3.4549e-12)
(1.61775e-12 -2.33289e-12 -2.50344e-12)
(2.27104e-12 -3.04296e-12 -3.09373e-12)
(2.39149e-12 -3.19284e-12 -4.8446e-12)
(1.86793e-12 -5.1696e-12 -6.77965e-12)
(-2.43173e-12 -2.85093e-12 -5.45595e-12)
(-4.536e-12 -1.18794e-12 -3.90068e-12)
(-3.56934e-12 -1.17334e-12 -5.66191e-12)
(-2.87477e-12 -1.67997e-12 -6.50984e-12)
(-1.5863e-12 -1.47669e-12 -5.8803e-12)
(-4.93012e-13 -2.4606e-12 -3.93312e-12)
(2.01153e-12 -2.99003e-12 -1.00658e-12)
(2.655e-12 -2.89845e-12 2.26016e-12)
(3.2956e-12 -2.6441e-12 2.55092e-12)
(2.36133e-12 -3.51717e-12 8.92844e-15)
(5.41584e-14 -1.36456e-12 -1.88501e-12)
(-1.38583e-12 -2.30049e-12 -4.62521e-12)
(-2.05892e-12 -1.84867e-12 -3.80475e-12)
(-5.89172e-13 -2.80592e-12 -2.50448e-12)
(-1.57798e-12 -3.41183e-12 -4.32091e-12)
(-7.5781e-13 -2.53305e-12 -3.85745e-12)
(3.24435e-13 -1.17436e-12 -4.19035e-12)
(-8.74857e-13 -1.13471e-12 -5.8622e-12)
(-1.39671e-12 -5.29643e-13 -4.60126e-12)
(-7.74807e-13 -1.88539e-12 -3.90938e-12)
(-1.50487e-12 -2.86952e-12 -5.22632e-12)
(-2.35362e-12 -5.22892e-12 -6.30947e-12)
(-2.37506e-13 -4.47229e-12 -5.32051e-12)
(1.96963e-12 -2.27e-12 -1.41245e-12)
(2.77765e-12 -2.73953e-12 4.42645e-12)
(3.15764e-12 -3.4177e-13 7.21042e-12)
(2.51048e-12 -2.91111e-12 8.73105e-12)
(1.01289e-12 -4.26407e-12 4.51694e-12)
(1.37003e-12 -4.18568e-12 3.32171e-13)
(1.97328e-12 -4.62444e-12 -2.87341e-12)
(3.59977e-12 -3.58939e-12 -3.55745e-12)
(2.25652e-12 -4.02311e-12 -2.56196e-12)
(-1.56352e-12 -5.00877e-12 -1.0272e-12)
(7.71627e-14 -5.41355e-12 5.31631e-13)
(-9.66037e-14 -2.93242e-12 3.06897e-12)
(-1.51648e-12 -4.04109e-12 5.70323e-12)
(-1.82729e-12 -1.27912e-12 4.0609e-12)
(-3.19608e-12 -3.02866e-12 7.82262e-13)
(-3.56332e-13 -2.30732e-12 1.5266e-12)
(9.89093e-13 -3.39665e-12 2.23874e-12)
(8.88538e-13 -2.36834e-12 1.02933e-12)
(2.08511e-12 -1.14588e-12 3.62468e-12)
(1.63343e-12 -2.11984e-12 6.53798e-12)
(2.19094e-12 -2.57259e-12 3.56235e-12)
(3.10019e-13 -3.49912e-12 3.21697e-13)
(-3.74445e-12 -3.36708e-12 -1.94471e-12)
(-3.41757e-12 -1.19751e-12 -3.17861e-12)
(7.31421e-13 -5.63664e-13 -3.57321e-12)
(3.08438e-13 -1.42712e-13 -2.76644e-12)
(8.17601e-13 -3.49061e-12 -2.23431e-12)
(2.45176e-12 -6.25173e-12 -1.89583e-12)
(1.17423e-12 -5.60585e-12 -2.37881e-12)
(1.5145e-12 -5.15255e-12 -4.45681e-12)
(-1.23559e-12 -5.0564e-12 -6.17255e-12)
(-8.45556e-13 -2.62247e-12 -9.26462e-12)
(1.41771e-12 -2.11042e-13 -9.64476e-12)
(-8.58955e-13 2.29144e-14 -1.2745e-11)
(-1.44978e-12 -7.73919e-13 -1.46968e-11)
(2.13653e-12 -3.07389e-13 -1.59015e-11)
(2.84696e-12 2.28162e-12 -1.3749e-11)
(1.93773e-12 9.36517e-13 -1.3462e-11)
(2.83912e-13 -3.47472e-13 -1.09556e-11)
(-1.62649e-12 -3.9561e-12 -1.07943e-11)
(-6.67977e-13 -2.51794e-12 -1.10328e-11)
(2.84121e-13 -2.41131e-12 -1.05542e-11)
(-2.21535e-13 -2.66599e-12 -8.75401e-12)
(1.99118e-12 -8.78907e-13 -6.67988e-12)
(2.09271e-12 4.31173e-13 -6.85e-12)
(-1.21369e-12 -1.00174e-12 -6.98082e-12)
(-3.66836e-12 -3.34415e-12 -7.24126e-12)
(-3.0081e-12 -3.25925e-12 -4.89113e-12)
(-1.43583e-12 -1.22213e-12 -6.42022e-12)
(-3.12701e-13 -2.47611e-12 -9.72403e-12)
(2.26718e-12 -2.73136e-12 -1.04351e-11)
(2.07928e-12 -5.16338e-12 -7.15846e-12)
(5.57984e-13 -5.30254e-12 -2.84967e-12)
(-4.35188e-13 -3.68968e-12 -1.91384e-12)
(-1.73295e-12 -8.17729e-13 -5.40016e-12)
(-8.53507e-14 -2.5111e-12 -8.80537e-12)
(-3.21903e-13 -2.3809e-12 -6.52351e-12)
(-1.47528e-12 2.33854e-13 -6.16044e-12)
(-4.04113e-12 3.46253e-12 -6.22771e-12)
(-3.77226e-12 9.35646e-13 -6.4499e-12)
(-1.0652e-12 -1.66212e-12 -7.11744e-12)
(8.57479e-13 -3.85833e-12 -7.61235e-12)
(3.04897e-12 -4.09706e-12 -7.52501e-12)
(5.38843e-13 -1.79725e-12 -6.38719e-12)
(-1.321e-12 -1.29486e-14 -5.15173e-12)
(-1.1731e-12 6.7229e-14 -5.82773e-12)
(7.31086e-13 1.58187e-12 -5.83869e-12)
(-5.35754e-13 1.59411e-13 7.73078e-12)
(-6.0136e-13 -2.58468e-12 7.93594e-12)
(-2.26307e-13 -3.8237e-12 5.10374e-12)
(1.69589e-12 -3.01775e-12 1.54845e-12)
(3.79602e-13 -3.35331e-12 -1.00598e-12)
(1.78847e-13 -2.12213e-12 -1.40147e-12)
(2.11205e-12 -2.93737e-12 -1.62564e-12)
(3.64434e-12 -2.30882e-12 -3.06917e-12)
(2.5732e-12 -2.57934e-12 -4.26027e-12)
(-3.64358e-12 -7.25438e-13 -4.22929e-12)
(-4.7848e-12 -1.60183e-12 -6.15295e-12)
(-2.44397e-12 -5.0155e-13 -5.80781e-12)
(-1.95101e-12 -1.55494e-12 -6.10459e-12)
(-2.17321e-12 -1.64135e-12 -5.10715e-12)
(9.57881e-14 -3.55228e-12 -4.01295e-12)
(2.91864e-12 -2.69318e-12 1.46339e-12)
(1.7847e-12 -2.72141e-12 5.42284e-12)
(2.63348e-12 -1.93859e-12 4.66445e-12)
(2.43008e-12 -4.50586e-13 8.01609e-13)
(-8.21786e-13 -3.14072e-13 -1.93927e-12)
(-2.01102e-12 -7.45513e-13 -4.02548e-12)
(-1.59243e-12 -3.45113e-13 -4.11725e-12)
(3.35035e-13 -2.00494e-12 -3.86287e-12)
(-1.19188e-12 -1.74711e-12 -4.30894e-12)
(-1.74088e-12 -2.97743e-12 -3.73038e-12)
(7.91111e-13 -1.43175e-12 -3.84712e-12)
(-1.20665e-12 -2.01776e-12 -3.83439e-12)
(-1.79555e-12 -1.54824e-12 -2.20101e-12)
(3.02024e-14 -4.01412e-12 -4.58466e-13)
(4.59447e-13 -3.57593e-12 -3.76664e-12)
(-5.58219e-13 -6.0799e-12 -7.21917e-12)
(-1.04313e-12 -6.33823e-12 -6.96524e-12)
(1.12177e-12 -5.38877e-12 5.49079e-13)
(1.24416e-12 -4.45073e-12 9.97497e-12)
(2.34239e-12 -3.72373e-12 1.04675e-11)
(2.53121e-12 -2.75549e-12 9.24858e-12)
(7.023e-13 -2.97472e-12 3.15002e-12)
(1.49895e-12 -4.24493e-12 -1.08242e-12)
(1.38851e-12 -4.1647e-12 -2.85559e-12)
(2.66971e-12 -4.35197e-12 -2.87044e-12)
(2.42043e-12 -2.94909e-12 -2.62659e-12)
(1.70114e-13 -3.09963e-12 8.19542e-14)
(-7.95532e-13 -4.64911e-12 2.07207e-12)
(-1.29346e-12 -1.72023e-12 3.94796e-12)
(-2.38243e-12 -1.49754e-12 3.74795e-12)
(-1.62842e-12 -5.44647e-13 2.61732e-12)
(-1.35565e-12 -2.43379e-12 1.27916e-12)
(-1.99513e-12 -3.87188e-12 1.13621e-12)
(3.95804e-13 -3.09672e-12 6.23018e-13)
(4.24033e-13 -3.53993e-12 -1.51402e-12)
(1.52083e-12 -1.37995e-12 2.93737e-12)
(2.98136e-12 -3.33549e-13 7.8796e-12)
(2.78925e-12 -1.08022e-12 5.45521e-12)
(1.10698e-13 -1.11528e-12 2.30014e-13)
(-4.39784e-12 -5.32193e-13 -2.6374e-12)
(-3.51139e-12 -1.95359e-12 -4.50242e-12)
(4.34305e-13 -4.12435e-12 -4.43348e-12)
(1.72594e-12 -2.25165e-12 -3.83387e-12)
(3.17764e-12 -5.74063e-12 -2.74132e-12)
(2.99747e-12 -3.56804e-12 -2.34918e-12)
(1.03924e-12 -4.02686e-12 -2.18567e-12)
(-2.07577e-13 -2.8329e-12 -3.01379e-12)
(-2.20608e-12 -1.39211e-12 -1.94305e-12)
(-3.19476e-12 -1.71939e-12 -6.15294e-12)
(5.8612e-13 1.67722e-12 -1.07286e-11)
(8.38443e-13 -2.68707e-13 -1.36168e-11)
(-2.61932e-13 -2.54448e-12 -1.38491e-11)
(3.75311e-13 -1.86504e-12 -1.22124e-11)
(1.66104e-12 2.00902e-15 -1.07168e-11)
(2.01942e-12 -1.16352e-12 -9.93818e-12)
(2.81132e-12 -1.84053e-12 -8.80063e-12)
(-1.02969e-12 -3.81822e-12 -7.55818e-12)
(-2.08905e-12 -2.61484e-12 -8.39459e-12)
(-1.20988e-13 -2.76014e-12 -8.23374e-12)
(1.60249e-15 -2.69172e-12 -6.8984e-12)
(1.05423e-12 -2.69064e-12 -6.83751e-12)
(1.49837e-12 -2.53571e-12 -6.73603e-12)
(-3.73469e-13 -3.7137e-12 -7.02104e-12)
(-3.04357e-12 -3.38393e-12 -8.70714e-12)
(-3.45621e-12 -4.1141e-12 -6.62118e-12)
(-1.52528e-12 -2.476e-12 -6.62964e-12)
(7.61145e-13 -4.23158e-12 -8.0131e-12)
(2.9281e-12 -3.63079e-12 -9.21906e-12)
(1.75191e-12 -1.6037e-12 -4.49673e-12)
(-3.57673e-13 -6.22967e-13 -3.76422e-13)
(-2.39279e-12 -9.78213e-13 -7.65001e-13)
(-6.32514e-13 2.1562e-14 -3.37752e-12)
(1.56045e-12 -1.87325e-12 -5.04306e-12)
(-1.95473e-12 -9.12379e-13 -5.22771e-12)
(-4.07185e-12 1.53221e-13 -5.59793e-12)
(-2.76754e-12 1.40631e-12 -6.4213e-12)
(-1.57068e-12 -2.80735e-12 -6.63405e-12)
(9.05905e-13 -2.18071e-12 -7.20959e-12)
(2.04892e-12 -5.64569e-12 -7.26714e-12)
(1.82658e-12 -2.58672e-12 -8.64242e-12)
(-1.76749e-13 -2.16095e-12 -6.82154e-12)
(-6.28084e-14 4.49101e-14 -1.99149e-12)
(-5.37656e-13 -1.0506e-12 3.3832e-13)
(1.48537e-12 -1.57716e-13 7.00533e-12)
(8.53547e-13 -2.34957e-12 8.2144e-12)
(-3.72675e-13 -3.59533e-12 5.62128e-12)
(6.70101e-13 -1.83168e-12 2.32932e-12)
(1.63792e-12 -2.33445e-12 4.23424e-13)
(2.27823e-12 -5.24421e-12 1.86612e-13)
(2.5154e-12 -6.33862e-12 -1.66468e-13)
(1.54614e-12 -5.64254e-12 -1.48865e-12)
(5.57992e-13 -2.56688e-12 -2.45755e-12)
(-3.02346e-12 -1.98936e-12 -1.86442e-12)
(-4.80869e-12 -2.86017e-12 -3.8219e-12)
(-3.48594e-12 -2.30865e-12 -4.8278e-12)
(-1.46336e-12 -1.8589e-12 -6.60458e-12)
(6.67354e-14 -2.44993e-12 -4.42418e-12)
(6.06625e-14 -3.43418e-12 -1.50375e-12)
(1.30208e-12 -3.12256e-12 1.24557e-12)
(1.68156e-12 -3.60789e-12 3.29693e-12)
(5.57612e-13 -3.0939e-12 4.74693e-12)
(6.41595e-13 -5.89321e-13 2.07358e-12)
(1.18409e-12 -8.90703e-13 -1.34482e-12)
(-6.82878e-13 -1.76552e-12 -3.75661e-12)
(-6.99087e-13 -3.01218e-12 -4.05453e-12)
(-1.65453e-13 -2.83206e-12 -4.20414e-12)
(-7.83011e-13 -1.45746e-12 -4.66675e-12)
(-4.10699e-13 -3.77169e-12 -2.8026e-12)
(-3.68452e-13 -4.07271e-12 -3.59904e-12)
(-2.78252e-13 -3.24662e-12 -3.24397e-12)
(1.3616e-13 -5.43725e-12 -2.31648e-12)
(9.58288e-13 -4.67425e-12 -1.90004e-12)
(6.6065e-13 -5.02322e-12 -2.49401e-12)
(-6.58657e-13 -5.71502e-12 -3.51664e-12)
(-1.50271e-12 -6.93438e-12 -2.42896e-12)
(7.81643e-14 -6.57534e-12 1.93025e-12)
(1.54451e-12 -5.4897e-12 8.20156e-12)
(1.27834e-12 -6.88131e-12 7.63768e-12)
(1.12268e-12 -4.27579e-12 6.27832e-12)
(1.97524e-12 -4.22554e-12 1.47575e-12)
(2.64533e-12 -4.04656e-12 -1.23435e-12)
(2.32226e-12 -4.57502e-12 -2.20062e-12)
(1.88263e-12 -6.83008e-12 -1.20473e-12)
(3.87616e-13 -5.07156e-12 -2.6691e-12)
(-2.3081e-13 -3.85666e-12 9.68746e-13)
(-1.54362e-12 -2.07985e-12 2.51979e-12)
(-2.4037e-12 -1.24023e-12 3.29945e-12)
(-1.41594e-12 -2.52721e-12 1.47596e-12)
(-1.03304e-12 -5.17319e-12 1.8434e-12)
(-6.67477e-13 -3.75638e-12 8.04368e-13)
(3.2163e-13 -5.03115e-12 1.28998e-12)
(8.69528e-13 -4.86155e-12 2.20873e-14)
(-8.48885e-14 -3.96034e-12 1.00124e-12)
(-2.08361e-13 -3.80452e-12 3.00234e-12)
(1.02436e-12 -1.38497e-12 5.14214e-12)
(2.09288e-12 -1.38069e-12 3.3408e-12)
(-2.45731e-13 7.39189e-13 -4.77335e-13)
(-2.8619e-12 5.04798e-13 -3.75994e-12)
(-5.10785e-13 -3.95314e-12 -5.51516e-12)
(1.5475e-12 -6.72107e-12 -5.71773e-12)
(2.42902e-12 -6.09461e-12 -5.35811e-12)
(1.6023e-12 -5.33783e-12 -2.12061e-12)
(3.90651e-13 -1.49426e-12 -2.51612e-12)
(2.84954e-13 -1.3205e-12 -2.34004e-12)
(-9.9714e-14 -1.13617e-12 -2.26034e-12)
(-3.2101e-13 -1.07708e-12 -2.1016e-12)
(-1.67538e-12 -3.58622e-12 -3.3641e-12)
(-2.93314e-13 -2.84248e-12 -5.58336e-12)
(1.20852e-12 -2.84242e-12 -6.31785e-12)
(-5.03647e-13 -2.82113e-12 -7.94842e-12)
(9.01684e-13 -3.41233e-12 -7.78218e-12)
(2.63435e-12 -4.06107e-12 -5.77425e-12)
(3.0384e-12 -3.85383e-12 -5.71212e-12)
(3.00485e-12 -4.39345e-12 -6.41111e-12)
(-4.21663e-14 -4.07337e-12 -6.78252e-12)
(-1.21458e-12 -6.77586e-12 -6.92003e-12)
(1.53552e-13 -7.20494e-12 -7.41085e-12)
(-7.25818e-13 -6.60369e-12 -4.8323e-12)
(1.17053e-12 -6.84938e-12 -5.84602e-12)
(2.5332e-12 -7.61077e-12 -5.01757e-12)
(-1.33536e-12 -6.53362e-12 -3.82563e-12)
(-3.49136e-12 -5.56929e-12 -6.16636e-12)
(-3.4189e-12 -6.11532e-12 -6.34847e-12)
(-1.98515e-12 -6.19251e-12 -5.26222e-12)
(7.40265e-13 -4.89273e-12 -5.42412e-12)
(9.31417e-13 -1.48929e-12 -4.09863e-12)
(-2.92478e-14 -5.7748e-15 -6.04239e-14)
(2.46498e-13 9.09729e-13 3.58141e-12)
(-1.14405e-12 -2.02266e-13 2.59112e-12)
(-1.34198e-12 -2.43875e-12 -1.47675e-14)
(3.59854e-13 -1.15041e-12 -4.32327e-13)
(-1.20431e-12 -2.26547e-12 -1.67855e-12)
(-3.42876e-12 -3.36346e-12 -4.83201e-12)
(-1.00188e-12 -3.7649e-12 -7.8246e-12)
(6.39223e-13 -5.25931e-12 -8.91241e-12)
(1.68751e-12 -5.79732e-12 -7.50214e-12)
(1.60695e-12 -6.07327e-12 -6.16556e-12)
(9.50323e-13 -5.1951e-12 -6.23068e-12)
(3.23424e-13 -5.04656e-12 -1.95396e-12)
(-9.4124e-13 -4.89553e-12 3.77127e-12)
(-1.3881e-12 -4.43591e-12 5.90152e-12)
(2.28217e-12 -3.44686e-12 5.28381e-12)
(1.94954e-12 -3.98739e-12 7.00119e-12)
(-3.08954e-13 -6.04165e-12 5.47839e-12)
(3.93582e-13 -4.10674e-12 1.69537e-12)
(2.5462e-12 -7.58356e-12 9.06423e-13)
(3.2648e-12 -8.64115e-12 4.75317e-13)
(2.17676e-12 -9.76038e-12 1.39143e-12)
(8.72854e-13 -9.94467e-12 -6.94297e-13)
(-1.71189e-14 -8.37303e-12 -2.30083e-12)
(-3.3641e-12 -6.69559e-12 -2.47621e-12)
(-4.48312e-12 -5.61557e-12 -3.36404e-12)
(-3.16513e-12 -4.85009e-12 -2.83099e-12)
(-1.14898e-12 -3.86398e-12 -4.68054e-12)
(1.1968e-13 -6.45541e-12 -3.6352e-12)
(3.07664e-14 -6.02208e-12 -1.80612e-12)
(2.32341e-12 -5.67314e-12 -7.8755e-13)
(1.41442e-12 -8.14929e-12 7.53464e-13)
(-3.2561e-13 -6.31352e-12 3.21842e-12)
(3.25986e-14 -7.91456e-12 2.39551e-12)
(8.32044e-13 -6.33737e-12 -4.84427e-13)
(-1.97101e-13 -5.83113e-12 -3.36842e-12)
(-5.71018e-13 -7.59288e-12 -3.53741e-12)
(-7.77077e-13 -5.8886e-12 -3.8727e-12)
(-5.22903e-13 -5.29405e-12 -5.31971e-12)
(5.98315e-13 -7.28383e-12 -4.00721e-12)
(-2.25977e-13 -8.18159e-12 -3.53332e-12)
(3.17289e-13 -8.04437e-12 -3.3908e-12)
(4.87028e-13 -8.90643e-12 -2.35236e-12)
(-4.772e-13 -6.76464e-12 -2.84407e-12)
(1.16736e-12 -3.65591e-12 -1.83498e-12)
(2.17221e-12 -6.71299e-12 -1.30399e-13)
(-6.3469e-13 -9.51341e-12 1.27312e-12)
(-2.76603e-13 -9.98975e-12 1.68491e-12)
(2.07749e-12 -8.22502e-12 5.36977e-12)
(1.22124e-12 -9.96968e-12 5.37541e-12)
(-1.14667e-13 -8.71526e-12 5.54166e-12)
(5.8312e-13 -8.79082e-12 1.70972e-12)
(2.03152e-12 -6.57418e-12 -7.68258e-13)
(4.14829e-12 -7.87008e-12 -1.48024e-12)
(2.64942e-12 -9.1626e-12 -1.24627e-12)
(-8.98157e-13 -9.23967e-12 -1.28085e-12)
(-9.4451e-13 -6.78025e-12 3.25165e-13)
(-2.22879e-12 -5.03487e-12 1.58989e-12)
(-1.25594e-12 -4.44488e-12 2.11016e-12)
(7.6128e-13 -7.4857e-12 1.5369e-12)
(-1.07057e-12 -1.00093e-11 1.58742e-12)
(-1.17812e-12 -8.5105e-12 1.88654e-12)
(-3.58718e-14 -8.88268e-12 3.22856e-12)
(-2.14328e-13 -8.28265e-12 5.0639e-13)
(-1.3887e-13 -5.96367e-12 2.04429e-12)
(-7.05114e-13 -6.4441e-12 1.89289e-12)
(4.51574e-13 -4.93812e-12 2.29047e-12)
(7.9559e-13 -4.5138e-12 3.11449e-12)
(-1.06775e-12 -2.6767e-12 -4.14709e-13)
(-9.46476e-13 -3.59793e-12 -3.79148e-12)
(2.364e-12 -4.55329e-12 -5.30757e-12)
(2.67516e-12 -7.80408e-12 -6.22053e-12)
(1.54145e-12 -9.09581e-12 -6.198e-12)
(1.44051e-13 -6.51391e-12 -4.20578e-12)
(-3.21308e-13 -4.5919e-12 -3.01971e-12)
(5.05201e-13 -5.54178e-12 -2.35233e-12)
(-3.25661e-13 -4.87958e-12 -2.06075e-12)
(4.9196e-13 -6.0137e-12 -1.85552e-12)
(1.77794e-15 -7.70162e-12 -2.06295e-12)
(-4.58965e-13 -6.77607e-12 -1.97434e-12)
(6.24601e-13 -5.62293e-12 -1.76965e-12)
(-6.04692e-13 -7.52686e-12 -6.08476e-12)
(1.20279e-12 -7.60757e-12 -7.72506e-12)
(1.66643e-12 -8.1156e-12 -5.33008e-12)
(2.05952e-12 -7.51681e-12 -5.26133e-12)
(2.58414e-12 -7.02621e-12 -5.59276e-12)
(1.10003e-12 -7.10921e-12 -5.68929e-12)
(1.22839e-12 -9.83981e-12 -5.47023e-12)
(-2.26583e-13 -1.00543e-11 -5.27727e-12)
(-6.3181e-13 -8.52282e-12 -4.69087e-12)
(1.78605e-12 -1.04188e-11 -4.45246e-12)
(1.22058e-12 -1.16494e-11 -4.15822e-12)
(-1.43429e-12 -1.12503e-11 -4.17482e-12)
(-3.4276e-12 -9.86187e-12 -5.48628e-12)
(-3.35907e-12 -9.26473e-12 -7.50909e-12)
(-2.13042e-12 -9.22e-12 -4.94939e-12)
(-1.86247e-12 -6.09366e-12 -3.52586e-12)
(1.55741e-13 -4.18271e-12 -7.42287e-13)
(-6.73949e-14 -3.89785e-12 1.80835e-12)
(-5.53421e-13 -3.6843e-12 5.21676e-12)
(1.21937e-13 -4.63776e-12 3.36235e-12)
(-3.45859e-13 -5.68955e-12 1.33557e-12)
(8.45622e-13 -5.25772e-12 2.27066e-12)
(-1.07202e-12 -6.31617e-12 1.45862e-12)
(-3.63894e-12 -5.85774e-12 -4.04235e-12)
(-1.77372e-12 -5.55153e-12 -9.97717e-12)
(7.06766e-13 -7.65595e-12 -1.15385e-11)
(1.83279e-12 -9.11889e-12 -8.46762e-12)
(2.19375e-12 -8.33798e-12 -6.60808e-12)
(1.09034e-12 -9.81916e-12 -4.73739e-12)
(4.5654e-13 -9.062e-12 1.6667e-12)
(-6.89694e-13 -1.0755e-11 9.13076e-12)
(-2.26112e-12 -8.35067e-12 1.17335e-11)
(1.32997e-12 -5.34231e-12 2.83129e-12)
(3.42476e-12 -5.22637e-12 7.82255e-12)
(-8.51231e-14 -5.42894e-12 6.39688e-12)
(1.51715e-12 -5.22177e-12 2.8407e-12)
(3.87628e-12 -6.84298e-12 6.06847e-13)
(2.82484e-12 -6.16339e-12 -3.15096e-13)
(3.73336e-12 -6.58009e-12 -4.01017e-13)
(2.41753e-12 -6.90172e-12 -1.26294e-12)
(-1.30732e-12 -7.93595e-12 -2.25151e-12)
(-5.63797e-12 -4.39981e-12 -2.74214e-12)
(-5.77865e-12 -2.89453e-12 -3.27324e-12)
(-4.98173e-12 -4.33922e-12 -3.3085e-12)
(-1.28767e-13 -3.13036e-12 -3.41116e-12)
(2.50985e-12 -4.15549e-12 -2.68133e-12)
(-6.55483e-13 -7.45146e-12 -2.31717e-12)
(2.21455e-12 -6.52058e-12 -2.67368e-12)
(2.12663e-12 -5.81452e-12 1.41485e-12)
(1.0625e-12 -5.28362e-12 5.63284e-12)
(1.12923e-12 -7.18954e-12 3.77581e-12)
(-1.46125e-12 -6.20829e-12 5.95575e-13)
(-1.91656e-13 -3.98559e-12 -1.31659e-12)
(-5.0083e-13 -4.65419e-12 -2.51435e-12)
(-2.28423e-12 -4.14578e-12 -2.72754e-12)
(2.99414e-13 -5.15772e-12 -4.33611e-12)
(1.9557e-12 -6.38486e-12 -4.05329e-12)
(7.60071e-14 -5.93468e-12 -3.70561e-12)
(1.99847e-13 -6.70717e-12 -2.75792e-12)
(-9.9475e-13 -7.09835e-12 -9.16423e-13)
(-3.88195e-12 -5.98923e-12 -1.55086e-12)
(4.97352e-13 -3.39293e-12 -4.1827e-13)
(5.50058e-12 -4.37375e-12 1.41517e-12)
(1.83432e-12 -6.09702e-12 3.58299e-12)
(-8.05528e-13 -6.12063e-12 3.9551e-12)
(1.62115e-12 -6.76657e-12 6.43866e-12)
(2.17326e-12 -6.91255e-12 4.25755e-12)
(3.00255e-13 -4.3853e-12 3.9196e-12)
(4.54174e-13 -4.40605e-12 1.78956e-12)
(2.59816e-12 -4.69227e-12 2.43437e-13)
(4.72074e-12 -8.00151e-12 -3.8903e-14)
(3.40369e-12 -6.16377e-12 -3.93732e-13)
(-9.2357e-13 -6.34972e-12 -2.49679e-13)
(-2.1911e-12 -4.04241e-12 4.73827e-13)
(-2.81257e-12 -2.958e-12 1.08207e-12)
(-1.15424e-12 -4.13444e-12 1.26412e-12)
(1.41656e-12 -3.54865e-12 1.30451e-12)
(-1.65433e-12 -3.46446e-12 1.43235e-12)
(-1.09441e-12 -3.76778e-12 2.77549e-12)
(9.70088e-13 -5.06442e-12 4.56797e-12)
(-1.57554e-12 -7.30937e-12 2.20746e-12)
(-1.77819e-12 -6.75325e-12 1.48044e-12)
(-1.01661e-12 -6.18027e-12 1.21244e-12)
(-3.54783e-13 -4.33348e-12 -4.12214e-13)
(1.09633e-12 -3.2821e-12 1.8375e-13)
(-5.72335e-13 -3.24283e-12 -1.8116e-12)
(-1.47986e-12 -5.41635e-12 -3.54468e-12)
(2.45905e-12 -6.19836e-12 -4.96313e-12)
(4.3621e-12 -6.89094e-12 -6.40246e-12)
(1.19236e-12 -7.78315e-12 -7.40934e-12)
(-1.17124e-12 -5.19035e-12 -5.52588e-12)
(7.63631e-13 -4.44414e-12 -3.94515e-12)
(9.81006e-13 -3.93897e-12 -2.25635e-12)
(-5.11505e-15 -2.95031e-12 -1.61989e-12)
(1.51302e-12 -4.8708e-12 -1.46318e-12)
(-7.94864e-13 -3.60449e-12 -1.42099e-12)
(-1.80355e-12 -3.8515e-12 -9.55871e-13)
(1.34064e-12 -3.36422e-12 3.90431e-13)
(1.14477e-12 -5.72567e-12 -2.09378e-12)
(1.24009e-12 -5.26556e-12 -3.82488e-12)
(2.06871e-12 -5.0983e-12 -3.29624e-12)
(1.46153e-12 -5.65112e-12 -4.15744e-12)
(1.90756e-12 -4.50591e-12 -4.71701e-12)
(1.74405e-12 -4.49971e-12 -4.7036e-12)
(8.43928e-13 -6.6485e-12 -4.09813e-12)
(-1.87305e-12 -6.73842e-12 -4.04395e-12)
(-2.57176e-13 -6.33701e-12 -3.80576e-12)
(4.22263e-12 -9.26271e-12 -3.80201e-12)
(3.05649e-12 -9.73739e-12 -3.50799e-12)
(-2.29588e-12 -9.6938e-12 -3.44847e-12)
(-5.56839e-12 -9.41471e-12 -4.53426e-12)
(-5.06059e-12 -8.51916e-12 -5.8469e-12)
(-3.76538e-12 -5.832e-12 -4.54606e-12)
(-2.33551e-12 -3.33325e-12 -1.8403e-12)
(6.878e-13 -3.55866e-12 1.7746e-12)
(4.27961e-13 -2.07342e-12 4.39141e-12)
(7.1449e-13 -2.94288e-12 8.70833e-12)
(-1.09186e-13 -3.86482e-12 4.29643e-12)
(-1.69788e-12 -3.13137e-12 1.27276e-12)
(-2.334e-14 -3.04836e-12 1.37498e-12)
(-1.03812e-12 -3.24234e-12 1.57046e-12)
(-3.91383e-12 -3.41701e-12 -4.59006e-12)
(-4.56906e-13 -4.17331e-12 -1.15075e-11)
(2.66312e-12 -3.7915e-12 -1.01634e-11)
(2.87043e-12 -4.18553e-12 -8.10397e-12)
(1.3543e-12 -6.0891e-12 -7.69754e-12)
(9.49087e-13 -7.25625e-12 -5.52232e-12)
(1.01737e-12 -5.71686e-12 3.59549e-12)
(-1.69993e-12 -7.5811e-12 1.3854e-11)
(-4.47164e-12 -5.38263e-12 1.59904e-11)
(2.55632e-12 -3.97578e-12 4.08983e-12)
(2.01864e-12 -2.99399e-12 4.33427e-12)
(1.92594e-13 -3.20104e-12 3.93203e-12)
(1.28441e-12 -5.82097e-12 2.64954e-12)
(2.30163e-12 -3.41356e-12 5.52463e-15)
(1.29001e-12 -4.04815e-12 -2.7592e-12)
(2.37907e-12 -3.5538e-12 -2.60786e-12)
(2.48539e-12 -2.0313e-12 -2.19056e-12)
(-2.08001e-12 -2.30901e-12 -2.52461e-12)
(-7.44137e-12 -1.62988e-12 -2.86611e-12)
(-4.0499e-12 -3.80282e-14 -3.1078e-12)
(-2.52106e-12 -7.59855e-13 -3.66219e-12)
(-7.83809e-13 -3.5403e-12 -2.79526e-12)
(3.76763e-12 -1.40486e-12 -2.13307e-12)
(2.25111e-12 -4.06741e-12 -1.41518e-12)
(1.23431e-12 -5.01544e-12 5.85809e-13)
(7.02841e-13 -2.95916e-12 1.83116e-12)
(8.42263e-13 -3.18688e-12 3.69749e-12)
(5.02058e-13 -2.45691e-12 2.49459e-12)
(-2.10326e-12 -2.01578e-12 6.87467e-13)
(-1.02628e-12 -3.58051e-13 -6.46808e-13)
(-1.0263e-12 -1.81347e-12 -2.04798e-12)
(-8.16623e-13 -3.43711e-12 -3.54418e-12)
(1.96284e-12 -4.33187e-12 -4.3537e-12)
(1.20348e-12 -4.19662e-12 -4.46246e-12)
(7.46809e-13 -3.37223e-12 -4.05141e-12)
(1.22408e-12 -3.70719e-12 -3.33886e-12)
(-7.14078e-13 -2.78751e-12 -1.58345e-12)
(-3.60745e-12 -4.50527e-12 -1.09155e-12)
(2.23641e-13 -4.60167e-12 4.33207e-13)
(4.24646e-12 -4.35178e-12 2.48215e-12)
(9.53554e-13 -3.09099e-12 5.97476e-12)
(8.19974e-14 -4.54207e-12 4.53062e-12)
(2.90403e-12 -5.10534e-12 4.73136e-12)
(-7.24654e-13 -3.31292e-12 3.82699e-12)
(-1.86727e-12 -1.89657e-12 3.09933e-12)
(6.191e-13 -3.38202e-12 2.17168e-12)
(4.44555e-12 -2.13237e-12 1.21418e-12)
(5.94508e-12 -4.59974e-12 3.63847e-13)