/*--------------------------------*- C++ -*----------------------------------*\
| =========                 |                                                 |
| \\      /  F ield         | OpenFOAM: The Open Source CFD Toolbox           |
|  \\    /   O peration     | Version:  2406                                  |
|   \\  /    A nd           | Website:  www.openfoam.com                      |
|    \\/     M anipulation  |                                                 |
\*---------------------------------------------------------------------------*/
FoamFile
{
    version     2.0;
    format      ascii;
    arch        "LSB;label=32;scalar=64";
    class       volVectorField;
    location    "0.09";
    object      U;
}
// * * * * * * * * * * * * * * * * * * * * * * * * * * * * * * * * * * * * * //

dimensions      [0 1 -1 0 0 0 0];

internalField   nonuniform List<vector> 
83682
(
(347.059 -4.58782e-11 -3.30087e-11)
(347.059 -4.02182e-11 -3.29667e-11)
(347.059 -3.74963e-11 -3.26312e-11)
(347.059 -3.47681e-11 -3.23859e-11)
(347.059 -3.37018e-11 -3.35648e-11)
(347.059 -2.81771e-11 -3.02882e-11)
(347.059 -3.03673e-11 -2.94769e-11)
(347.059 -3.22585e-11 -2.5934e-11)
(347.059 -3.43879e-11 -2.56748e-11)
(347.059 -3.22353e-11 -2.71193e-11)
(347.059 -2.9606e-11 -2.33845e-11)
(347.059 -2.208e-11 -2.18843e-11)
(347.059 -1.68823e-11 -2.29544e-11)
(347.059 -1.54759e-11 -2.37799e-11)
(347.059 -1.50735e-11 -2.38125e-11)
(347.059 -1.45336e-11 -2.22393e-11)
(347.059 -1.4166e-11 -2.03342e-11)
(347.059 -1.19031e-11 -2.06235e-11)
(347.059 -2.95666e-12 -2.26992e-11)
(347.059 8.86036e-12 -2.26029e-11)
(347.059 1.32195e-11 -2.44405e-11)
(347.059 9.29035e-12 -2.46741e-11)
(347.059 9.13105e-13 -2.40048e-11)
(347.059 -1.26229e-11 -2.59792e-11)
(347.059 -2.40511e-11 -2.56625e-11)
(347.059 -3.94469e-11 -2.8941e-11)
(347.059 -4.12305e-11 -2.78312e-11)
(347.059 -4.29323e-11 -2.75057e-11)
(347.059 -4.33704e-11 -2.81606e-11)
(347.059 -4.09601e-11 -2.77952e-11)
(347.059 -3.47447e-11 -3.00698e-11)
(347.059 -2.58511e-11 -2.98016e-11)
(347.059 -2.55519e-11 -2.99538e-11)
(347.059 -3.06743e-11 -2.83881e-11)
(347.059 -3.10754e-11 -3.02745e-11)
(347.059 -3.22866e-11 -3.04611e-11)
(347.059 -2.87317e-11 -2.95468e-11)
(347.059 -2.47615e-11 -2.71179e-11)
(347.059 -2.17841e-11 -2.79522e-11)
(347.059 -2.03608e-11 -2.58521e-11)
(347.059 -2.14587e-11 -2.52048e-11)
(347.059 -2.2835e-11 -2.5132e-11)
(347.059 -2.28126e-11 -2.59608e-11)
(347.059 -2.50058e-11 -2.6729e-11)
(347.059 2.95795e-11 -2.93394e-11)
(347.059 -1.46139e-09 3.24121e-11)
(347.046 3.51992e-08 -1.57439e-09)
(346.702 -1.12252e-06 4.57699e-08)
(340.274 8.46885e-06 -3.77607e-07)
(321.914 1.65866e-06 -6.90346e-08)
(318.29 -1.2627e-05 5.47992e-07)
(318.262 -6.75514e-06 2.95042e-07)
(318.273 -1.55171e-06 7.51234e-08)
(318.292 2.05432e-06 -7.29054e-08)
(318.306 6.61627e-06 -2.71131e-07)
(318.309 9.12582e-06 -3.85652e-07)
(318.312 1.31083e-05 -5.66449e-07)
(318.312 1.25822e-05 -5.48856e-07)
(318.307 6.4901e-06 -2.9086e-07)
(318.298 -1.51816e-06 6.36607e-08)
(318.303 -8.43517e-06 3.65569e-07)
(318.312 -1.27878e-05 5.50205e-07)
(318.32 -1.65255e-05 7.07491e-07)
(318.329 -1.70327e-05 7.2306e-07)
(318.338 -1.56104e-05 6.55451e-07)
(318.346 -7.94426e-06 3.2151e-07)
(318.354 6.78965e-06 -3.02557e-07)
(318.349 1.51279e-05 -6.48733e-07)
(318.346 1.78081e-05 -7.60526e-07)
(318.343 1.89438e-05 -8.05203e-07)
(318.339 1.39289e-05 -5.7747e-07)
(318.336 4.343e-06 -1.57107e-07)
(318.332 -4.73986e-06 2.33591e-07)
(318.328 -1.34024e-05 6.01966e-07)
(318.326 -1.68287e-05 7.44539e-07)
(318.323 -1.71843e-05 7.61061e-07)
(318.32 -1.23589e-05 5.54167e-07)
(318.318 -2.00796e-06 1.06353e-07)
(318.318 7.10072e-06 -2.89473e-07)
(318.321 1.42437e-05 -6.05602e-07)
(318.32 1.72554e-05 -7.34257e-07)
(318.32 1.65794e-05 -7.01186e-07)
(318.318 1.1398e-05 -4.6759e-07)
(318.315 1.0795e-06 -1.21515e-08)
(318.309 -9.54172e-06 4.5844e-07)
(318.299 -1.57753e-05 7.2986e-07)
(318.293 -1.58046e-05 7.4047e-07)
(318.293 -1.42788e-05 6.77912e-07)
(318.294 -8.89896e-06 4.42952e-07)
(318.298 1.00015e-07 4.95162e-08)
(318.305 9.95639e-06 -3.80003e-07)
(318.314 1.66586e-05 -6.77194e-07)
(318.325 1.64965e-05 -7.0723e-07)
(318.33 1.28985e-05 -5.77935e-07)
(318.331 9.97085e-06 -4.55666e-07)
(318.332 3.3149e-06 -1.66146e-07)
(318.331 -4.42661e-06 1.77569e-07)
(318.329 -1.05569e-05 4.60087e-07)
(318.325 -1.18977e-05 5.20117e-07)
(318.322 -1.00905e-05 4.37165e-07)
(318.324 -8.52313e-06 3.69016e-07)
(318.325 -4.53527e-06 2.01268e-07)
(318.326 1.63821e-06 -3.92453e-08)
(318.327 5.12471e-06 -1.7735e-07)
(318.33 3.43535e-06 -1.12848e-07)
(318.331 7.29021e-07 -7.15085e-09)
(318.331 -1.12692e-06 6.21249e-08)
(318.33 -4.82328e-06 2.0756e-07)
(318.33 -7.15892e-06 3.15392e-07)
(318.328 -6.48644e-06 3.17611e-07)
(318.323 -4.34605e-06 2.46781e-07)
(318.319 -8.39092e-07 9.27862e-08)
(318.317 7.75908e-07 1.52666e-08)
(318.314 2.50869e-06 -6.88201e-08)
(318.312 3.70949e-06 -1.36375e-07)
(318.311 3.4352e-06 -1.18692e-07)
(318.314 1.80204e-06 -5.33493e-08)
(318.318 -9.39898e-07 5.09697e-08)
(318.323 -3.10308e-06 1.43709e-07)
(318.327 -4.88317e-06 2.09168e-07)
(318.329 -4.98588e-06 2.11856e-07)
(318.33 -3.96114e-06 1.73131e-07)
(318.329 -1.94875e-06 8.59812e-08)
(318.325 -8.69968e-07 4.50455e-08)
(318.322 3.52206e-06 -1.63867e-07)
(318.318 4.14568e-06 -1.9337e-07)
(318.316 4.07265e-06 -1.99387e-07)
(318.316 2.06117e-06 -1.13399e-07)
(318.317 1.20763e-06 -7.33712e-08)
(318.318 -6.26327e-08 -1.71389e-08)
(318.32 -2.621e-06 9.66393e-08)
(318.322 -4.32408e-06 1.83596e-07)
(318.322 -3.97079e-06 1.81703e-07)
(318.321 -2.68272e-06 1.35006e-07)
(318.32 -2.55775e-06 1.35261e-07)
(318.318 6.88482e-07 5.69967e-09)
(318.317 1.58502e-06 -3.26407e-08)
(318.316 2.53674e-06 -8.10153e-08)
(318.315 2.65568e-06 -1.02739e-07)
(318.316 1.95537e-06 -7.7891e-08)
(318.316 1.13063e-06 -3.90548e-08)
(318.317 2.2658e-07 -5.48361e-09)
(318.319 -4.29333e-07 1.17772e-08)
(318.322 -3.85001e-07 2.36519e-09)
(318.325 -1.24214e-06 2.67845e-08)
(318.328 -1.77154e-07 -1.64653e-08)
(318.331 6.47072e-07 -6.07379e-08)
(318.333 1.07632e-07 -5.13423e-08)
(318.333 -5.64297e-07 -3.62651e-08)
(318.33 -8.16591e-07 -3.44183e-08)
(318.328 -1.16464e-06 -1.61745e-08)
(318.326 -1.72129e-06 2.24303e-08)
(318.324 -2.19227e-06 5.57407e-08)
(318.323 -3.16538e-06 1.0516e-07)
(318.322 -2.387e-06 7.73052e-08)
(318.324 -2.79821e-07 -2.35625e-08)
(318.324 7.72339e-07 -7.50252e-08)
(318.324 3.8246e-06 -2.09307e-07)
(318.323 4.19261e-06 -2.25425e-07)
(318.321 4.91866e-06 -2.56333e-07)
(318.319 5.57122e-06 -2.6762e-07)
(318.316 5.73509e-06 -2.698e-07)
(318.314 5.08822e-06 -2.31199e-07)
(318.313 1.99221e-06 -1.00126e-07)
(318.314 8.4405e-07 -4.56352e-08)
(318.315 7.74476e-07 -3.03065e-08)
(318.317 -7.95044e-07 3.47243e-08)
(318.318 5.50063e-07 -5.87581e-08)
(318.313 -1.29572e-05 4.98493e-07)
(318.305 -2.31579e-07 -3.85729e-08)
(318.305 -4.67678e-06 2.4751e-07)
(318.317 -3.85248e-06 1.21878e-07)
(318.361 1.83161e-05 -6.10309e-07)
(318.462 1.40564e-06 -1.67268e-07)
(318.639 9.69865e-05 -4.33507e-06)
(318.888 -0.00017561 8.1394e-06)
(319.19 2.00599e-05 -2.28718e-06)
(319.523 0.000136797 -5.13447e-06)
(319.873 -0.000248391 1.13016e-05)
(320.227 0.000395805 -1.704e-05)
(320.58 -0.000817953 3.54117e-05)
(320.921 0.000927975 -4.51008e-05)
(321.245 -0.000949364 4.442e-05)
(321.541 -0.000749931 3.01773e-05)
(321.806 0.00209688 -6.96678e-05)
(322.027 0.00128396 -5.1379e-05)
(322.152 -0.000361843 -1.45011e-06)
(322.178 -0.00027221 -9.03407e-07)
(322.176 -0.000183818 -2.17469e-06)
(322.168 -0.000356767 8.1218e-06)
(322.152 -0.000643033 2.04247e-05)
(322.132 -0.000530974 1.78478e-05)
(322.109 -0.000369714 1.2104e-05)
(322.085 -0.000150397 1.58326e-06)
(322.063 3.46475e-05 -7.10347e-07)
(322.045 0.000129433 -5.62238e-06)
(322.033 0.000131842 -2.26338e-05)
(322.023 0.000148908 2.44824e-05)
(322.007 6.8373e-05 -2.97575e-05)
(321.973 2.64348e-05 -2.63817e-05)
(321.893 -2.32436e-05 5.65911e-05)
(321.713 0.000100281 -8.81989e-05)
(321.369 -0.000191075 -0.000145184)
(320.877 -0.000602073 0.00116421)
(320.394 0.00100007 -0.000670013)
(320.058 0.000136148 -0.00142577)
(319.845 -0.0010884 0.00030577)
(319.688 -0.000992462 0.00120799)
(319.55 -9.60351e-05 0.000741083)
(319.423 0.000592908 -0.000399486)
(319.308 0.000403396 -0.0009869)
(319.207 -0.000168611 -0.000578202)
(319.123 -0.000421057 0.000221242)
(319.055 -0.000221706 0.000573923)
(319.002 8.57562e-05 0.000297002)
(318.962 0.000159797 -0.000135211)
(318.931 -3.15152e-05 -0.000288366)
(318.909 -0.000256478 -6.99436e-05)
(318.892 -0.000329712 0.000184717)
(318.878 -0.000251 0.000246609)
(318.866 -0.000132334 0.000148837)
(318.854 -9.36618e-05 8.22086e-05)
(318.843 -6.48923e-05 -9.81577e-06)
(318.832 -5.28546e-05 -3.09644e-05)
(318.821 -1.3781e-06 5.15446e-06)
(318.809 8.80202e-05 2.55514e-06)
(318.797 0.000139106 -5.71686e-05)
(318.784 0.000113455 -0.000108499)
(318.77 4.05977e-05 -0.000107137)
(318.757 -4.09231e-05 -6.58715e-05)
(318.742 -0.00010212 -1.84061e-05)
(318.728 -0.000115786 -8.12673e-06)
(318.713 -0.000149633 1.38285e-05)
(318.7 -0.000160214 2.55582e-05)
(318.69 -0.000150533 4.41818e-05)
(318.683 -0.000118842 5.96725e-05)
(318.68 -6.75579e-05 6.09426e-05)
(318.678 1.14653e-06 4.39378e-05)
(318.678 4.681e-05 1.76077e-05)
(318.679 5.75371e-05 -4.31526e-06)
(318.681 3.66195e-05 -1.90562e-05)
(318.682 -2.844e-06 -3.08223e-05)
(318.681 -4.2648e-05 -3.80295e-05)
(318.68 -6.43873e-05 -3.94126e-05)
(318.679 -9.32231e-05 -3.71869e-05)
(318.677 -0.000125528 -2.35536e-05)
(318.674 -0.00012779 1.5715e-06)
(318.671 -0.000101909 2.99191e-05)
(318.666 -5.73945e-05 4.89067e-05)
(318.661 -1.78108e-05 5.32817e-05)
(318.656 1.01264e-05 4.61279e-05)
(318.651 1.615e-05 4.42361e-05)
(318.645 4.96164e-05 2.20479e-05)
(318.639 5.69331e-05 3.75499e-06)
(318.633 1.222e-05 4.5259e-06)
(318.628 -1.23769e-05 7.81681e-06)
(318.624 -2.22491e-05 1.1497e-05)
(318.621 -4.34206e-05 2.0662e-05)
(318.619 -6.21073e-05 3.09452e-05)
(318.618 -6.48334e-05 3.7013e-05)
(318.618 -5.8561e-05 3.66665e-05)
(318.618 -3.43453e-05 2.90516e-05)
(318.617 6.68255e-07 1.29409e-05)
(318.617 2.90927e-05 -3.4473e-06)
(318.617 4.53195e-05 -1.61724e-05)
(318.617 4.62754e-05 -2.55964e-05)
(318.618 3.19976e-05 -3.14476e-05)
(318.617 1.39081e-05 -3.38369e-05)
(318.616 -3.86296e-06 -3.51323e-05)
(318.614 -3.04934e-05 -3.64017e-05)
(318.612 -5.30951e-05 -2.73245e-05)
(318.608 -5.93561e-05 -1.55654e-05)
(318.603 -4.46153e-05 -7.4043e-06)
(318.596 -2.80091e-05 7.93473e-06)
(318.591 -1.86539e-05 2.16936e-05)
(318.585 3.8252e-07 1.07338e-05)
(318.58 1.66863e-05 8.72565e-06)
(318.575 -2.32232e-07 2.98045e-05)
(318.571 -7.73537e-06 1.50047e-05)
(318.567 1.34643e-05 -5.16919e-05)
(318.562 2.33492e-05 -7.91656e-05)
(318.558 2.53894e-05 -8.48555e-05)
(318.555 2.53248e-05 -8.37354e-05)
(318.551 2.48155e-05 -7.30182e-05)
(318.549 2.44422e-05 -6.70468e-05)
(318.547 1.83189e-05 -5.14702e-05)
(318.545 -4.41771e-06 -1.95845e-05)
(318.543 -3.99974e-05 2.32325e-05)
(318.541 -7.15258e-05 6.01334e-05)
(318.539 -8.52703e-05 7.92663e-05)
(318.538 -7.89924e-05 7.97404e-05)
(318.537 -5.78074e-05 6.77078e-05)
(318.535 -4.34262e-05 5.91015e-05)
(318.533 -1.82062e-05 4.33132e-05)
(318.531 2.03887e-05 1.56104e-05)
(318.529 4.56696e-05 -6.67549e-06)
(318.526 6.18956e-05 -2.45994e-05)
(318.523 6.42909e-05 -3.56431e-05)
(318.519 4.21618e-05 -3.30837e-05)
(318.514 7.14793e-06 -2.16829e-05)
(318.512 -1.7198e-05 -1.4493e-05)
(318.51 -4.63729e-05 -7.33177e-07)
(318.508 -6.51883e-05 1.4502e-05)
(318.507 -7.2144e-05 2.84945e-05)
(318.505 -6.18398e-05 3.88865e-05)
(318.504 -3.72159e-05 3.86391e-05)
(318.502 -1.52106e-05 3.35693e-05)
(318.501 3.84999e-06 2.45246e-05)
(318.502 1.56195e-05 1.63067e-05)
(318.503 1.83341e-05 7.62792e-06)
(318.505 1.22197e-05 -3.35355e-06)
(318.506 2.9528e-06 -1.36629e-05)
(318.506 -2.97622e-06 -2.1373e-05)
(318.506 -2.41347e-06 -2.58373e-05)
(318.505 3.99159e-06 -2.67123e-05)
(318.502 1.10236e-05 -2.38183e-05)
(318.498 1.33866e-05 -2.13334e-05)
(318.496 1.63858e-05 -1.56604e-05)
(318.494 1.75118e-05 -7.71728e-06)
(318.492 1.38466e-05 -1.45401e-07)
(318.489 5.92857e-06 6.28433e-06)
(318.486 -3.35543e-06 1.16932e-05)
(318.481 -1.07123e-05 1.38309e-05)
(318.477 -1.43156e-05 1.30915e-05)
(318.473 -1.23505e-05 1.04163e-05)
(318.471 -5.89243e-06 3.60021e-06)
(318.469 2.81052e-07 -4.62186e-06)
(318.469 2.76964e-06 -8.72167e-06)
(318.468 3.90764e-06 -1.07833e-05)
(318.467 2.797e-06 -1.03438e-05)
(318.466 -1.10255e-06 -6.9365e-06)
(318.464 -5.97493e-06 -1.22171e-06)
(318.464 -8.40084e-06 8.45526e-06)
(318.464 -9.87952e-06 1.93577e-05)
(318.464 -1.07051e-05 2.97304e-05)
(318.464 -2.72944e-06 4.03631e-05)
(318.464 -3.92988e-06 5.03477e-05)
(318.462 7.74797e-06 5.99e-05)
(318.46 1.18935e-05 6.27693e-05)
(318.458 1.4875e-05 6.3308e-05)
(318.456 1.52303e-05 6.22665e-05)
(318.455 9.644e-06 5.88057e-05)
(318.455 2.74109e-06 5.50781e-05)
(318.455 -9.31391e-07 5.3267e-05)
(318.456 -6.20741e-06 5.07663e-05)
(318.459 -9.60238e-06 4.9297e-05)
(318.461 -8.25155e-06 4.83695e-05)
(318.462 -4.16676e-06 4.76874e-05)
(318.461 8.63954e-07 4.66782e-05)
(318.46 6.55553e-06 4.43211e-05)
(318.459 1.13301e-05 3.9035e-05)
(318.459 1.33709e-05 3.50122e-05)
(318.46 1.39077e-05 3.08537e-05)
(318.461 1.13893e-05 2.56232e-05)
(318.462 7.18648e-06 2.0124e-05)
(318.463 7.80411e-08 1.60866e-05)
(318.464 -8.64597e-06 1.35785e-05)
(318.464 -1.86487e-05 1.29945e-05)
(318.464 -2.38186e-05 1.49926e-05)
(318.465 -2.73153e-05 1.50788e-05)
(318.466 -3.11906e-05 1.83583e-05)
(318.467 -2.98276e-05 2.23479e-05)
(318.467 -2.63258e-05 2.39479e-05)
(318.467 -2.0785e-05 2.41644e-05)
(318.465 -1.36703e-05 2.41353e-05)
(318.463 -2.95184e-06 2.35772e-05)
(318.461 7.68976e-06 2.11995e-05)
(318.458 1.55853e-05 1.66078e-05)
(318.456 1.94562e-05 1.0973e-05)
(318.454 1.88967e-05 5.76512e-06)
(318.453 1.38787e-05 1.69266e-06)
(318.451 4.29897e-06 -1.02753e-06)
(318.449 -8.25527e-06 -2.36375e-06)
(318.448 -2.0687e-05 -2.29377e-06)
(318.447 -2.94448e-05 -1.03698e-06)
(318.446 -3.3083e-05 7.99717e-07)
(318.445 -3.33014e-05 1.78632e-06)
(318.444 -3.06064e-05 4.19474e-06)
(318.443 -2.26367e-05 7.47839e-06)
(318.442 -1.11242e-05 1.07334e-05)
(318.44 3.75519e-06 1.3524e-05)
(318.438 2.00806e-05 1.55055e-05)
(318.436 3.43929e-05 1.64457e-05)
(318.435 4.41123e-05 1.63859e-05)
(318.434 4.75051e-05 1.553e-05)
(318.432 4.629e-05 1.35774e-05)
(318.431 4.23695e-05 9.91387e-06)
(318.43 3.45365e-05 6.32518e-06)
(318.427 2.31308e-05 3.69638e-06)
(318.424 1.37242e-05 2.0109e-06)
(318.42 1.94038e-06 -8.27747e-07)
(318.417 -9.40731e-06 -4.20926e-06)
(318.414 -1.58268e-05 -7.85357e-06)
(318.412 -2.17019e-05 -1.09629e-05)
(318.409 -2.24713e-05 -1.49395e-05)
(318.407 -1.84075e-05 -1.90749e-05)
(318.404 -1.39465e-05 -2.35791e-05)
(318.401 -7.58836e-06 -2.62446e-05)
(318.399 1.4688e-06 -2.72546e-05)
(318.397 6.44167e-06 -2.76094e-05)
(318.396 1.02833e-05 -2.70897e-05)
(318.396 1.43641e-05 -2.57287e-05)
(318.398 1.66515e-05 -2.38504e-05)
(318.401 1.49421e-05 -1.79165e-05)
(318.405 1.12311e-05 -1.32399e-05)
(318.408 8.08947e-06 -9.78023e-06)
(318.41 5.18089e-06 -4.47915e-06)
(318.411 6.01892e-07 3.29062e-06)
(318.411 -4.41786e-06 1.20217e-05)
(318.411 -5.63738e-06 2.0521e-05)
(318.412 -6.57312e-06 2.8499e-05)
(318.413 -7.40821e-06 3.21099e-05)
(318.414 -8.41462e-06 3.81738e-05)
(318.414 -6.89288e-06 4.35952e-05)
(318.413 -2.09406e-06 4.7021e-05)
(318.411 1.94444e-07 4.64143e-05)
(318.408 2.2154e-06 4.25086e-05)
(318.405 7.22471e-06 4.0022e-05)
(318.403 1.0343e-05 3.61152e-05)
(318.402 7.21709e-06 2.67698e-05)
(318.402 3.61016e-06 2.0616e-05)
(318.401 -1.24224e-06 1.39129e-05)
(318.4 -7.80087e-06 6.99423e-06)
(318.398 -1.62026e-05 -6.64343e-07)
(318.398 -2.47528e-05 -9.62566e-06)
(318.397 -2.91409e-05 -1.72724e-05)
(318.397 -3.2031e-05 -2.57364e-05)
(318.397 -3.42439e-05 -3.39926e-05)
(318.398 -3.24379e-05 -4.2798e-05)
(318.398 -2.28691e-05 -5.14491e-05)
(318.398 -8.55139e-06 -5.94036e-05)
(318.396 5.25088e-06 -6.65951e-05)
(318.395 1.50049e-05 -7.22071e-05)
(318.393 1.95366e-05 -7.53149e-05)
(318.391 2.55677e-05 -7.92567e-05)
(318.391 3.26976e-05 -8.299e-05)
(318.391 3.4193e-05 -8.52252e-05)
(318.391 3.5217e-05 -8.72054e-05)
(318.39 3.59566e-05 -8.99697e-05)
(318.389 3.40236e-05 -8.67756e-05)
(318.386 2.86356e-05 -8.38929e-05)
(318.384 2.37374e-05 -8.49312e-05)
(318.383 1.64148e-05 -8.14072e-05)
(318.382 6.21775e-06 -7.44217e-05)
(318.382 -2.23605e-06 -6.74725e-05)
(318.382 -6.32542e-06 -6.31015e-05)
(318.381 -1.08724e-05 -5.82503e-05)
(318.379 -1.79167e-05 -5.07823e-05)
(318.377 -2.07742e-05 -4.25184e-05)
(318.376 -1.83018e-05 -3.57337e-05)
(318.376 -1.71834e-05 -2.99789e-05)
(318.376 -1.66292e-05 -2.54175e-05)
(318.377 -1.53718e-05 -2.23094e-05)
(318.378 -9.31374e-06 -2.06987e-05)
(318.379 -5.01301e-06 -2.00089e-05)
(318.378 -4.56944e-06 -2.03543e-05)
(318.377 -4.67394e-06 -2.06924e-05)
(318.376 -3.56271e-06 -2.12986e-05)
(318.376 -1.51949e-06 -2.19956e-05)
(318.376 -7.40611e-07 -2.19434e-05)
(318.376 -1.59297e-06 -2.16159e-05)
(318.377 -8.72265e-07 -2.10923e-05)
(318.378 2.55665e-07 -1.92473e-05)
(318.377 4.92663e-07 -1.71448e-05)
(318.376 2.81121e-07 -1.48787e-05)
(318.376 1.72625e-06 -1.24107e-05)
(318.376 2.83368e-06 -1.00252e-05)
(318.376 3.56043e-06 -7.49095e-06)
(318.376 3.87458e-06 -5.50854e-06)
(318.375 3.45131e-06 -2.34749e-06)
(318.374 4.79603e-06 9.58059e-07)
(318.372 6.09132e-06 3.86569e-06)
(318.37 5.23082e-06 6.60691e-06)
(318.368 3.04532e-06 9.60362e-06)
(318.366 5.8519e-06 1.24359e-05)
(318.364 6.48372e-06 1.48951e-05)
(318.363 4.26204e-06 1.62172e-05)
(318.362 4.13569e-06 1.74563e-05)
(318.362 4.38358e-06 1.86302e-05)
(318.36 1.71492e-06 1.90311e-05)
(318.358 1.61903e-06 1.89648e-05)
(318.354 2.53425e-06 1.92133e-05)
(318.351 -9.98447e-08 2.01172e-05)
(318.347 -3.96709e-06 2.11462e-05)
(318.344 -1.67885e-06 2.29436e-05)
(318.341 -6.28421e-07 2.52899e-05)
(318.339 -3.53781e-06 2.86142e-05)
(318.337 -2.3094e-06 3.34729e-05)
(318.335 -1.54198e-07 3.91048e-05)
(318.332 2.23807e-07 4.38803e-05)
(318.329 1.59382e-06 4.68784e-05)
(318.326 2.21529e-06 4.9722e-05)
(318.325 7.16017e-07 5.39615e-05)
(318.326 1.02277e-06 5.7093e-05)
(318.329 9.57383e-06 5.89225e-05)
(318.333 8.73305e-06 6.10745e-05)
(318.334 8.04334e-07 6.07775e-05)
(318.334 -6.8372e-07 6.13345e-05)
(318.333 1.01349e-05 6.05662e-05)
(318.332 1.29197e-05 5.85314e-05)
(318.332 -4.92737e-06 5.75142e-05)
(318.332 -1.80827e-06 5.54613e-05)
(318.333 1.70082e-06 5.39292e-05)
(318.334 -2.95026e-06 5.0888e-05)
(318.335 -1.36261e-05 4.86075e-05)
(318.335 -5.50687e-06 4.75265e-05)
(318.334 9.17505e-06 4.23086e-05)
(318.333 1.30688e-06 3.54345e-05)
(318.332 -2.04135e-05 3.21073e-05)
(318.331 -1.34442e-05 2.80922e-05)
(318.331 6.74685e-06 2.19203e-05)
(318.331 1.03466e-05 1.65755e-05)
(318.333 5.7049e-06 9.87625e-06)
(318.335 3.70844e-06 1.33905e-06)
(318.337 6.39136e-06 -5.03032e-06)
(318.339 8.15939e-06 -8.15904e-06)
(318.34 3.75283e-06 -1.23084e-05)
(318.34 -6.03213e-06 -1.74974e-05)
(318.34 -3.74487e-06 -2.44932e-05)
(318.342 2.64398e-06 -2.97823e-05)
(318.345 -5.61342e-06 -3.22374e-05)
(318.347 -1.24982e-05 -3.37683e-05)
(318.347 -1.21675e-05 -3.18977e-05)
(318.347 -1.12007e-05 -3.0942e-05)
(318.347 -8.8043e-06 -2.56815e-05)
(318.347 -9.4431e-06 -2.25683e-05)
(318.347 -1.21948e-05 -1.88439e-05)
(318.348 -1.30285e-05 -1.29085e-05)
(318.349 3.05298e-07 -7.38766e-06)
(318.351 1.55534e-06 -1.24829e-06)
(318.351 -1.66092e-05 4.84057e-06)
(318.352 -1.31615e-05 9.65426e-06)
(318.351 8.05842e-06 1.2781e-05)
(318.351 2.2947e-05 1.48383e-05)
(318.35 7.92006e-07 1.70696e-05)
(318.349 -5.76224e-06 1.67168e-05)
(318.349 5.14979e-06 1.46298e-05)
(318.35 7.53114e-06 1.38198e-05)
(318.35 1.11089e-06 1.10847e-05)
(318.35 6.09299e-06 7.80011e-06)
(318.35 1.58118e-05 2.50061e-06)
(318.351 6.95046e-06 -3.69001e-06)
(318.352 4.22222e-09 -1.00511e-05)
(318.355 5.95985e-07 -1.70162e-05)
(318.359 -3.39855e-06 -2.30945e-05)
(318.362 -7.10722e-06 -2.95648e-05)
(318.363 5.10459e-06 -3.5359e-05)
(318.363 1.28326e-06 -4.26388e-05)
(318.362 -3.28069e-06 -4.68129e-05)
(318.361 -1.64635e-10 -5.15757e-05)
(318.362 1.42956e-05 -5.69789e-05)
(318.362 2.61851e-06 -5.99735e-05)
(318.362 -1.77941e-05 -6.12102e-05)
(318.362 -5.21747e-06 -6.4339e-05)
(318.362 1.16292e-05 -6.63103e-05)
(318.36 2.5417e-05 -6.69174e-05)
(318.358 8.20661e-06 -6.41767e-05)
(318.357 -1.02913e-05 -6.11524e-05)
(318.358 -1.81776e-06 -5.74965e-05)
(318.361 1.0348e-05 -5.4997e-05)
(318.363 6.20893e-06 -5.25947e-05)
(318.365 -6.3429e-06 -4.8378e-05)
(318.367 3.20356e-06 -4.4328e-05)
(318.367 1.45861e-05 -4.15153e-05)
(318.366 -6.71444e-06 -3.80465e-05)
(318.365 -2.35104e-05 -3.35997e-05)
(318.365 1.23605e-06 -3.09041e-05)
(318.366 3.21337e-05 -2.93906e-05)
(318.367 -3.14792e-06 -2.49687e-05)
(318.368 -2.21867e-05 -2.15371e-05)
(318.369 -6.42547e-06 -2.13073e-05)
(318.37 -3.352e-06 -1.95384e-05)
(318.369 -1.24053e-05 -1.81876e-05)
(318.369 -1.25775e-05 -1.71797e-05)
(318.371 -1.24006e-06 -1.65495e-05)
(318.373 7.24829e-06 -1.56579e-05)
(318.374 1.03433e-05 -1.4508e-05)
(318.373 -2.3686e-06 -1.32652e-05)
(318.374 -1.24083e-05 -1.21178e-05)
(318.373 -7.15539e-06 -1.16094e-05)
(318.372 1.28829e-06 -1.14877e-05)
(318.37 4.12325e-06 -1.13595e-05)
(318.369 -5.83593e-06 -1.08362e-05)
(318.369 -7.74869e-06 -1.06534e-05)
(318.37 6.99959e-06 -1.0685e-05)
(318.37 2.01253e-05 -1.03881e-05)
(318.371 -2.22664e-06 -8.55251e-06)
(318.373 -2.14589e-05 -6.37037e-06)
(318.375 1.10401e-05 -6.67153e-06)
(318.375 4.32115e-05 -7.48233e-06)
(318.375 9.8294e-06 -5.57429e-06)
(318.376 -1.79223e-05 -4.7007e-06)
(318.377 -7.36004e-06 -4.69802e-06)
(318.377 -2.18135e-06 -4.01491e-06)
(318.377 -5.14679e-06 -3.9434e-06)
(318.379 1.10953e-05 -4.27417e-06)
(318.381 3.60074e-06 -3.35445e-06)
(318.383 -3.70341e-05 -6.64468e-07)
(318.382 -1.17867e-05 -2.07572e-06)
(318.383 5.38204e-05 -7.27389e-06)
(318.382 1.09349e-05 -3.94301e-06)
(318.382 -4.22925e-05 -3.52616e-06)
(318.381 -9.29783e-06 -1.38858e-06)
(318.381 3.07298e-05 -4.44075e-06)
(318.382 1.51116e-05 -4.52958e-06)
(318.382 1.03994e-05 -4.54722e-06)
(318.38 2.45874e-05 -1.09811e-05)
(318.379 2.04107e-05 -1.1582e-05)
(318.379 -2.58903e-05 -1.27063e-05)
(318.378 -5.66558e-06 -8.84379e-06)
(318.379 -1.17419e-05 9.06196e-06)
(318.381 -2.26829e-05 1.22855e-05)
(318.388 9.49491e-07 2.86868e-05)
(318.394 3.4949e-05 2.35501e-05)
(318.396 -3.94428e-05 2.81667e-05)
(318.393 -6.27925e-05 6.62726e-07)
(318.386 -7.43685e-05 -1.64665e-05)
(318.369 -9.62566e-05 -2.23079e-05)
(318.344 -1.89922e-05 -7.14293e-06)
(318.327 3.82734e-05 1.47517e-05)
(318.372 9.34953e-05 4.18205e-05)
(318.587 0.000129763 6.15171e-05)
(319.065 8.32149e-05 6.40466e-05)
(319.785 -2.72713e-05 6.76514e-05)
(320.655 -0.000107403 6.54824e-05)
(321.597 -4.77206e-05 2.55392e-05)
(322.57 3.25686e-05 -3.20914e-05)
(323.559 -4.4159e-05 -1.21476e-05)
(324.559 -6.47849e-05 1.16898e-05)
(325.567 4.8653e-05 -3.7299e-05)
(326.582 6.54177e-05 -8.54222e-05)
(327.603 -0.000296254 4.01349e-05)
(328.629 -0.000491445 0.000113714)
(329.657 -0.000334921 7.1515e-05)
(330.689 -0.000101746 -1.69136e-05)
(331.723 9.25089e-05 -8.83819e-05)
(332.76 -0.000232968 -0.00019705)
(333.798 -0.00068652 -0.000360933)
(334.838 -0.000671631 -0.000402577)
(335.88 -0.000122694 -6.3102e-05)
(336.923 0.000850156 0.000468969)
(337.967 0.00153637 0.00118915)
(339.012 0.000840676 0.00217272)
(340.058 -0.000686816 0.00290974)
(341.107 -0.0031016 0.0031657)
(342.157 -0.00596254 0.00258362)
(343.209 -0.00914182 0.00130397)
(344.261 -0.0133489 0.00024199)
(345.305 -0.0193258 -0.000910492)
(346.355 -0.0289301 -0.0030045)
(347.431 -0.0431581 -0.00679863)
(348.508 -0.0608768 -0.00975543)
(349.584 -0.0810921 -0.00973056)
(350.663 -0.103518 -0.00762909)
(351.749 -0.128382 -0.00532222)
(352.843 -0.155662 -0.00277774)
(353.944 -0.184624 0.00240593)
(355.05 -0.212787 0.0110603)
(356.162 -0.23598 0.0188708)
(357.279 -0.251506 0.0207746)
(358.4 -0.25768 0.0187662)
(359.523 -0.252697 0.0177)
(360.644 -0.234589 0.0162698)
(361.759 -0.199845 0.007672)
(362.864 -0.146106 -0.00980477)
(363.955 -0.0707669 -0.0295328)
(365.028 0.0245669 -0.0452683)
(366.082 0.136033 -0.0601351)
(367.113 0.254995 -0.0837241)
(368.119 0.366679 -0.116681)
(369.102 0.452586 -0.140497)
(370.065 0.502504 -0.139346)
(371.019 0.512177 -0.125135)
(371.966 0.473573 -0.113862)
(372.87 0.38675 -0.0922912)
(373.886 0.270558 -0.0503071)
(374.916 0.161125 -0.0187546)
(375.673 0.0831186 -0.0147457)
(376.866 0.0598335 -0.0208906)
(377.941 0.0578984 -0.0256214)
(379 0.0532594 -0.0343556)
(380.052 0.0443964 -0.0245103)
(381.106 0.0365953 -0.00265416)
(382.16 0.0301359 0.00197746)
(383.214 0.0253724 -0.0165986)
(384.265 0.0214281 -0.0326528)
(385.316 0.0178126 -0.0185118)
(386.362 0.0124463 0.00510313)
(387.403 0.00996362 0.0110419)
(388.434 0.00675343 0.00371204)
(389.454 0.00880649 -0.0127228)
(390.457 0.000334238 -0.0154208)
(391.474 0.0120983 0.00209242)
(392.634 -0.00988906 0.00853229)
(395.153 0.0229157 0.0030831)
(347.059 -3.78643e-11 -3.78136e-11)
(347.059 -3.30773e-11 -3.40525e-11)
(347.059 -2.79058e-11 -3.62626e-11)
(347.059 -2.87777e-11 -3.54164e-11)
(347.059 -3.1311e-11 -3.63332e-11)
(347.059 -3.14409e-11 -3.44162e-11)
(347.059 -2.80498e-11 -3.37635e-11)
(347.059 -2.56183e-11 -3.02202e-11)
(347.059 -2.44521e-11 -2.89323e-11)
(347.059 -2.36512e-11 -2.94819e-11)
(347.059 -2.68873e-11 -2.91552e-11)
(347.059 -2.49452e-11 -2.90201e-11)
(347.059 -1.84819e-11 -2.80752e-11)
(347.059 -1.47934e-11 -2.75812e-11)
(347.059 -1.17914e-11 -2.61671e-11)
(347.059 -9.91177e-12 -2.52805e-11)
(347.059 -9.57538e-12 -2.34752e-11)
(347.059 -7.16536e-12 -2.47044e-11)
(347.059 -3.75392e-13 -2.61686e-11)
(347.059 8.28839e-12 -2.61943e-11)
(347.059 1.94538e-11 -2.63586e-11)
(347.059 2.15608e-11 -2.68465e-11)
(347.059 1.35863e-11 -2.6092e-11)
(347.059 -1.04358e-11 -2.7541e-11)
(347.059 -2.51476e-11 -2.70976e-11)
(347.059 -4.37482e-11 -2.61436e-11)
(347.059 -5.18591e-11 -2.73517e-11)
(347.059 -4.78689e-11 -2.74801e-11)
(347.059 -4.43395e-11 -2.86204e-11)
(347.059 -3.93346e-11 -3.00695e-11)
(347.059 -3.46892e-11 -2.96981e-11)
(347.059 -2.54292e-11 -2.8283e-11)
(347.059 -2.11741e-11 -2.97408e-11)
(347.059 -2.65627e-11 -3.20234e-11)
(347.059 -3.48516e-11 -3.23249e-11)
(347.059 -3.22605e-11 -3.22e-11)
(347.059 -2.69071e-11 -2.92802e-11)
(347.059 -1.94728e-11 -2.72513e-11)
(347.059 -1.99755e-11 -2.61164e-11)
(347.059 -1.98408e-11 -2.57063e-11)
(347.059 -1.85326e-11 -2.66421e-11)
(347.059 -1.79704e-11 -2.76058e-11)
(347.059 -1.75282e-11 -2.88752e-11)
(347.059 -2.02146e-11 -2.9386e-11)
(347.059 3.55965e-11 -3.24716e-11)
(347.059 -1.44882e-09 3.03104e-11)
(347.046 3.27203e-08 -1.47908e-09)
(346.702 -1.005e-06 4.11235e-08)
(340.274 6.85273e-06 -3.06503e-07)
(321.914 2.93908e-06 -1.16833e-07)
(318.29 -1.02587e-05 4.46871e-07)
(318.262 -5.51172e-06 2.38112e-07)
(318.273 -1.44932e-06 6.61815e-08)
(318.292 1.29458e-06 -4.10342e-08)
(318.306 5.17202e-06 -2.08513e-07)
(318.309 7.49139e-06 -3.13838e-07)
(318.312 1.14674e-05 -4.94168e-07)
(318.312 1.16174e-05 -5.05701e-07)
(318.307 6.45618e-06 -2.87331e-07)
(318.298 -8.98658e-07 3.7977e-08)
(318.303 -7.56649e-06 3.27393e-07)
(318.312 -1.18073e-05 5.07222e-07)
(318.32 -1.55127e-05 6.6299e-07)
(318.329 -1.62441e-05 6.90452e-07)
(318.338 -1.52812e-05 6.43335e-07)
(318.346 -8.05061e-06 3.25799e-07)
(318.354 6.30999e-06 -2.83565e-07)
(318.349 1.44834e-05 -6.22078e-07)
(318.346 1.70944e-05 -7.30187e-07)
(318.343 1.82891e-05 -7.75655e-07)
(318.339 1.364e-05 -5.62166e-07)
(318.336 4.57376e-06 -1.6452e-07)
(318.332 -4.23982e-06 2.13459e-07)
(318.328 -1.25977e-05 5.69099e-07)
(318.326 -1.58922e-05 7.06076e-07)
(318.323 -1.62236e-05 7.20916e-07)
(318.32 -1.16266e-05 5.2362e-07)
(318.318 -1.74973e-06 9.58993e-08)
(318.318 7.0232e-06 -2.85104e-07)
(318.321 1.37139e-05 -5.83111e-07)
(318.32 1.63694e-05 -6.99065e-07)
(318.32 1.56954e-05 -6.65845e-07)
(318.318 1.07391e-05 -4.42568e-07)
(318.315 8.70632e-07 -9.35102e-09)
(318.309 -9.29837e-06 4.38718e-07)
(318.299 -1.5194e-05 6.95057e-07)
(318.293 -1.51222e-05 7.01513e-07)
(318.293 -1.361e-05 6.39076e-07)
(318.294 -8.44927e-06 4.13454e-07)
(318.298 1.59371e-07 3.85772e-08)
(318.305 9.66829e-06 -3.73943e-07)
(318.314 1.61787e-05 -6.61152e-07)
(318.325 1.59002e-05 -6.84978e-07)
(318.33 1.23201e-05 -5.57759e-07)
(318.331 9.50065e-06 -4.40862e-07)
(318.332 3.18602e-06 -1.64496e-07)
(318.331 -4.12006e-06 1.61643e-07)
(318.329 -9.98953e-06 4.32855e-07)
(318.325 -1.14805e-05 5.0307e-07)
(318.322 -9.92302e-06 4.35596e-07)
(318.324 -8.47625e-06 3.74485e-07)
(318.325 -4.81469e-06 2.21526e-07)
(318.326 1.03548e-06 -3.85884e-09)
(318.327 4.46533e-06 -1.4558e-07)
(318.33 2.86744e-06 -8.79648e-08)
(318.331 2.89379e-07 4.8896e-09)
(318.331 -1.46001e-06 6.92652e-08)
(318.33 -4.90535e-06 2.0174e-07)
(318.33 -6.99834e-06 2.97292e-07)
(318.328 -6.24235e-06 2.97037e-07)
(318.323 -4.16924e-06 2.34277e-07)
(318.319 -7.84869e-07 8.56355e-08)
(318.317 7.48521e-07 1.26654e-08)
(318.314 2.32883e-06 -6.46508e-08)
(318.312 3.3441e-06 -1.21437e-07)
(318.311 2.88485e-06 -9.41419e-08)
(318.314 1.23577e-06 -2.80646e-08)
(318.318 -1.3455e-06 7.26575e-08)
(318.323 -3.38088e-06 1.56616e-07)
(318.327 -4.96591e-06 2.13985e-07)
(318.329 -5.01734e-06 2.1352e-07)
(318.33 -3.94795e-06 1.71444e-07)
(318.329 -1.92024e-06 8.52739e-08)
(318.325 -8.99751e-07 4.7813e-08)
(318.322 3.37379e-06 -1.56407e-07)
(318.318 3.95448e-06 -1.84916e-07)
(318.316 3.87139e-06 -1.90272e-07)
(318.316 1.96744e-06 -1.095e-07)
(318.317 1.14874e-06 -7.11683e-08)
(318.318 -9.78681e-08 -1.51306e-08)
(318.32 -2.59029e-06 9.55527e-08)
(318.322 -4.25962e-06 1.81806e-07)
(318.322 -3.9129e-06 1.80491e-07)
(318.321 -2.64512e-06 1.35514e-07)
(318.32 -2.63271e-06 1.47941e-07)
(318.318 5.18308e-07 9.06728e-09)
(318.317 1.35347e-06 -2.62995e-08)
(318.316 2.25052e-06 -7.10384e-08)
(318.315 2.37868e-06 -9.6042e-08)
(318.316 1.72116e-06 -8.67326e-08)
(318.316 1.00009e-06 -5.73703e-08)
(318.317 2.13061e-07 -1.50906e-08)
(318.319 -3.55031e-07 1.42609e-10)
(318.322 -2.22017e-07 -4.10344e-09)
(318.325 -1.01976e-06 1.75792e-08)
(318.328 1.04733e-08 -2.22517e-08)
(318.331 7.47244e-07 -5.78316e-08)