/*--------------------------------*- C++ -*----------------------------------*\
| =========                 |                                                 |
| \\      /  F ield         | OpenFOAM: The Open Source CFD Toolbox           |
|  \\    /   O peration     | Version:  2406                                  |
|   \\  /    A nd           | Website:  www.openfoam.com                      |
|    \\/     M anipulation  |                                                 |
\*---------------------------------------------------------------------------*/
FoamFile
{
    version     2.0;
    format      ascii;
    arch        "LSB;label=32;scalar=64";
    class       volScalarField;
    location    "0.035";
    object      Ma;
}
// * * * * * * * * * * * * * * * * * * * * * * * * * * * * * * * * * * * * * //

dimensions      [0 0 0 0 0 0 0];

internalField   nonuniform List<scalar> 
13946
(
3.55478e-14
4.30833e-14
4.12957e-14
4.21807e-14
4.25547e-14
4.04128e-14
4.17867e-14
3.14054e-14
3.60415e-14
5.91614e-14
7.87472e-14
8.93254e-14
9.12538e-14
7.84679e-14
5.98865e-14
5.31838e-14
4.067e-14
3.86911e-14
4.21217e-14
4.68783e-14
4.98654e-14
5.55626e-14
5.70654e-14
5.35315e-14
5.23076e-14
5.54502e-14
6.20855e-14
5.8963e-14
5.84038e-14
5.38281e-14
4.87454e-14
4.1485e-14
4.24726e-14
3.35861e-14
3.34456e-14
4.48121e-14
4.49127e-14
5.19305e-14
5.8409e-14
6.47926e-14
6.16326e-14
5.38039e-14
5.6435e-14
5.37826e-14
6.18165e-14
7.73605e-14
8.12938e-14
8.83475e-14
7.52384e-14
4.0905e-14
2.79681e-14
2.90237e-14
2.7589e-14
2.96062e-14
2.81189e-14
4.07153e-14
5.3166e-14
5.52396e-14
5.31776e-14
8.44024e-14
1.11134e-13
1.12026e-13
9.75176e-14
9.08754e-14
6.42623e-14
4.40931e-14
3.3018e-14
2.84143e-14
2.59651e-14
2.02354e-14
2.19658e-14
3.27151e-14
2.89186e-14
3.00946e-14
2.851e-14
2.63648e-14
1.57293e-14
9.68828e-15
7.20792e-15
1.19491e-14
1.64472e-14
1.57212e-14
2.36256e-14
2.58655e-14
4.3842e-14
4.9645e-14
4.28264e-14
4.26797e-14
3.35847e-14
2.73363e-14
1.91206e-14
5.6683e-15
3.36229e-14
4.11683e-14
3.82623e-14
4.51998e-14
4.40556e-14
4.3701e-14
4.26283e-14
3.75903e-14
4.00431e-14
6.62552e-14
9.48251e-14
1.04358e-13
1.09448e-13
9.81854e-14
8.59172e-14
6.78591e-14
3.63228e-14
3.32172e-14
5.03431e-14
5.59122e-14
5.94998e-14
6.69907e-14
6.46797e-14
5.83904e-14
5.94424e-14
6.00013e-14
7.01106e-14
6.36074e-14
6.49787e-14
5.67418e-14
4.84989e-14
4.16487e-14
3.79451e-14
2.38857e-14
2.16316e-14
3.51338e-14
4.07334e-14
4.81456e-14
6.20788e-14
6.74145e-14
6.40135e-14
5.94297e-14
6.03923e-14
4.87433e-14
5.10758e-14
6.63811e-14
6.93756e-14
7.08197e-14
5.8011e-14
3.45024e-14
2.59291e-14
1.96091e-14
2.21716e-14
2.0669e-14
2.1803e-14
3.64941e-14
5.55318e-14
6.05382e-14
5.5422e-14
8.22461e-14
1.11475e-13
1.14183e-13
1.03319e-13
7.83808e-14
4.67888e-14
4.30382e-14
3.39797e-14
2.09689e-14
1.43172e-14
1.40662e-14
1.05113e-14
2.1983e-14
2.31519e-14
2.64221e-14
2.30113e-14
2.59163e-14
1.45624e-14
1.09961e-14
5.77777e-15
5.96792e-15
1.43798e-14
1.82704e-14
2.12637e-14
2.45443e-14
3.64712e-14
4.62036e-14
4.36915e-14
4.57405e-14
3.13662e-14
2.9111e-14
1.76182e-14
9.81706e-15
3.0974e-14
3.27207e-14
3.93406e-14
4.04765e-14
3.45755e-14
4.03479e-14
3.27738e-14
3.90217e-14
4.4213e-14
7.19327e-14
9.65106e-14
1.02498e-13
9.984e-14
9.07332e-14
9.38427e-14
7.42247e-14
4.84697e-14
4.3616e-14
4.9144e-14
5.68512e-14
5.88853e-14
6.1325e-14
6.79259e-14
6.46728e-14
6.16255e-14
6.59362e-14
7.59951e-14
7.88037e-14
7.59979e-14
6.11635e-14
5.19927e-14
4.68133e-14
4.20662e-14
2.30729e-14
1.39016e-14
2.41342e-14
4.2902e-14
5.49945e-14
6.78978e-14
7.02914e-14
6.64095e-14
6.12994e-14
5.85186e-14
4.93277e-14
3.99825e-14
4.02038e-14
4.84588e-14
4.7567e-14
4.2788e-14
3.58422e-14
3.10878e-14
2.556e-14
2.37292e-14
2.23997e-14
2.57294e-14
3.62128e-14
4.98392e-14
5.68679e-14
6.2372e-14
8.11578e-14
9.86141e-14
9.31965e-14
8.29418e-14
4.96414e-14
3.42644e-14
3.22985e-14
2.89284e-14
2.62951e-14
1.49487e-14
1.89519e-14
1.76681e-14
1.99161e-14
2.57064e-14
2.8038e-14
2.80121e-14
3.08693e-14
2.41407e-14
1.14757e-14
1.32963e-14
1.52434e-14
2.03479e-14
1.85348e-14
2.23291e-14
2.92434e-14
3.47983e-14
4.80493e-14
4.67164e-14
4.94522e-14
3.65637e-14
2.68808e-14
1.94572e-14
1.32206e-14
3.67025e-14
2.74997e-14
2.94901e-14
2.69632e-14
2.95323e-14
2.56082e-14
2.69399e-14
3.37556e-14
3.98161e-14
4.22346e-14
6.15852e-14
8.4803e-14
9.7077e-14
9.56616e-14
9.15338e-14
9.53897e-14
7.27013e-14
4.98846e-14
4.18618e-14
4.18616e-14
4.75872e-14
4.84222e-14
5.38215e-14
5.71988e-14
5.65535e-14
5.58789e-14
6.59067e-14
7.53921e-14
7.75416e-14
7.35085e-14
6.73703e-14
5.81544e-14
5.15078e-14
4.26216e-14
2.49533e-14
1.60393e-14
2.27555e-14
4.34367e-14
5.63361e-14
6.27688e-14
7.22544e-14
5.99028e-14
5.43249e-14
5.11862e-14
4.33113e-14
4.04289e-14
3.39302e-14
3.85974e-14
3.21554e-14
3.07545e-14
2.97748e-14
3.03356e-14
2.61718e-14
2.68551e-14
2.46179e-14
2.73836e-14
2.79765e-14
3.20912e-14
4.19851e-14
4.73255e-14
5.8883e-14
6.21418e-14
5.53816e-14
4.86036e-14
3.17371e-14
2.72238e-14
2.88726e-14
2.56985e-14
3.27657e-14
2.64396e-14
2.22538e-14
2.786e-14
2.442e-14
2.57121e-14
2.82257e-14
2.83052e-14
3.02667e-14
2.2519e-14
2.10521e-14
1.47813e-14
1.73478e-14
1.37704e-14
1.52547e-14
1.93971e-14
2.57852e-14
3.49673e-14
4.10635e-14
4.04221e-14
4.07619e-14
3.36455e-14
3.0031e-14
2.24665e-14
1.66619e-14
1.29989e-14
4.13035e-14
3.75192e-14
3.11906e-14
2.40277e-14
2.80579e-14
2.53561e-14
2.60947e-14
3.41116e-14
3.74028e-14
4.08804e-14
5.57269e-14
7.78234e-14
8.97563e-14
9.24191e-14
9.08881e-14
8.84363e-14
6.82528e-14
4.80376e-14
3.48771e-14
3.52716e-14
3.82364e-14
3.97162e-14
4.39578e-14
4.41755e-14
4.60996e-14
5.21564e-14
6.36188e-14
7.92841e-14
8.57541e-14
8.0332e-14
6.85843e-14
6.18389e-14
4.85965e-14
4.57044e-14
3.77747e-14
3.65037e-14
3.89402e-14
4.56924e-14
4.88835e-14
5.26615e-14
5.40793e-14
4.63389e-14
4.44365e-14
3.8141e-14
3.31349e-14
3.42248e-14
3.19243e-14
3.53587e-14
3.11501e-14
3.61893e-14
3.28997e-14
2.53587e-14
1.99566e-14
2.4957e-14
2.27063e-14
2.21914e-14
1.94191e-14
2.04394e-14
3.04153e-14
3.23321e-14
3.93803e-14
3.89904e-14
3.89027e-14
3.24781e-14
3.43745e-14
2.78755e-14
2.88803e-14
3.14082e-14
3.51888e-14
3.7916e-14
3.49197e-14
3.14113e-14
3.14352e-14
3.0655e-14
3.15971e-14
2.90203e-14
2.46195e-14
2.04857e-14
2.32743e-14
2.18447e-14
2.36095e-14
1.83994e-14
2.31939e-14
2.23573e-14
2.49807e-14
2.31992e-14
3.28033e-14
3.28804e-14
3.2885e-14
2.90591e-14
3.13241e-14
2.61746e-14
2.47717e-14
2.01689e-14
6.06919e-14
4.7743e-14
4.45796e-14
3.58328e-14
3.87167e-14
3.44018e-14
3.69066e-14
4.14362e-14
4.04194e-14
4.18846e-14
5.94996e-14
8.23784e-14
9.281e-14
9.59271e-14
9.75949e-14
9.47062e-14
7.47135e-14
5.48318e-14
3.98076e-14
4.4267e-14
4.65878e-14
4.96584e-14
5.22689e-14
5.44825e-14
5.10175e-14
5.95469e-14
6.76608e-14
8.54178e-14
9.04376e-14
8.52987e-14
7.86689e-14
6.93814e-14
6.21182e-14
5.77812e-14
5.18474e-14
5.37694e-14
5.76359e-14
5.92853e-14
5.63928e-14
5.52224e-14
5.40553e-14
4.86114e-14
4.71084e-14
4.31974e-14
4.45812e-14
4.22366e-14
4.42424e-14
4.77799e-14
4.76912e-14
5.34959e-14
4.85064e-14
3.77477e-14
3.36748e-14
3.33687e-14
3.38705e-14
3.07685e-14
2.76849e-14
2.89801e-14
3.68194e-14
4.02311e-14
4.16253e-14
4.69645e-14
4.71837e-14
4.86821e-14
4.38561e-14
4.74588e-14
4.63832e-14
4.33067e-14
4.64087e-14
4.87926e-14
4.60304e-14
4.17387e-14
4.42734e-14
4.4688e-14
3.83636e-14
3.17201e-14
3.30681e-14
3.20645e-14
3.73182e-14
3.6588e-14
3.86548e-14
3.5454e-14
3.93718e-14
3.85437e-14
3.63162e-14
3.18126e-14
3.72172e-14
3.67241e-14
3.67689e-14
3.60669e-14
4.00067e-14
3.13797e-14
3.59148e-14
3.33615e-14
6.88376e-14
4.93724e-14
3.52643e-14
2.57113e-14
2.90367e-14
2.7812e-14
3.42001e-14
4.60624e-14
4.49865e-14
3.40205e-14
6.24176e-14
9.11416e-14
8.96833e-14
9.83778e-14
1.02335e-13
9.45932e-14
6.76445e-14
4.17233e-14
3.25754e-14
4.03265e-14
4.21841e-14
4.4671e-14
4.42965e-14
4.79141e-14
4.43945e-14
5.02183e-14
6.41997e-14
8.76402e-14
9.82175e-14
8.5885e-14
7.98679e-14
6.97371e-14
7.14539e-14
5.55054e-14
4.57057e-14
4.33131e-14
5.02783e-14
4.55529e-14
4.49375e-14
4.47813e-14
3.75592e-14
3.16831e-14
2.85454e-14
2.71192e-14
2.9694e-14
2.89382e-14
2.88538e-14
3.42479e-14
3.84556e-14
4.00647e-14
3.63733e-14
3.14865e-14
3.25412e-14
3.15238e-14
2.97397e-14
3.09772e-14
2.69507e-14
2.94889e-14
2.3642e-14
2.26383e-14
2.59877e-14
3.07753e-14
2.82257e-14
3.51746e-14
3.55246e-14
3.94511e-14
4.05796e-14
4.32032e-14
4.44138e-14
4.81292e-14
4.25463e-14
3.50173e-14
3.61924e-14
4.20857e-14
4.03218e-14
3.70127e-14
3.99049e-14
3.37801e-14
3.47376e-14
3.18307e-14
3.00482e-14
3.48824e-14
3.90248e-14
4.91887e-14
3.97351e-14
3.53169e-14
3.35751e-14
3.49014e-14
3.47149e-14
3.49953e-14
3.41098e-14
3.28181e-14
3.43219e-14
3.361e-14
4.07119e-14
2.54644e-14
1.76628e-14
1.12189e-14
1.03296e-14
1.07629e-14
1.42639e-14
2.84962e-14
3.67819e-14
3.05733e-14
4.16284e-14
6.21874e-14
6.09983e-14
6.69998e-14
7.70999e-14
7.76901e-14
5.27533e-14
2.8625e-14
2.81243e-14
2.47688e-14
2.67209e-14
2.88449e-14
2.73413e-14
3.00598e-14
3.9102e-14
5.03068e-14
5.87998e-14
6.85243e-14
7.63498e-14
7.03225e-14
6.23231e-14
5.53504e-14
5.24036e-14
4.05427e-14
2.98006e-14
2.50991e-14
2.38688e-14
2.23533e-14
2.12353e-14
2.39605e-14
1.92025e-14
1.42882e-14
1.13697e-14
1.16276e-14
1.30021e-14
1.2037e-14
9.52924e-15
1.44337e-14
1.87923e-14
1.64497e-14
1.32637e-14
1.61561e-14
1.85879e-14
1.9038e-14
1.6948e-14
1.31528e-14
1.56058e-14
1.72722e-14
1.93375e-14
1.30144e-14
1.43299e-14
1.4144e-14
1.81153e-14
1.77651e-14
1.52733e-14
2.20283e-14
2.43798e-14
2.90508e-14
2.89385e-14
3.14133e-14
3.35497e-14
3.08347e-14
2.82418e-14
3.27234e-14
3.90375e-14
3.942e-14
3.289e-14
2.79471e-14
2.47218e-14
2.54013e-14
2.15289e-14
2.66092e-14
3.23747e-14
3.70015e-14
3.18117e-14
2.89504e-14
2.82672e-14
2.99914e-14
3.55413e-14
3.83229e-14
3.25047e-14
3.44268e-14
2.80515e-14
2.67607e-14
1.98794e-14
1.88823e-14
1.54933e-14
1.44237e-14
1.24658e-14
1.49856e-14
1.23933e-14
1.23727e-14
1.83658e-14
2.23381e-14
1.89723e-14
2.68015e-14
3.45994e-14
3.71102e-14
4.03502e-14
4.50747e-14
4.59643e-14
3.7538e-14
2.36428e-14
1.7699e-14
8.78967e-15
1.16179e-14
1.02985e-14
1.40182e-14
1.51187e-14
2.60353e-14
3.22642e-14
4.00877e-14
4.0052e-14
4.21842e-14
4.18999e-14
3.83833e-14
3.44884e-14
2.61882e-14
1.51428e-14
8.94855e-15
4.49186e-15
6.55097e-15
5.35265e-15
6.08685e-15
6.83351e-15
6.60132e-15
8.22187e-15
6.92002e-15
8.98261e-15
9.02619e-15
1.08022e-14
1.04418e-14
1.1365e-14
9.74134e-15
8.65265e-15
7.79408e-15
5.27359e-15
6.05358e-15
5.07514e-15
8.21358e-15
1.33781e-14
9.85611e-15
1.18078e-14
1.1395e-14
8.16888e-15
9.86758e-15
1.76073e-14
9.21802e-15
1.10604e-14
9.76207e-15
5.55728e-15
1.30262e-14
1.87793e-14
1.77048e-14
1.41717e-14
1.45821e-14
2.26088e-14
2.19933e-14
2.22589e-14
2.6539e-14
2.85856e-14
2.02452e-14
1.87659e-14
1.78149e-14
1.66103e-14
1.35646e-14
1.62934e-14
2.11928e-14
2.44763e-14
2.5516e-14
2.26361e-14
2.16653e-14
2.78204e-14
3.05421e-14
2.83281e-14
2.81859e-14
2.76208e-14
2.42465e-14
1.48348e-14
2.99504e-14
2.93161e-14
2.72104e-14
3.12088e-14
3.24675e-14
3.26057e-14
2.73521e-14
2.94914e-14
2.7769e-14
2.8574e-14
2.79939e-14
3.29489e-14
3.49168e-14
3.42397e-14
3.23432e-14
3.39694e-14
2.81109e-14
2.20278e-14
1.49941e-14
1.4159e-14
1.52238e-14
1.50858e-14
1.66354e-14
1.36164e-14
1.66985e-14
1.84153e-14
1.95265e-14
2.30791e-14
2.70692e-14
2.72684e-14
2.20148e-14
1.68892e-14
1.77809e-14
1.62686e-14
1.79522e-14
2.09805e-14
2.60381e-14
2.84446e-14
2.56122e-14
2.89016e-14
2.76283e-14
2.65142e-14
2.70286e-14
2.30253e-14
2.14394e-14
1.87523e-14
2.15287e-14
2.13512e-14
2.65233e-14
2.8102e-14
2.69427e-14
2.55499e-14
2.19133e-14
2.25962e-14
2.28072e-14
2.18084e-14
2.60947e-14
2.31646e-14
2.65731e-14
2.3772e-14
2.09438e-14
1.95441e-14
2.36531e-14
1.93246e-14
2.03742e-14
2.16695e-14
1.90382e-14
1.80245e-14
1.3991e-14
1.64381e-14
1.67529e-14
1.67487e-14
1.19852e-14
9.74752e-15
1.20879e-14
1.63731e-14
1.88376e-14
2.50698e-14
2.67815e-14
2.06268e-14
1.53958e-14
1.72561e-14
2.01568e-14
2.26555e-14
2.15179e-14
2.37699e-14
2.53939e-14
2.29525e-14
1.98049e-14
2.08777e-14
2.37395e-14
2.74955e-14
3.28612e-14
2.24252e-14
1.5632e-14
1.45908e-14
1.60691e-14
1.82881e-14
2.33445e-14
2.68792e-14
2.89421e-14
3.40103e-14
3.18199e-14
3.08021e-14
2.98719e-14
3.1188e-14
3.23147e-14
3.48667e-14
3.39186e-14
2.47111e-14
2.8001e-14
2.96109e-14
2.98956e-14
2.93668e-14
3.42666e-14
3.002e-14
2.23499e-14
1.59354e-14
1.65163e-14
1.93232e-14
2.40598e-14
2.24671e-14
2.11586e-14
2.22977e-14
1.90327e-14
1.91256e-14
2.31877e-14
2.22042e-14
2.18638e-14
1.92536e-14
1.91046e-14
1.51497e-14
1.51315e-14
2.02499e-14
2.79491e-14
3.10914e-14
3.28153e-14
2.97457e-14
2.90431e-14
3.04782e-14
2.75144e-14
2.79013e-14
2.47662e-14
2.71292e-14
2.78117e-14
2.65473e-14
2.41981e-14
2.60011e-14
2.44528e-14
2.52389e-14
2.60018e-14
2.80894e-14
2.89529e-14
2.9758e-14
2.75619e-14
2.71249e-14
2.76167e-14
2.34246e-14
2.1119e-14
2.04898e-14
2.00173e-14
2.42017e-14
2.60207e-14
2.48085e-14
2.13909e-14
2.08244e-14
1.63935e-14
1.9758e-14
2.15251e-14
1.85122e-14
1.40852e-14
1.25169e-14
1.65746e-14
2.17675e-14
2.44345e-14
2.6633e-14
2.78708e-14
2.61926e-14
2.85974e-14
2.64058e-14
3.04394e-14
2.95371e-14
2.69066e-14
2.87816e-14
2.78123e-14
2.54179e-14
2.66107e-14
2.72811e-14
2.75047e-14
2.76489e-14
2.92429e-14
2.70855e-14
2.64807e-14
2.6632e-14
6.80753e-15
4.22278e-15
8.36767e-15
1.17398e-14
9.87717e-15
6.8609e-15
1.16023e-14
1.08168e-14
9.59925e-15
7.16416e-15
9.37822e-15
1.3948e-14
1.79923e-14
1.25881e-14
6.02014e-15
1.01053e-14
1.58631e-14
1.81045e-14
1.92146e-14
2.21498e-14
2.00605e-14
1.39447e-14
1.07359e-14
7.38776e-15
1.46447e-14
1.90624e-14
1.90724e-14
1.59229e-14
1.41959e-14
1.2642e-14
1.31253e-14
1.37721e-14
1.38938e-14
9.67859e-15
4.0215e-15
7.69173e-15
9.75783e-15
1.08269e-14
9.07576e-15
1.43057e-14
1.54036e-14
1.58286e-14
1.26164e-14
1.04021e-14
1.01212e-14
1.05775e-14
1.55607e-14
1.72172e-14
1.5554e-14
1.93251e-14
1.56731e-14
1.48762e-14
1.3182e-14
8.52319e-15
7.13493e-15
6.63457e-15
1.04311e-14
1.48252e-14
1.84436e-14
2.14407e-14
2.08032e-14
2.15228e-14
1.91625e-14
1.57127e-14
1.49146e-14
1.31845e-14
1.22028e-14
7.84082e-15
8.05709e-15
7.12921e-15
5.31191e-15
4.21055e-15
7.40085e-15
7.61366e-15
1.23876e-14
1.26875e-14
8.42638e-15
6.58928e-15
1.27307e-14
1.42541e-14
1.6661e-14
1.89503e-14
1.99534e-14
1.86258e-14
1.87032e-14
2.31489e-14
2.08838e-14
2.22877e-14
2.46667e-14
2.71052e-14
2.6696e-14
2.87309e-14
2.87635e-14
2.94837e-14
2.87476e-14
2.89113e-14
2.47511e-14
2.03847e-14
1.77006e-14
5.28367e-15
1.02406e-14
7.80757e-15
1.2602e-14
1.35934e-14
1.47802e-14
1.12553e-14
1.07403e-14
1.02203e-14
6.36189e-15
6.58223e-15
2.00631e-14
1.36861e-14
7.94924e-15
3.38001e-15
9.36656e-15
1.52277e-14
2.16409e-14
1.58553e-14
1.64638e-14
2.05791e-14
1.43096e-14
3.41974e-15
7.87061e-15
1.71452e-14
2.59543e-14
2.16161e-14
1.78242e-14
1.45893e-14
1.0475e-14
1.16643e-14
1.30078e-14
1.04987e-14
4.11235e-15
1.61334e-14
2.43173e-14
1.52056e-14
1.24017e-14
1.34334e-14
1.51229e-14
1.78964e-14
8.89137e-15
7.11678e-15
5.22159e-15
1.29564e-14
1.72562e-14
2.05049e-14
1.77949e-14
1.69175e-14
2.22727e-14
1.80587e-14
1.65424e-14
2.04598e-14
1.29577e-14
9.67071e-15
6.22135e-15
1.15351e-14
1.76659e-14
2.12359e-14
2.74687e-14
2.55449e-14
2.53754e-14
2.57138e-14
1.77501e-14
1.21778e-14
1.38653e-14
9.93579e-15
2.9089e-15
7.25658e-15
1.0948e-14
9.067e-15
9.83006e-15
8.00902e-15
6.8129e-15
6.88668e-15
7.5902e-15
1.04445e-14
1.73316e-14
1.65277e-14
1.25898e-14
1.63414e-14
2.17672e-14
2.46177e-14
2.87399e-14
2.92916e-14
3.04967e-14
2.88178e-14
2.74012e-14
2.82209e-14
3.19001e-14
3.17577e-14
3.0306e-14
3.18177e-14
3.44337e-14
3.23597e-14
3.20459e-14
2.68115e-14
2.29946e-14
1.84628e-14
1.50144e-14
1.29366e-14
1.733e-14
1.73132e-14
1.317e-14
1.39435e-14
1.15882e-14
9.99085e-15
1.30303e-14
1.2341e-14
1.53596e-14
9.91047e-15
1.23457e-14
2.05894e-14
2.55098e-14
2.96154e-14
1.73713e-14
1.46608e-14
1.79617e-14
1.64173e-14
1.12024e-14
1.03582e-14
1.1995e-14
1.55833e-14
1.88723e-14
2.00382e-14
2.08375e-14
1.75563e-14
1.35939e-14
1.04322e-14
1.66612e-14
1.98525e-14
2.12736e-14
1.97992e-14
1.48824e-14
1.44307e-14
1.17258e-14
1.20741e-14
1.64297e-14
9.41825e-15
1.31808e-14
2.7097e-14
3.17758e-14
2.5528e-14
2.10079e-14
2.16555e-14
2.25774e-14
2.17629e-14
1.61599e-14
1.44111e-14
2.13852e-14
2.60278e-14
2.08811e-14
2.20814e-14
1.79224e-14
1.98852e-14
2.22511e-14
1.87955e-14
1.63811e-14
1.83336e-14
1.53474e-14
1.16013e-14
1.12786e-14
1.27339e-14
1.75811e-14
2.34401e-14
2.71326e-14
2.84947e-14
2.94191e-14
2.72666e-14
2.0084e-14
1.92247e-14
1.60059e-14
7.89696e-15
7.25054e-15
4.4792e-15
3.26182e-15
6.27255e-15
7.3778e-15
1.19825e-14
9.41994e-15
9.67803e-15
1.193e-14
1.99708e-14
1.74902e-14
1.15501e-14
8.57428e-15
2.05975e-14
2.78466e-14
3.39799e-14
3.45179e-14
3.50507e-14
3.09149e-14
3.13777e-14
2.87921e-14
3.24006e-14
3.1492e-14
3.15786e-14
3.01357e-14
3.22936e-14
3.75293e-14
4.01558e-14
3.54915e-14
2.63253e-14
1.87488e-14
1.57557e-14
2.26582e-14
2.24651e-14
2.71054e-14
2.92352e-14
2.86156e-14
3.07521e-14
3.17385e-14
3.02751e-14
2.39966e-14
2.59766e-14
2.81873e-14
2.52248e-14
2.37953e-14
2.96283e-14
2.58183e-14
2.38205e-14
2.43915e-14
2.52151e-14
2.47881e-14
2.72958e-14
2.52562e-14
2.46405e-14
2.4152e-14
3.37372e-14
3.949e-14
3.94767e-14
3.42508e-14
2.85309e-14
2.7359e-14
2.63649e-14
2.67993e-14
3.47372e-14
3.61942e-14
3.51434e-14
3.2233e-14
2.87718e-14
3.18943e-14
3.24057e-14
3.41292e-14
3.40411e-14
3.32408e-14
3.35795e-14
3.33202e-14
3.25997e-14
2.83946e-14
2.88756e-14
3.09873e-14
2.83891e-14
2.42647e-14
2.67085e-14
3.78129e-14
3.80478e-14
3.33752e-14
3.32972e-14
3.0126e-14
3.62469e-14
3.57225e-14
2.86887e-14
2.69839e-14
2.6968e-14
2.46167e-14
2.33069e-14
2.5269e-14
2.05866e-14
2.46567e-14
3.37381e-14
3.72575e-14
4.09687e-14
4.10623e-14
3.69335e-14
3.49813e-14
2.87279e-14
2.5385e-14
1.81545e-14
1.99818e-14
2.0593e-14
1.44464e-14
9.16995e-15
1.19443e-14
7.78631e-15
4.12613e-15
9.19607e-15
1.35861e-14
1.62979e-14
1.54251e-14
1.99773e-14
1.7476e-14
1.94039e-14
2.88425e-14
3.16455e-14
2.9667e-14
2.80574e-14
2.47445e-14
2.61241e-14
2.58058e-14
2.87754e-14
2.77495e-14
2.70835e-14
2.81249e-14
2.75182e-14
3.60343e-14
4.36522e-14
3.40897e-14
2.42791e-14
1.95874e-14
1.28517e-14
2.15993e-14
1.17089e-14
1.18059e-14
8.50893e-15
1.08122e-14
1.32059e-14
1.75294e-14
2.22165e-14
2.24548e-14
1.82818e-14
2.12718e-14
1.87046e-14
1.30339e-14
1.32124e-14
1.67841e-14
1.60052e-14
1.33842e-14
1.87129e-14
2.29515e-14
1.93885e-14
2.08799e-14
2.03467e-14
2.31884e-14
2.51092e-14
2.22137e-14
1.85209e-14
1.46872e-14
1.29092e-14
1.23477e-14
1.02295e-14
1.47596e-14
2.36237e-14
2.72559e-14
2.3436e-14
1.40878e-14
9.38004e-15
1.07366e-14
1.24896e-14
1.56659e-14
2.10838e-14
2.37469e-14
2.34708e-14
2.07267e-14
2.50309e-14
1.578e-14
1.3243e-14
2.05582e-14
1.93608e-14
2.28179e-14
2.64954e-14
4.02402e-14
4.24751e-14
3.6323e-14
3.20718e-14
3.61825e-14
3.02901e-14
3.78557e-14
3.47066e-14
3.06348e-14
3.1071e-14
2.62994e-14
2.34978e-14
2.00128e-14
2.07312e-14
2.69459e-14
3.62925e-14
4.81154e-14
4.93277e-14
3.80706e-14
2.64795e-14
1.91778e-14
1.04941e-14
1.16634e-14
9.3846e-15
8.13756e-15
1.02175e-14
1.5193e-14
7.105e-15
4.46444e-15
1.28998e-14
7.712e-15
1.24805e-14
1.68349e-14
2.22711e-14
2.05601e-14
1.34535e-14
1.77913e-14
2.52729e-14
3.83549e-14
4.62964e-14
3.83489e-14
3.03007e-14
2.87406e-14
2.95816e-14
2.55842e-14
2.57729e-14
1.92016e-14
2.34916e-14
2.28599e-14
2.64171e-14
3.08138e-14
3.20939e-14
2.55587e-14
1.97177e-14
2.127e-14
1.47099e-14
3.05141e-14
2.3583e-14
1.53345e-14
8.58127e-15
9.6873e-15
1.15507e-14
1.13597e-14
1.55027e-14
1.63429e-14
2.53678e-14
2.40401e-14
1.78381e-14
1.63838e-14
1.13974e-14
9.5263e-15
1.45544e-14
1.48526e-14
2.41065e-14
2.91244e-14
2.83803e-14
2.14935e-14
1.45301e-14
1.01831e-14
1.45806e-14
1.39882e-14
1.67005e-14
2.03029e-14
1.9831e-14
1.70664e-14
1.57791e-14
1.59747e-14
2.18399e-14
1.87233e-14
2.04488e-14
2.36142e-14
1.78221e-14
1.5697e-14
1.17451e-14
8.41034e-15
6.61232e-15
8.78389e-15
6.5119e-15
7.59975e-15
1.22184e-14
1.63269e-14
1.88581e-14
1.40389e-14
9.76656e-15
1.45038e-14
2.30265e-14
3.35619e-14
3.71174e-14
3.72047e-14
3.60892e-14
3.81935e-14
4.58959e-14
4.93656e-14
4.88066e-14
4.85882e-14
4.85751e-14
4.68112e-14
3.63482e-14
2.17844e-14
1.78326e-14
1.84481e-14
2.36803e-14
3.61418e-14
4.61295e-14
4.06683e-14
3.20095e-14
2.83051e-14
2.51596e-14
2.2201e-14
1.30833e-14
1.34377e-14
1.18239e-14
1.63476e-14
1.72529e-14
1.89217e-14
1.03965e-14
8.41349e-15
1.30656e-14
1.51433e-14
1.68988e-14
1.29239e-14
2.02006e-14
1.82402e-14
2.81673e-14
3.44304e-14
3.83953e-14
5.18892e-14
4.43689e-14
3.34405e-14
2.93136e-14
2.73481e-14
2.08618e-14
2.47778e-14
2.83217e-14
2.12351e-14
1.62002e-14
2.44378e-14
3.05402e-14
2.51024e-14
1.35456e-14
1.19324e-14
1.59291e-14
1.99609e-14
3.37953e-14
2.47088e-14
1.62024e-14
1.52503e-14
9.8306e-15
1.53129e-14
1.63784e-14
1.44186e-14
2.0645e-14
2.50055e-14
2.95244e-14
2.03651e-14
1.64442e-14
1.90438e-14
1.45513e-14
1.46381e-14
1.72257e-14
2.2469e-14
2.93354e-14
2.2153e-14
1.89009e-14
1.45642e-14
1.31359e-14
1.58705e-14
1.76229e-14
2.05649e-14
2.31463e-14
2.19774e-14
1.99418e-14
1.91319e-14
2.25351e-14
2.57982e-14
2.20553e-14
1.71643e-14
2.01955e-14
1.44617e-14
1.7716e-14
1.28623e-14
1.54647e-14
1.56104e-14
1.55194e-14
2.00562e-14
2.76452e-14
3.36987e-14
2.46966e-14
1.7407e-14
1.63729e-14
1.4517e-14
1.56707e-14
1.65883e-14
2.56448e-14
3.52772e-14
3.48211e-14
3.94103e-14
4.25262e-14
5.1628e-14
5.37242e-14
5.40061e-14
5.64886e-14
6.15e-14
4.7193e-14
2.80861e-14
1.94433e-14
1.58415e-14
1.70403e-14
2.53303e-14
3.72608e-14
4.69031e-14
4.22955e-14
3.36259e-14
2.66844e-14
2.20357e-14
2.50366e-14
2.09234e-14
1.53794e-14
1.60184e-14
2.05896e-14
2.41215e-14
1.85067e-14
1.0934e-14
1.99903e-14
1.7228e-14
1.76228e-14
1.59884e-14
1.24093e-14
1.94382e-14
2.49729e-14
2.96995e-14
3.2873e-14
3.43002e-14
4.19576e-14
3.771e-14
3.53314e-14
3.15269e-14
3.41784e-14
3.10972e-14
3.17881e-14
3.00403e-14
2.28267e-14
1.89389e-14
1.94502e-14
1.9493e-14
1.51332e-14
1.09942e-14
1.00515e-14
8.60576e-15
8.15011e-15
1.6766e-14
1.91586e-14
1.80944e-14
1.49959e-14
1.47992e-14
1.30919e-14
1.48621e-14
1.59371e-14
1.45504e-14
2.3445e-14
2.6485e-14
2.4108e-14
2.22204e-14
2.01594e-14
2.13464e-14
1.6969e-14
9.91664e-15
9.56664e-15
1.49684e-14
1.94147e-14
1.52022e-14
1.29756e-14
1.13349e-14
1.06171e-14
1.2751e-14
1.54786e-14
2.21424e-14
2.13037e-14
1.37816e-14
1.28766e-14
1.67339e-14
2.1917e-14
2.20238e-14
1.80171e-14
1.40883e-14
1.06768e-14
1.12929e-14
1.49588e-14
7.06097e-15
5.79101e-15
1.10614e-14
1.40493e-14
1.92095e-14
2.7337e-14
3.16311e-14
2.1504e-14
1.24596e-14
1.55588e-14
2.20274e-14
1.96332e-14
1.96879e-14
2.29262e-14
3.09263e-14
3.37377e-14
3.96045e-14
4.63757e-14
5.61876e-14
5.57191e-14
5.84273e-14
6.0283e-14
6.21668e-14
4.89967e-14
2.78184e-14
1.45078e-14
1.67098e-14
1.93279e-14
2.98025e-14
3.9871e-14
4.56485e-14
4.52014e-14
3.71515e-14
3.17208e-14
2.42093e-14
2.25965e-14
1.83564e-14
1.5043e-14
1.53676e-14
1.76496e-14
1.99696e-14
1.536e-14
9.30083e-15
1.97765e-14
1.99219e-14
1.63741e-14
1.51109e-14
1.18864e-14
1.60093e-14
1.92818e-14
2.43891e-14
2.85074e-14
2.6843e-14
2.98426e-14
3.23007e-14
2.99742e-14
2.64029e-14
2.84787e-14
2.96818e-14
3.32279e-14
3.0934e-14
2.36702e-14
2.08603e-14
1.60832e-14
1.38935e-14
1.41974e-14
9.13324e-15
7.09738e-15
9.59951e-15
7.2136e-15
1.1522e-14
1.89866e-14
2.07441e-14
1.40723e-14
1.40479e-14
1.85231e-14
1.82649e-14
2.52408e-14
1.54041e-14
1.75734e-14
2.84425e-14
2.96794e-14
1.67496e-14
1.84354e-14
2.84822e-14
1.58313e-14
8.10214e-15
7.56903e-15
2.04637e-14
1.3882e-14
1.46081e-14
1.28703e-14
1.39703e-14
1.43266e-14
1.59024e-14
1.53315e-14
2.15378e-14
3.37275e-14
2.25657e-14
1.15364e-14
2.03045e-14
2.12635e-14
2.97251e-14
2.23648e-14
1.30821e-14
1.13339e-14
1.62352e-14
1.64577e-14
1.08179e-14
1.1226e-14
1.36618e-14
2.03279e-14
2.33909e-14
3.00309e-14
3.32296e-14
2.1404e-14
1.66681e-14
2.55153e-14
2.24446e-14
1.81681e-14
2.30506e-14
2.01878e-14
2.89228e-14
3.29823e-14
4.01218e-14
4.82566e-14
5.31927e-14
5.64453e-14
5.69766e-14
5.9815e-14
6.48211e-14
4.69194e-14
3.067e-14
2.06933e-14
2.30652e-14
2.46745e-14
3.28273e-14
4.15432e-14
4.61809e-14
5.05163e-14
4.59079e-14
3.4573e-14
2.16821e-14
2.08166e-14
1.92565e-14
1.84348e-14
1.68877e-14
2.23768e-14
2.60054e-14
6.70693e-15
1.74558e-14
1.65874e-14
2.40366e-14
2.15479e-14
1.61498e-14
1.00561e-14
1.47507e-14
2.2091e-14
2.64227e-14
1.5579e-14
1.98443e-14
2.86254e-14
3.63449e-14
2.77071e-14
1.7416e-14
2.59931e-14
2.91643e-14
3.64733e-14
3.37802e-14
2.40601e-14
2.17021e-14
1.43847e-14
1.03769e-14
7.60154e-15
9.07245e-15
1.25164e-14
8.69602e-15
1.02641e-14
2.84661e-14
2.89329e-14
1.56168e-14
1.29779e-14
1.42896e-14
1.7042e-14
1.6842e-14
1.29725e-14
8.81957e-15
9.20261e-15
1.98459e-14
1.4731e-14
1.43571e-14
1.53929e-14
1.62763e-14
2.5211e-14
1.24513e-14
1.56683e-14
2.00256e-14
1.1883e-14
1.23864e-14
1.43256e-14
1.85169e-14
2.49375e-14
2.10534e-14
1.60203e-14
1.48336e-14
2.17742e-14
1.80082e-14
1.65583e-14
2.49136e-14
1.98539e-14
2.4292e-14
3.19529e-14
1.36654e-14
1.26223e-14
1.4011e-14
1.55382e-14
1.50179e-14
1.68e-14
1.8207e-14
1.66055e-14
1.6955e-14
1.4783e-14
1.33613e-14
1.66771e-14
2.06496e-14
3.1888e-14
3.74111e-14
2.8298e-14
3.79287e-14
4.10696e-14
4.43244e-14
3.98827e-14
4.5277e-14
5.32873e-14
5.08154e-14
5.4922e-14
5.97566e-14
5.47169e-14
5.48353e-14
4.2154e-14
4.06701e-14
4.07441e-14
3.89762e-14
3.56982e-14
4.3684e-14
5.4998e-14
6.00363e-14
6.63104e-14
6.56935e-14
5.28988e-14
4.73282e-14
3.14667e-14
2.5919e-14
2.17194e-14
1.88557e-14
1.92421e-14
1.47286e-14
1.1643e-14
1.47545e-14
1.0188e-14
2.17824e-14
1.37518e-14
1.43671e-14
2.4594e-14
1.82471e-14
1.95901e-14
1.75083e-14
1.28162e-14
2.05117e-14
2.02602e-14
2.35969e-14
1.64485e-14
1.47123e-14
1.34487e-14
2.40977e-14
2.9107e-14
3.3142e-14
2.92422e-14
1.92958e-14
1.99552e-14
1.64778e-14
1.16312e-14
1.62426e-14
1.89807e-14
1.79964e-14
1.80375e-14
4.28426e-14
3.04254e-14
2.23719e-14
1.9962e-14
2.34845e-14
2.78085e-14
2.85813e-14
2.23994e-14
2.10927e-14
1.68897e-14
2.65287e-14
2.80027e-14
1.97429e-14
2.13679e-14
2.20812e-14
3.18444e-14
3.79024e-14
2.87019e-14
2.05297e-14
1.14873e-14
1.73295e-14
1.42116e-14
1.44018e-14
1.45116e-14
1.35105e-14
1.28952e-14
2.55559e-14
2.96185e-14
2.2091e-14
1.46864e-14
2.20117e-14
1.90292e-14
3.15156e-14
3.13797e-14
2.16198e-14
1.7286e-14
2.54102e-14
2.28344e-14
2.4188e-14
1.85401e-14
2.02136e-14
2.18612e-14
2.20517e-14
2.43083e-14
2.89298e-14
2.80173e-14
2.82808e-14
2.87284e-14
2.73548e-14
2.86846e-14
2.90415e-14
3.17578e-14
3.70578e-14
3.83764e-14
4.27578e-14
4.87019e-14
5.05841e-14
5.14254e-14
5.04745e-14
4.84159e-14
5.06005e-14
4.13349e-14
4.21804e-14
4.28238e-14
3.79621e-14
3.90398e-14
4.76186e-14
5.54522e-14
6.50049e-14
7.09874e-14
6.94259e-14
5.65493e-14
4.14997e-14
2.97082e-14
2.24291e-14
1.52802e-14
9.08937e-15
9.32776e-15
1.34501e-14
1.1068e-14
1.03185e-14
1.17152e-14
1.07893e-14
9.57938e-15
7.60266e-15
1.79028e-14
1.51782e-14
1.11677e-14
8.80704e-15
1.07175e-14
1.18678e-14
2.00108e-14
3.18861e-14
2.56954e-14
2.07695e-14
1.89645e-14
2.77669e-14
3.50083e-14
3.94396e-14
3.77043e-14
2.65033e-14
2.77373e-14
2.59946e-14
2.0846e-14
1.55609e-14
9.83223e-15
9.69087e-15
1.0123e-14
2.71854e-14
1.74501e-14
1.80684e-14
2.55883e-14
2.67385e-14
2.38342e-14
2.36185e-14
2.02329e-14
1.33608e-14
1.08464e-14
1.29851e-14
1.90384e-14
2.09962e-14
2.05251e-14
1.82755e-14
2.25963e-14
3.23103e-14
4.20939e-14
2.91404e-14
1.92861e-14
1.7447e-14
1.55064e-14
2.24672e-14
1.76084e-14
2.59077e-14
2.60073e-14
2.71954e-14
2.21315e-14
1.27558e-14
2.02591e-14
2.21054e-14
2.41811e-14
2.86124e-14
1.94305e-14
8.68887e-15
5.13918e-15
1.3726e-14
1.59102e-14
1.87868e-14
1.53634e-14
1.73321e-14
1.36679e-14
1.80464e-14
2.02612e-14
1.92625e-14
2.10445e-14
2.27644e-14
2.70973e-14
2.26916e-14
2.39433e-14
2.62843e-14
2.83647e-14
2.90134e-14
2.73621e-14
3.19211e-14
3.79857e-14
3.19719e-14
3.517e-14
3.07919e-14
3.11017e-14
3.30931e-14
3.08508e-14
3.49418e-14
3.32186e-14
3.16103e-14
3.73562e-14
3.93909e-14
4.71949e-14
5.41797e-14
5.39175e-14
5.46095e-14
4.54648e-14
3.22139e-14
2.71513e-14
1.81809e-14
1.8736e-14
1.66783e-14
1.87332e-14
2.20829e-14
2.40253e-14
2.80401e-14
2.54337e-14
1.94087e-14
1.64454e-14
1.40792e-14
1.68892e-14
2.58237e-14
2.91086e-14
2.20708e-14
1.63187e-14
1.83013e-14
1.70943e-14
2.08174e-14
2.06429e-14
1.77252e-14
2.43969e-14
3.12005e-14
3.43527e-14
3.03583e-14
2.38116e-14
2.40885e-14
2.50618e-14
2.15174e-14
2.74551e-14
2.79692e-14
2.45606e-14
2.1749e-14
2.28813e-14
2.12579e-14
2.18653e-14
2.31147e-14
1.97844e-14
1.65923e-14
1.81354e-14
2.20344e-14
1.45183e-14
1.69612e-14
1.07611e-14
1.42072e-14
1.55245e-14
1.39555e-14
1.91217e-14
2.39293e-14
2.21467e-14
2.42904e-14
2.88959e-14
2.06657e-14
1.20742e-14
1.14864e-14
1.2551e-14
1.18529e-14
7.05003e-15
1.11391e-14
1.72197e-14
1.24092e-14
1.26239e-14
1.42795e-14
1.3261e-14
1.00286e-14
6.00925e-15
1.14344e-14
1.94848e-14
2.28535e-14
2.16322e-14
2.07845e-14
1.95601e-14
2.11526e-14
1.56379e-14
1.94239e-14
2.12494e-14
2.00999e-14
1.78955e-14
1.88064e-14
2.20324e-14
2.7367e-14
3.33774e-14
2.66247e-14
3.05017e-14
2.99004e-14
2.72375e-14
2.98437e-14
3.21925e-14
3.07137e-14
3.31555e-14
2.75953e-14
3.62316e-14
3.30122e-14
3.06418e-14
3.40101e-14
2.99714e-14
2.33961e-14
2.4237e-14
2.02924e-14
2.73853e-14
2.71027e-14
3.20378e-14
3.48524e-14
3.50821e-14
3.52537e-14
3.74936e-14
3.0618e-14
2.26288e-14
1.85176e-14
1.56658e-14
8.70079e-15
7.54215e-15
1.00766e-14
9.97587e-15
9.48582e-15
8.94134e-15
1.18687e-14
1.31121e-14
1.83427e-14
1.80173e-14
1.57269e-14
1.16515e-14
6.78501e-15
6.59757e-15
6.4191e-15
1.25709e-14
2.06476e-14
2.41852e-14
1.75536e-14
2.2276e-14
2.06012e-14
2.09226e-14
2.71831e-14
2.75376e-14
2.20989e-14
1.91382e-14
1.78319e-14
1.10613e-14
4.02111e-15
8.41731e-15
1.2357e-14
1.5061e-14
3.88265e-14
3.60787e-14
3.63922e-14
4.06633e-14
3.60303e-14
2.99728e-14
3.02409e-14
2.86489e-14
2.26465e-14
1.66563e-14
2.38007e-14
2.80942e-14
3.23471e-14
3.41126e-14
3.352e-14
3.44372e-14
3.55396e-14
3.33073e-14
3.08434e-14
2.70101e-14
2.58639e-14
2.83346e-14
2.82983e-14
2.73914e-14
2.77125e-14
3.1117e-14
3.3839e-14
3.0985e-14
2.46092e-14
2.73004e-14
2.97352e-14
2.86752e-14
3.02991e-14