/*--------------------------------*- C++ -*----------------------------------*\
| =========                 |                                                 |
| \\      /  F ield         | OpenFOAM: The Open Source CFD Toolbox           |
|  \\    /   O peration     | Version:  2406                                  |
|   \\  /    A nd           | Website:  www.openfoam.com                      |
|    \\/     M anipulation  |                                                 |
\*---------------------------------------------------------------------------*/
FoamFile
{
    version     2.0;
    format      ascii;
    arch        "LSB;label=32;scalar=64";
    class       volVectorField;
    location    "0.07";
    object      U;
}
// * * * * * * * * * * * * * * * * * * * * * * * * * * * * * * * * * * * * * //

dimensions      [0 1 -1 0 0 0 0];

internalField   nonuniform List<vector> 
13818
(
(-8.96571e-13 -5.04356e-13 -2.02379e-11)
(-1.70796e-12 5.28614e-13 -1.79157e-11)
(-1.0072e-12 -1.32021e-13 -1.07347e-11)
(-3.64582e-12 -1.13212e-12 -1.11238e-11)
(-4.31547e-12 1.25021e-14 -1.62489e-12)
(-9.52285e-12 9.49361e-13 6.86755e-12)
(-1.17664e-11 5.21652e-12 7.86874e-12)
(-1.41067e-11 3.79921e-12 5.5153e-12)
(-1.68657e-11 7.19717e-12 1.63647e-12)
(-1.79277e-11 6.41107e-12 -9.85848e-13)
(-1.87724e-11 7.58359e-12 2.49495e-13)
(-2.0506e-11 6.89593e-12 3.1297e-12)
(-2.15117e-11 9.63487e-12 9.32306e-12)
(-2.10942e-11 9.27423e-12 1.53437e-11)
(-2.22356e-11 1.16815e-11 1.44179e-11)
(-2.10933e-11 9.13029e-12 1.52301e-11)
(-2.05418e-11 1.13159e-11 1.66798e-11)
(-2.53544e-11 9.78236e-12 2.35575e-11)
(-2.74051e-11 1.05784e-11 2.96007e-11)
(-2.69155e-11 8.20344e-12 2.73629e-11)
(-2.49731e-11 7.06298e-12 2.36689e-11)
(-2.34782e-11 9.30397e-12 2.43088e-11)
(-2.47927e-11 1.39648e-11 2.22708e-11)
(-2.42466e-11 1.16134e-11 1.16701e-11)
(-1.78107e-11 1.02759e-11 2.39251e-12)
(-1.42285e-11 8.21203e-12 -4.3589e-12)
(-1.36557e-11 1.1422e-11 -9.11666e-12)
(-1.4168e-11 9.58245e-12 -1.11244e-11)
(-1.21631e-11 1.20551e-11 -1.31627e-11)
(-1.0859e-11 1.48357e-11 -1.18342e-11)
(-1.11303e-11 1.39598e-11 -1.45814e-11)
(-8.61612e-12 1.29973e-11 -1.05643e-11)
(-7.2571e-12 1.1479e-11 -6.04861e-12)
(-3.10655e-12 1.21256e-11 -8.90565e-12)
(8.14408e-13 1.0949e-11 -1.25032e-11)
(-1.95874e-12 1.21056e-11 -1.7474e-11)
(-1.90568e-12 1.18621e-11 -2.18104e-11)
(-2.97732e-12 1.20868e-11 -2.00432e-11)
(-7.93223e-13 1.01949e-11 -1.87456e-11)
(-2.29858e-12 9.31132e-12 -1.12213e-11)
(-1.21696e-12 9.98173e-12 -7.03664e-12)
(3.54789e-12 8.95825e-12 -6.60663e-12)
(4.83565e-12 1.30137e-11 9.40769e-13)
(4.33525e-12 1.09392e-11 8.52611e-12)
(3.9221e-12 1.067e-11 7.01182e-12)
(2.99228e-12 6.09923e-12 6.72224e-12)
(5.17495e-12 8.49898e-12 7.20372e-12)
(7.9473e-12 8.26925e-12 3.73013e-12)
(4.46023e-12 7.50335e-12 2.29599e-12)
(2.89519e-12 6.49394e-12 -7.47085e-12)
(6.70979e-12 4.71401e-12 -1.54362e-11)
(6.00685e-12 5.25782e-12 -1.5387e-11)
(2.52009e-12 6.55464e-12 -1.52613e-11)
(2.64938e-12 7.20904e-12 -1.64552e-11)
(8.79624e-13 3.93059e-12 -1.45817e-11)
(-4.759e-13 3.25895e-12 -1.33892e-11)
(5.98257e-12 5.04618e-12 -7.81966e-12)
(8.34322e-12 6.71049e-12 -3.42366e-12)
(4.27061e-12 6.49151e-12 -3.10773e-12)
(2.39131e-12 4.27846e-12 -1.97851e-12)
(1.69992e-12 4.74494e-12 -4.0947e-12)
(1.79802e-12 3.62242e-12 -7.01634e-12)
(2.12817e-12 6.90999e-12 -8.69549e-12)
(3.10096e-13 7.24017e-12 -1.16939e-11)
(1.03898e-12 5.12798e-12 -1.81806e-11)
(1.58061e-12 4.79519e-12 -1.59114e-11)
(-1.44879e-12 4.18285e-12 -1.43605e-11)
(2.61434e-12 4.28297e-12 -1.30885e-11)
(4.20999e-12 5.72597e-12 -5.3125e-12)
(-1.63816e-13 5.005e-12 -3.31186e-12)
(4.55363e-13 6.72719e-12 -3.48872e-12)
(7.67347e-13 6.87702e-12 -1.35886e-12)
(-2.5791e-13 8.62777e-12 -2.53721e-12)
(1.94173e-13 9.86116e-12 -4.33814e-12)
(2.6658e-13 1.03061e-11 -3.45327e-12)
(-4.48707e-13 9.59455e-12 -2.65459e-12)
(-1.64647e-12 6.48945e-12 -1.10515e-12)
(-2.00187e-12 4.85647e-12 1.77775e-12)
(-4.65119e-12 6.75249e-12 -1.90806e-13)
(-2.96838e-12 7.42727e-12 -1.18621e-12)
(3.32444e-13 6.93122e-12 2.6044e-13)
(-1.14777e-12 6.26186e-12 1.80045e-12)
(-2.14477e-12 5.19359e-12 8.33389e-13)
(-4.26132e-12 4.35781e-12 -5.61608e-13)
(-3.91604e-12 4.35357e-12 -1.6315e-12)
(-3.32501e-12 3.36506e-12 -3.12348e-12)
(-3.92022e-12 6.14432e-12 -3.76768e-12)
(-2.82096e-12 7.78669e-12 -7.9753e-12)
(-2.87696e-12 1.14292e-11 -9.50619e-12)
(-2.64913e-12 1.18996e-11 -9.61591e-12)
(-3.53303e-12 1.1053e-11 -1.35687e-11)
(-6.91908e-12 1.07699e-11 -1.42486e-11)
(-6.24073e-12 1.01183e-11 -1.16213e-11)
(-4.57179e-12 1.01403e-11 -6.76267e-12)
(-3.46432e-12 7.82133e-12 -2.75187e-12)
(-1.59042e-12 8.3208e-12 -3.10276e-12)
(-1.78175e-12 9.93315e-12 -7.01957e-12)
(-1.41001e-12 9.15322e-12 -3.88696e-12)
(-4.29062e-12 1.00687e-11 1.005e-12)
(-3.04252e-12 7.04222e-12 6.16698e-12)
(3.11219e-13 9.40385e-12 3.36537e-12)
(1.09593e-12 7.92498e-12 9.55747e-13)
(2.2329e-12 9.81744e-12 6.69869e-12)
(5.30917e-12 8.51709e-12 1.08834e-11)
(5.2528e-12 7.86984e-12 1.14609e-11)
(2.32307e-12 9.143e-12 7.36907e-12)
(-1.42019e-12 1.08001e-12 -1.75628e-11)
(-2.99136e-12 -3.91855e-13 -1.58514e-11)
(5.99811e-13 -7.53478e-13 -8.48849e-12)
(-4.6776e-12 -9.78244e-13 -4.67066e-12)
(-6.57255e-12 3.04323e-12 1.37841e-12)
(-1.06707e-11 5.54157e-12 6.22949e-12)
(-1.26711e-11 6.59075e-12 5.1127e-12)
(-1.49237e-11 9.45757e-12 3.74688e-12)
(-1.73373e-11 1.02798e-11 -2.21829e-12)
(-1.82693e-11 1.2187e-11 -1.28232e-12)
(-1.90128e-11 1.45926e-11 7.05603e-13)
(-1.89381e-11 1.33244e-11 2.85065e-12)
(-2.13266e-11 1.15657e-11 6.64366e-12)
(-2.40037e-11 1.33744e-11 1.04904e-11)
(-2.18549e-11 1.48321e-11 1.27081e-11)
(-2.01621e-11 1.25865e-11 1.49708e-11)
(-2.215e-11 1.57106e-11 1.72875e-11)
(-2.5131e-11 1.54557e-11 2.25706e-11)
(-2.51274e-11 1.58276e-11 2.66215e-11)
(-2.41957e-11 1.27708e-11 2.45886e-11)
(-2.57876e-11 1.12421e-11 2.33971e-11)
(-2.6499e-11 1.26659e-11 2.36215e-11)
(-2.3824e-11 1.57155e-11 1.86613e-11)
(-2.05954e-11 1.03998e-11 1.16247e-11)
(-1.59909e-11 9.73821e-12 4.84162e-12)
(-1.72132e-11 9.40654e-12 -4.12429e-12)
(-1.49386e-11 1.0959e-11 -8.5387e-12)
(-1.43233e-11 1.07154e-11 -8.23609e-12)
(-1.52382e-11 1.22656e-11 -1.17229e-11)
(-1.13083e-11 1.51194e-11 -1.31015e-11)
(-8.45383e-12 1.34699e-11 -1.48135e-11)
(-8.63515e-12 1.1169e-11 -8.5923e-12)
(-7.39395e-12 1.34096e-11 -5.58726e-12)
(-3.55934e-12 1.27115e-11 -3.33541e-12)
(-1.71097e-12 1.44618e-11 -6.81459e-12)
(-3.93547e-12 1.58062e-11 -1.49216e-11)
(-2.07696e-12 1.35686e-11 -2.25454e-11)
(-1.00355e-12 1.47591e-11 -1.98027e-11)
(6.69307e-13 1.25945e-11 -1.84111e-11)
(4.19006e-14 1.39769e-11 -1.24992e-11)
(1.64982e-13 8.82016e-12 -9.62434e-12)
(9.16997e-13 1.00303e-11 -2.00775e-12)
(3.92848e-12 1.38074e-11 7.08747e-12)
(6.01885e-12 1.28552e-11 1.18572e-11)
(6.06329e-12 1.06904e-11 8.92028e-12)
(5.78472e-12 8.60561e-12 7.69797e-12)
(4.90067e-12 6.44485e-12 1.06246e-11)
(5.98883e-12 8.39315e-12 8.23477e-12)
(2.83525e-12 9.11433e-12 9.9809e-13)
(5.80628e-12 7.75672e-12 -6.78889e-12)
(8.25585e-12 5.78489e-12 -1.2925e-11)
(3.18565e-12 9.37271e-12 -1.78932e-11)
(1.01769e-13 8.79963e-12 -2.08904e-11)
(3.16882e-12 8.59135e-12 -1.91961e-11)
(4.22692e-12 9.47049e-12 -1.39838e-11)
(1.85941e-12 4.80792e-12 -9.68981e-12)
(4.30703e-12 4.2603e-12 -6.56724e-12)
(5.23114e-12 8.63362e-12 -4.84141e-12)
(3.79531e-12 9.29753e-12 -5.68803e-12)
(3.40558e-12 1.06692e-11 -2.84312e-12)
(3.02287e-12 1.01107e-11 -2.6716e-12)
(6.79925e-13 9.10725e-12 -4.25435e-12)
(1.03818e-12 9.91479e-12 -5.93413e-12)
(2.09894e-12 8.016e-12 -5.95484e-12)
(2.71578e-13 5.5433e-12 -1.35802e-11)
(1.51113e-12 8.75466e-12 -1.79949e-11)
(1.49606e-12 7.37102e-12 -1.53629e-11)
(2.17225e-12 5.54869e-12 -1.14322e-11)
(1.87175e-12 9.20949e-12 -7.83663e-12)
(-2.32621e-13 1.08635e-11 -1.51011e-12)
(9.46198e-14 8.59627e-12 2.28035e-12)
(-1.19419e-12 9.55601e-12 7.18969e-12)
(-2.75778e-12 1.09545e-11 5.70977e-12)
(-1.19726e-12 1.29281e-11 5.58697e-12)
(1.20116e-12 1.41535e-11 6.15741e-12)
(1.04467e-12 1.46133e-11 6.19633e-12)
(1.47528e-13 1.16479e-11 6.92848e-12)
(-1.24894e-12 9.1419e-12 1.0436e-11)
(-4.75902e-12 9.35892e-12 7.40677e-12)
(-3.06199e-12 6.93161e-12 4.22563e-12)
(-4.87364e-13 1.06497e-11 3.07739e-12)
(-8.46715e-13 1.29493e-11 6.4775e-12)
(-1.32453e-12 1.23731e-11 5.30227e-12)
(-3.33764e-12 1.21459e-11 4.5753e-12)
(-4.18216e-12 9.56636e-12 3.83723e-12)
(-4.57544e-12 1.11507e-11 1.23943e-12)
(-5.1837e-12 1.35261e-11 -1.03086e-12)
(-6.14018e-12 1.37269e-11 -9.31407e-12)
(-3.07537e-12 1.25276e-11 -1.2708e-11)
(-1.09558e-12 1.18108e-11 -1.34755e-11)
(-2.63217e-12 1.40886e-11 -1.4705e-11)
(-4.11793e-12 1.16244e-11 -1.40387e-11)
(-6.39384e-12 9.20723e-12 -9.6877e-12)
(-4.48647e-12 1.2936e-11 -3.06365e-12)
(-3.00112e-12 9.00912e-12 2.84677e-12)
(-3.69256e-12 1.03882e-11 1.78903e-12)
(-2.10536e-12 1.16727e-11 -5.09534e-12)
(-1.74136e-12 1.41277e-11 -3.13177e-12)
(-2.28916e-12 1.44958e-11 5.90062e-13)
(-1.53591e-12 1.18913e-11 5.09691e-12)
(-3.60787e-13 1.37513e-11 4.32367e-12)
(1.18684e-12 1.23467e-11 1.31821e-12)
(2.19763e-12 8.85348e-12 2.13027e-12)
(5.16447e-12 1.02031e-11 8.86044e-12)
(3.17203e-12 1.37792e-11 1.29356e-11)
(5.90291e-13 1.30959e-11 6.79897e-12)
(-6.75434e-13 7.70088e-12 -1.89329e-11)
(-2.22883e-12 1.65292e-12 -1.60011e-11)
(-2.27691e-12 1.25332e-12 -6.81202e-12)
(-7.79391e-12 4.38429e-12 4.5171e-13)
(-8.06524e-12 7.49836e-12 6.02192e-12)
(-1.09758e-11 8.17259e-12 9.57956e-12)
(-1.38243e-11 8.60403e-12 8.43796e-12)
(-1.58165e-11 1.24376e-11 7.89272e-12)
(-1.76624e-11 1.16257e-11 2.68604e-12)
(-2.08068e-11 1.56957e-11 2.14941e-12)
(-2.03334e-11 1.74314e-11 2.86266e-12)
(-1.83132e-11 1.7203e-11 4.24729e-12)
(-2.11837e-11 1.54676e-11 5.59389e-12)
(-2.40197e-11 1.7157e-11 4.2162e-12)
(-2.15364e-11 1.63742e-11 8.02801e-12)
(-2.04485e-11 1.71759e-11 1.43567e-11)
(-2.29123e-11 2.07234e-11 1.59865e-11)
(-2.55406e-11 2.02725e-11 1.76496e-11)
(-2.46218e-11 2.08946e-11 1.81579e-11)
(-2.28457e-11 1.7675e-11 1.86537e-11)
(-2.50479e-11 1.57848e-11 1.87374e-11)
(-2.65415e-11 1.37529e-11 1.84282e-11)
(-2.35954e-11 1.30322e-11 1.41021e-11)
(-2.01659e-11 1.56428e-11 6.51848e-12)
(-1.63179e-11 1.49842e-11 3.51205e-13)
(-1.62164e-11 1.53557e-11 -5.69096e-12)
(-1.47098e-11 1.36239e-11 -8.17159e-12)
(-1.53963e-11 1.30426e-11 -9.13017e-12)
(-1.67081e-11 1.4311e-11 -1.02e-11)
(-1.23109e-11 1.41607e-11 -1.32671e-11)
(-7.76911e-12 1.45326e-11 -1.1917e-11)
(-8.57923e-12 1.4768e-11 -9.41088e-12)
(-7.93647e-12 1.68157e-11 -6.27685e-12)
(-4.03181e-12 1.60249e-11 -4.66762e-12)
(-2.15238e-12 1.73054e-11 -5.41087e-12)
(-1.91017e-12 1.50117e-11 -1.08416e-11)
(-1.88363e-12 1.4801e-11 -1.68105e-11)
(-2.35588e-12 1.70422e-11 -1.87236e-11)
(-5.87849e-14 1.63131e-11 -1.74012e-11)
(9.5417e-13 1.70167e-11 -1.07892e-11)
(8.81514e-13 1.26217e-11 -5.9396e-12)
(3.42161e-13 1.52823e-11 1.83861e-12)
(3.94239e-12 1.48815e-11 1.11297e-11)
(6.47484e-12 1.66141e-11 1.07664e-11)
(6.98979e-12 1.29016e-11 8.58754e-12)
(6.21465e-12 1.12671e-11 5.49138e-12)
(5.5281e-12 9.6793e-12 7.99324e-12)
(5.62273e-12 9.79182e-12 5.26009e-12)
(3.4061e-12 1.18018e-11 1.22495e-12)
(5.37462e-12 1.12765e-11 -4.93685e-12)
(6.99445e-12 1.25173e-11 -1.27576e-11)
(3.10025e-12 1.44878e-11 -1.83327e-11)
(1.8603e-12 1.14537e-11 -2.14958e-11)
(2.13422e-12 1.13798e-11 -1.89488e-11)
(3.2637e-12 1.3243e-11 -1.35925e-11)
(3.32558e-12 1.21416e-11 -8.45035e-12)
(3.15965e-12 1.00768e-11 -5.7228e-12)
(4.34684e-12 1.25867e-11 -4.35658e-12)
(3.07311e-12 1.1741e-11 -3.02677e-12)
(2.49513e-12 1.55274e-11 -1.12447e-12)
(3.42559e-12 1.47548e-11 -9.13168e-13)
(1.19314e-12 1.38453e-11 -3.13286e-12)
(1.73312e-12 1.19034e-11 -5.47903e-12)
(3.07692e-12 1.177e-11 -4.38918e-12)
(1.63788e-12 1.04587e-11 -1.00326e-11)
(7.28374e-13 1.28391e-11 -1.53729e-11)
(6.84929e-13 1.27954e-11 -1.68474e-11)
(1.453e-12 1.10892e-11 -1.72153e-11)
(6.87522e-13 1.34886e-11 -1.56409e-11)
(-6.27007e-13 1.54933e-11 -8.57935e-12)
(1.40728e-12 1.28388e-11 2.44061e-13)
(-1.17156e-12 1.3272e-11 9.45466e-12)
(-2.33541e-12 1.16212e-11 1.52001e-11)
(-1.43644e-12 8.94504e-12 1.72633e-11)
(-1.2574e-12 9.69957e-12 1.736e-11)
(6.52017e-13 1.11857e-11 1.48083e-11)
(2.34048e-12 1.1182e-11 1.1896e-11)
(-4.90818e-13 1.20992e-11 1.33884e-11)
(-3.81086e-12 1.24779e-11 1.19761e-11)
(-3.66895e-12 9.90984e-12 9.17406e-12)
(-3.98706e-12 1.32661e-11 7.38993e-12)
(-2.49021e-12 1.68221e-11 6.77165e-12)
(-9.73763e-13 1.71366e-11 7.15618e-12)
(-1.9989e-12 1.65027e-11 9.04049e-12)
(-3.6941e-12 1.42186e-11 5.96882e-12)
(-5.80801e-12 1.748e-11 3.86059e-12)
(-4.89273e-12 1.71927e-11 1.72963e-13)
(-3.49391e-12 1.61663e-11 -7.96987e-12)
(-1.77777e-12 1.268e-11 -1.36939e-11)
(-3.34078e-12 1.48531e-11 -1.61859e-11)
(-3.0833e-12 1.68077e-11 -1.56139e-11)
(-2.96756e-12 1.40758e-11 -1.37396e-11)
(-6.849e-12 1.33751e-11 -8.43838e-12)
(-4.33539e-12 1.15424e-11 -4.43982e-13)
(-1.8289e-12 1.30428e-11 3.91307e-12)
(-3.43919e-12 1.2121e-11 4.7192e-12)
(-4.68288e-12 1.30486e-11 -3.8025e-13)
(-3.11808e-12 1.53634e-11 -3.84231e-12)
(-2.05693e-12 1.61092e-11 -1.53464e-12)
(-2.59155e-12 1.49728e-11 1.5234e-13)
(-3.83104e-13 1.61008e-11 -1.56219e-12)
(4.2826e-12 1.52844e-11 -3.14762e-12)
(3.37818e-12 1.24587e-11 -4.47483e-13)
(2.52138e-12 1.67946e-11 3.25775e-12)
(3.11826e-12 1.78272e-11 6.35222e-12)
(2.28254e-12 1.6377e-11 5.58338e-12)
(-4.55851e-12 8.38114e-12 -2.06777e-11)
(-1.52916e-12 6.6115e-12 -1.6478e-11)
(-4.0373e-12 7.77819e-12 -6.25555e-12)
(-1.02136e-11 1.03845e-11 1.77027e-12)
(-9.50063e-12 8.94933e-12 6.055e-12)
(-1.22475e-11 1.01083e-11 1.15491e-11)
(-1.56679e-11 1.00929e-11 1.16571e-11)
(-1.50884e-11 1.30903e-11 1.00141e-11)
(-1.84409e-11 1.39292e-11 4.55986e-12)
(-2.1606e-11 1.63217e-11 4.89055e-12)
(-2.00497e-11 1.43281e-11 4.37439e-12)
(-1.83186e-11 1.44106e-11 6.51545e-12)
(-2.13943e-11 1.53577e-11 7.08388e-12)
(-2.42315e-11 1.47401e-11 1.55007e-12)
(-2.21348e-11 1.67837e-11 3.44245e-12)
(-2.22234e-11 1.68586e-11 7.59329e-12)
(-2.35604e-11 1.98567e-11 1.14757e-11)
(-2.43687e-11 2.0748e-11 1.29712e-11)
(-2.21714e-11 2.18571e-11 1.40376e-11)
(-2.00322e-11 2.03502e-11 1.50353e-11)
(-2.34402e-11 2.07036e-11 1.54214e-11)
(-2.43238e-11 1.79911e-11 1.53133e-11)
(-2.52354e-11 1.57541e-11 1.0281e-11)
(-2.22954e-11 1.62861e-11 7.8195e-13)
(-1.69013e-11 1.45041e-11 -3.46168e-12)
(-1.6073e-11 1.58112e-11 -7.85828e-12)
(-1.38624e-11 1.64103e-11 -9.41377e-12)
(-1.4715e-11 1.68272e-11 -8.13157e-12)
(-1.51505e-11 1.54591e-11 -6.35291e-12)
(-1.22953e-11 1.29264e-11 -1.01038e-11)
(-9.58447e-12 1.45682e-11 -1.05651e-11)
(-9.57492e-12 1.44993e-11 -9.52396e-12)
(-7.94058e-12 1.58396e-11 -7.04086e-12)
(-2.99371e-12 1.4102e-11 -5.20194e-12)
(-1.07255e-12 1.71458e-11 -5.41788e-12)
(-2.12358e-12 1.44896e-11 -7.76583e-12)
(-3.81059e-12 1.73422e-11 -1.21324e-11)
(-2.6701e-12 1.65239e-11 -1.35414e-11)
(-3.69072e-14 1.52389e-11 -1.29714e-11)
(2.15006e-12 1.54096e-11 -9.4019e-12)
(1.73159e-12 1.66979e-11 -1.66257e-12)
(-8.7886e-13 1.42366e-11 6.53771e-12)
(2.82568e-12 1.52064e-11 1.14016e-11)
(7.20744e-12 1.50807e-11 1.15002e-11)
(9.47194e-12 1.52336e-11 8.9551e-12)
(7.68892e-12 1.43561e-11 7.28472e-12)
(6.09744e-12 1.408e-11 9.49816e-12)
(4.21701e-12 1.29241e-11 4.19154e-12)
(1.6988e-12 1.24564e-11 1.78245e-12)
(3.82039e-12 1.20878e-11 -6.13186e-13)
(5.37744e-12 1.37957e-11 -8.25539e-12)
(4.47461e-12 1.21395e-11 -1.57354e-11)
(3.10521e-12 1.21858e-11 -1.97156e-11)
(2.06104e-12 1.04178e-11 -1.68161e-11)
(2.89723e-12 1.17235e-11 -1.2487e-11)
(4.73441e-12 1.26235e-11 -7.71621e-12)
(3.17905e-12 1.32192e-11 -4.74579e-12)
(4.3523e-12 1.39609e-11 -3.10057e-12)
(1.86938e-12 1.53023e-11 -1.83074e-12)
(1.37502e-12 1.72599e-11 -2.14031e-12)
(4.50876e-12 1.63994e-11 -1.45431e-12)
(2.18535e-12 1.5779e-11 -1.84204e-12)
(2.26211e-12 1.54409e-11 -7.42569e-12)
(3.40619e-12 1.60527e-11 -6.08048e-12)
(1.7367e-13 1.48407e-11 -9.87977e-12)
(-1.6728e-12 1.42736e-11 -1.50302e-11)
(2.26108e-12 1.49277e-11 -1.90964e-11)
(1.28878e-12 1.35694e-11 -2.29048e-11)
(-2.82497e-13 1.62251e-11 -2.1892e-11)
(3.44577e-13 1.23527e-11 -1.58168e-11)
(1.59738e-12 1.22795e-11 -3.93431e-12)
(-2.65792e-13 1.0309e-11 9.14977e-12)
(1.19497e-12 1.01934e-11 1.92885e-11)
(-8.4681e-14 1.00943e-11 2.46641e-11)
(-7.0114e-13 1.21088e-11 2.52663e-11)
(2.6961e-13 1.10559e-11 2.0549e-11)
(3.18323e-13 1.45522e-11 1.41689e-11)
(-2.02438e-12 1.69301e-11 1.25538e-11)
(-3.23121e-12 1.63697e-11 1.46913e-11)
(-3.96911e-12 1.45846e-11 1.1411e-11)
(-6.08831e-12 1.51991e-11 9.48681e-12)
(-3.80984e-12 1.43108e-11 7.90239e-12)
(-1.66029e-12 1.54874e-11 7.87484e-12)
(-7.3629e-13 1.61331e-11 8.85403e-12)
(-4.78302e-12 1.69533e-11 9.68858e-12)
(-7.6251e-12 1.70994e-11 8.81038e-12)
(-4.95786e-12 1.50278e-11 5.27863e-12)
(-2.4392e-12 1.49071e-11 -3.70056e-12)
(-1.96218e-12 1.47897e-11 -1.37746e-11)
(-4.59729e-12 1.5448e-11 -1.86703e-11)
(-2.45976e-12 1.63393e-11 -1.60173e-11)
(-1.71327e-12 1.41935e-11 -1.19861e-11)
(-4.47511e-12 1.56101e-11 -6.46386e-12)
(-3.72015e-12 1.28926e-11 -4.49958e-13)
(-3.29714e-12 1.42532e-11 1.10964e-12)
(-4.15431e-12 1.45119e-11 4.30231e-12)
(-4.90846e-12 1.58796e-11 1.8407e-12)
(-4.19272e-12 1.44052e-11 -5.38191e-13)
(-1.72197e-12 1.46152e-11 -9.98429e-13)
(-1.04082e-12 1.26781e-11 -1.26467e-12)
(-3.56765e-13 1.24537e-11 -6.44354e-12)
(4.73577e-12 1.32069e-11 -8.66784e-12)
(2.25233e-12 1.49047e-11 -5.97025e-12)
(4.47881e-13 1.51815e-11 -4.64278e-12)
(3.46614e-12 1.59715e-11 -1.656e-12)
(-6.47865e-12 6.43043e-12 -2.43893e-11)
(-4.16246e-12 7.92962e-12 -1.81334e-11)
(-6.74137e-12 1.04608e-11 -7.1366e-12)
(-9.07869e-12 1.26469e-11 2.72695e-12)
(-9.49957e-12 8.15946e-12 7.88758e-12)
(-1.22657e-11 1.06315e-11 1.2032e-11)
(-1.54351e-11 8.63918e-12 1.33524e-11)
(-1.6838e-11 1.15649e-11 1.27859e-11)
(-1.91285e-11 1.31478e-11 5.70403e-12)
(-2.01476e-11 1.31904e-11 9.52354e-13)
(-1.81023e-11 1.13941e-11 2.24977e-12)
(-1.95996e-11 1.37793e-11 4.25457e-12)
(-2.24318e-11 1.34178e-11 6.32421e-12)
(-2.46693e-11 1.37661e-11 4.49196e-12)
(-2.38815e-11 1.28866e-11 3.75757e-12)
(-2.38298e-11 1.70165e-11 3.38346e-12)
(-2.48982e-11 1.91082e-11 6.74593e-12)
(-2.60277e-11 2.11335e-11 1.00453e-11)
(-2.37457e-11 1.98391e-11 1.22028e-11)
(-2.13764e-11 2.36156e-11 1.27947e-11)
(-2.29574e-11 2.35572e-11 1.37793e-11)
(-2.32009e-11 2.15778e-11 1.46135e-11)
(-2.31118e-11 1.78916e-11 9.39101e-12)
(-2.06035e-11 1.52637e-11 1.22243e-12)
(-1.72381e-11 1.27146e-11 -4.53506e-12)
(-1.69989e-11 1.46895e-11 -8.70686e-12)
(-1.57501e-11 1.44575e-11 -9.89755e-12)
(-1.46798e-11 1.74546e-11 -7.04457e-12)
(-1.2685e-11 1.52855e-11 -4.859e-12)
(-1.14503e-11 1.32414e-11 -8.72412e-12)
(-9.6979e-12 1.23152e-11 -1.16982e-11)
(-9.41156e-12 1.29866e-11 -9.72747e-12)
(-6.95658e-12 1.13728e-11 -8.06188e-12)
(-4.28583e-12 1.11814e-11 -4.85411e-12)
(-1.81616e-12 1.29124e-11 -4.2562e-12)
(-1.21106e-12 1.34284e-11 -6.89318e-12)
(-3.75436e-12 1.32274e-11 -1.08534e-11)
(-3.51045e-13 1.27692e-11 -1.02858e-11)
(5.83942e-13 1.34199e-11 -8.58947e-12)
(-7.5331e-13 1.33471e-11 -5.59003e-12)
(1.60285e-12 1.50254e-11 1.56975e-12)
(1.0847e-12 1.35289e-11 9.79667e-12)
(3.79644e-12 1.45321e-11 1.16145e-11)
(6.81526e-12 1.44592e-11 1.26004e-11)
(7.48834e-12 1.48669e-11 9.73954e-12)
(7.32387e-12 1.83569e-11 7.54804e-12)
(6.76559e-12 1.77416e-11 6.89828e-12)
(5.07724e-12 1.62208e-11 4.52291e-12)
(3.42929e-12 1.20699e-11 4.20269e-12)
(2.79541e-12 1.08384e-11 3.69391e-12)
(5.53921e-12 1.09743e-11 -2.68582e-12)
(4.34493e-12 7.09909e-12 -1.03895e-11)
(3.26009e-12 6.71063e-12 -1.64412e-11)
(2.71824e-12 6.45009e-12 -1.38448e-11)
(1.69189e-12 9.47641e-12 -1.30017e-11)
(3.52909e-12 1.08564e-11 -8.66433e-12)
(2.29461e-12 1.19231e-11 -4.65341e-12)
(2.91333e-12 1.40025e-11 -3.2904e-12)
(5.03232e-13 1.58801e-11 -3.33773e-12)
(1.40759e-12 1.47746e-11 -4.0937e-12)
(4.40315e-12 1.55464e-11 -3.86989e-12)
(1.39239e-12 1.66899e-11 -6.11259e-12)
(1.15788e-12 1.56443e-11 -8.99331e-12)
(3.28178e-12 1.6891e-11 -1.04444e-11)
(2.0066e-12 1.38728e-11 -1.04642e-11)
(-3.96828e-13 1.25195e-11 -1.46117e-11)
(1.76753e-12 1.24257e-11 -1.93073e-11)
(7.01686e-13 1.17073e-11 -2.33916e-11)
(1.58044e-12 1.14177e-11 -2.47994e-11)
(3.42027e-12 8.21913e-12 -1.8658e-11)
(3.31289e-12 8.95738e-12 -6.33104e-12)
(6.17903e-13 7.65533e-12 8.68116e-12)
(-4.2456e-13 7.20053e-12 2.05291e-11)
(-1.65596e-12 9.60891e-12 2.43628e-11)
(-1.41174e-12 1.10168e-11 2.03388e-11)
(-1.57768e-13 1.39369e-11 1.90109e-11)
(-2.35051e-12 1.67686e-11 1.33058e-11)
(-2.30382e-12 2.04119e-11 9.59336e-12)
(-2.52042e-12 1.92523e-11 1.10376e-11)
(-3.52423e-12 1.68247e-11 1.24575e-11)
(-4.83322e-12 1.41675e-11 9.35201e-12)
(-2.73106e-12 1.29502e-11 8.74908e-12)
(-2.04804e-12 1.23968e-11 9.14392e-12)
(-2.80596e-12 1.4112e-11 1.0461e-11)
(-5.07564e-12 1.64291e-11 1.34183e-11)
(-5.04421e-12 1.41596e-11 1.35696e-11)
(-3.8883e-12 1.314e-11 1.04042e-11)
(-3.4829e-12 1.40355e-11 9.12787e-13)
(-2.22248e-12 1.4716e-11 -1.2049e-11)
(-5.12192e-12 1.37412e-11 -1.84251e-11)
(-2.3122e-12 1.29775e-11 -1.56849e-11)
(-2.3866e-12 1.30587e-11 -1.06359e-11)
(-4.7678e-12 1.34277e-11 -5.9069e-12)
(-2.62168e-12 1.37321e-11 -4.53148e-12)
(-3.12741e-12 1.33336e-11 -2.93845e-12)
(-5.16623e-12 1.52219e-11 -3.48175e-13)
(-4.24497e-12 1.39625e-11 7.7976e-13)
(-2.23492e-12 1.32486e-11 2.42653e-12)
(-6.33249e-13 1.09738e-11 6.49245e-13)
(-1.05651e-12 1.04626e-11 -2.96592e-12)
(-5.89556e-13 8.2574e-12 -8.62889e-12)
(2.83332e-12 9.54481e-12 -9.29651e-12)
(2.04913e-12 1.21812e-11 -9.0087e-12)
(1.64014e-12 1.04124e-11 -1.04728e-11)
(3.22269e-12 1.03396e-11 -6.97044e-12)
(-1.07531e-11 3.48599e-12 -2.24852e-11)
(-6.72572e-12 4.41998e-12 -1.96573e-11)
(-8.29689e-12 7.56629e-12 -9.74803e-12)
(-8.44815e-12 9.37671e-12 8.16023e-13)
(-9.44171e-12 6.33248e-12 5.77843e-12)
(-1.23008e-11 6.86169e-12 1.00295e-11)
(-1.61566e-11 7.85347e-12 9.09393e-12)
(-1.83105e-11 7.92203e-12 1.02805e-11)
(-1.9518e-11 8.34515e-12 5.64815e-12)
(-1.92086e-11 8.66944e-12 9.95434e-13)
(-1.92916e-11 1.07253e-11 9.94277e-13)
(-2.00993e-11 1.08515e-11 3.15568e-12)
(-2.21001e-11 1.11519e-11 5.89978e-12)
(-2.45995e-11 1.20544e-11 4.71287e-12)
(-2.63695e-11 1.1227e-11 2.35797e-12)
(-2.85728e-11 1.54975e-11 1.3619e-12)
(-2.61266e-11 1.56199e-11 3.45065e-12)
(-2.43601e-11 1.79221e-11 7.42198e-12)
(-2.46898e-11 1.5181e-11 1.09481e-11)
(-2.36816e-11 2.05757e-11 1.09103e-11)
(-2.17012e-11 2.00226e-11 1.17415e-11)
(-2.13836e-11 1.80576e-11 1.2891e-11)
(-2.13035e-11 1.47975e-11 7.85201e-12)
(-1.92836e-11 1.51316e-11 8.60678e-13)
(-1.75054e-11 1.27979e-11 -4.65126e-12)
(-1.69639e-11 1.36513e-11 -1.0321e-11)
(-1.64095e-11 1.30884e-11 -1.14182e-11)
(-1.57233e-11 1.58761e-11 -1.12788e-11)
(-1.17026e-11 1.45112e-11 -9.69387e-12)
(-9.24858e-12 1.3985e-11 -9.7729e-12)
(-9.89085e-12 1.21352e-11 -1.14259e-11)
(-9.29929e-12 1.17395e-11 -1.04935e-11)
(-6.20493e-12 8.89607e-12 -6.70279e-12)
(-4.10696e-12 1.06994e-11 -3.49531e-12)
(-2.5019e-12 8.92865e-12 -2.35044e-12)
(-1.75726e-12 1.16249e-11 -4.2395e-12)
(-2.87515e-12 9.57591e-12 -6.3821e-12)
(-3.04177e-12 1.29173e-11 -6.97375e-12)
(-3.43466e-13 1.35056e-11 -7.31512e-12)
(4.26029e-13 1.16048e-11 -4.66227e-12)
(1.02456e-12 1.17365e-11 1.45071e-12)
(6.00391e-13 1.37086e-11 8.37498e-12)
(3.59235e-12 1.36233e-11 1.03353e-11)
(6.99035e-12 1.50964e-11 1.21774e-11)
(5.99404e-12 1.3927e-11 1.00801e-11)
(5.45821e-12 1.67546e-11 7.99662e-12)
(7.20284e-12 1.71247e-11 5.96649e-12)
(6.99119e-12 1.56635e-11 3.47491e-12)
(4.77899e-12 1.22827e-11 3.2758e-12)
(2.85523e-12 1.03575e-11 3.67915e-12)
(6.23355e-12 8.80864e-12 1.30448e-12)
(7.68365e-12 8.54916e-12 -1.96695e-12)
(4.43916e-12 6.56847e-12 -5.58836e-12)
(7.04465e-13 8.30607e-12 -8.47669e-12)
(8.15752e-13 1.0326e-11 -9.86514e-12)
(3.13528e-12 9.76254e-12 -6.37581e-12)
(1.82685e-12 1.06072e-11 -3.20865e-12)
(9.20518e-13 1.28651e-11 -4.24981e-12)
(9.37372e-13 1.66908e-11 -5.66406e-12)
(1.17404e-12 1.49142e-11 -8.39948e-12)
(2.30069e-12 1.51788e-11 -8.71908e-12)
(2.02934e-12 1.68361e-11 -1.11648e-11)
(2.27529e-12 1.52574e-11 -1.04469e-11)
(4.41106e-12 1.3778e-11 -1.207e-11)
(2.68754e-12 1.06261e-11 -1.30826e-11)
(-3.37048e-13 1.17512e-11 -1.59935e-11)
(2.43231e-12 1.15729e-11 -1.95007e-11)
(2.74117e-12 1.09696e-11 -2.46216e-11)
(2.66879e-12 7.43929e-12 -2.71184e-11)
(2.93671e-12 7.52888e-12 -2.01333e-11)
(2.58653e-12 7.39734e-12 -7.6696e-12)
(2.12403e-12 8.85695e-12 7.69504e-12)
(3.76274e-13 7.14267e-12 1.71674e-11)
(-2.37564e-12 8.99337e-12 1.93666e-11)
(-3.47679e-12 9.56945e-12 1.71332e-11)
(-3.84225e-12 1.31851e-11 1.73619e-11)
(-3.92175e-12 1.4662e-11 1.08512e-11)
(-3.83334e-12 1.69655e-11 5.53665e-12)
(-1.58174e-12 1.72523e-11 7.04418e-12)
(-1.42061e-12 1.60064e-11 9.69921e-12)
(-2.72033e-12 1.45999e-11 8.14256e-12)
(-2.57395e-12 1.31894e-11 9.27203e-12)
(-1.98553e-12 1.26911e-11 1.0363e-11)
(-3.94546e-12 1.29474e-11 1.21101e-11)
(-4.59356e-12 1.35185e-11 1.55845e-11)
(-4.37597e-12 1.36513e-11 1.41444e-11)
(-5.31094e-12 1.51248e-11 7.94797e-12)
(-4.02976e-12 1.65909e-11 -2.14342e-12)
(-1.78488e-12 1.44273e-11 -1.13644e-11)
(-3.3132e-12 1.3939e-11 -1.66508e-11)
(-2.24122e-12 1.21365e-11 -1.50088e-11)
(-2.58491e-12 1.32027e-11 -9.62946e-12)
(-4.13145e-12 1.13868e-11 -7.00992e-12)
(-3.25236e-12 1.10728e-11 -6.61071e-12)
(-4.22069e-12 1.0909e-11 -4.69345e-12)
(-4.63427e-12 1.30649e-11 -2.26093e-12)
(-3.17543e-12 1.00532e-11 -3.98157e-13)
(-1.06922e-12 1.14326e-11 1.22421e-12)
(-2.62721e-13 9.62169e-12 1.42968e-12)
(1.59446e-13 1.0047e-11 -1.56642e-12)
(2.42358e-14 8.262e-12 -7.54229e-12)
(9.76214e-13 1.02734e-11 -1.00335e-11)
(1.70714e-12 8.99136e-12 -1.00394e-11)
(2.52936e-12 7.40464e-12 -9.80038e-12)
(1.12414e-12 6.7687e-12 -9.78091e-12)
(-9.93422e-12 -1.96053e-12 -1.8267e-11)
(-9.75038e-12 1.6055e-12 -1.85605e-11)
(-1.03889e-11 5.93678e-12 -1.11602e-11)
(-9.02394e-12 7.1946e-12 7.73997e-13)
(-9.35931e-12 3.73358e-12 4.79324e-12)
(-1.36577e-11 4.24444e-12 6.72766e-12)
(-1.63551e-11 7.09382e-12 5.54124e-12)
(-1.75675e-11 6.37508e-12 6.43709e-12)
(-1.99311e-11 5.84486e-12 4.17376e-12)
(-2.08745e-11 7.86711e-12 9.51184e-13)
(-1.93208e-11 9.64733e-12 -1.49056e-13)
(-2.10769e-11 9.89658e-12 1.63242e-12)
(-2.40593e-11 1.27706e-11 5.75128e-12)
(-2.56381e-11 1.32189e-11 1.71928e-12)
(-2.83632e-11 1.51054e-11 2.18283e-13)
(-2.82471e-11 1.28919e-11 3.81513e-14)
(-2.62078e-11 1.10815e-11 1.77956e-12)
(-2.47501e-11 1.32182e-11 5.7171e-12)
(-2.65132e-11 1.40828e-11 1.12041e-11)
(-2.6049e-11 1.44695e-11 8.74902e-12)
(-2.02428e-11 1.41493e-11 9.37491e-12)
(-1.82245e-11 1.62707e-11 1.36333e-11)
(-2.06781e-11 1.41937e-11 9.45253e-12)
(-2.00666e-11 1.67899e-11 2.77231e-13)
(-1.63137e-11 1.36954e-11 -5.57439e-12)
(-1.7204e-11 1.26534e-11 -9.73378e-12)
(-1.9073e-11 1.59257e-11 -1.13467e-11)
(-1.57075e-11 1.6752e-11 -1.37122e-11)
(-1.06123e-11 1.4149e-11 -1.19237e-11)
(-9.04776e-12 1.57618e-11 -1.11223e-11)
(-7.63466e-12 1.76705e-11 -1.15332e-11)
(-6.06021e-12 1.44224e-11 -9.02105e-12)
(-7.03617e-12 1.33796e-11 -4.41413e-12)
(-4.50477e-12 1.22508e-11 -2.29293e-12)
(-2.48659e-12 1.10527e-11 -6.54727e-13)
(-2.23843e-12 9.38536e-12 -2.70051e-12)
(-3.82036e-12 1.04442e-11 -3.40528e-12)
(-4.07628e-12 9.53907e-12 -4.9568e-12)
(3.92246e-13 8.31183e-12 -7.14754e-12)
(3.67865e-13 1.19944e-11 -3.59966e-12)
(-7.86848e-14 1.18385e-11 2.31839e-12)
(1.27319e-12 1.58617e-11 5.70001e-12)
(3.05907e-12 1.43827e-11 8.94786e-12)
(5.71975e-12 1.56148e-11 1.17939e-11)
(5.37475e-12 1.56047e-11 9.78953e-12)
(5.08171e-12 1.65414e-11 8.48568e-12)
(7.26717e-12 1.59139e-11 8.60184e-12)
(8.04785e-12 1.63921e-11 4.55594e-12)
(7.54556e-12 1.50664e-11 4.06351e-12)
(5.29553e-12 1.31212e-11 4.99821e-12)
(5.32046e-12 1.1877e-11 4.97777e-12)
(5.6758e-12 1.17894e-11 5.98346e-12)
(4.01361e-12 1.33366e-11 3.74771e-12)
(5.10795e-13 1.42831e-11 -3.14597e-12)
(2.57338e-12 1.32378e-11 -8.48686e-12)
(3.80567e-12 1.32029e-11 -5.15745e-12)
(1.01999e-12 1.58469e-11 -3.64121e-12)
(-2.00328e-12 1.62819e-11 -4.71879e-12)
(-8.33949e-13 1.76945e-11 -8.633e-12)
(2.22748e-12 1.62357e-11 -1.07806e-11)
(1.8619e-12 1.72074e-11 -1.06971e-11)
(8.15389e-13 1.50382e-11 -1.26951e-11)
(3.18884e-12 1.51575e-11 -1.3358e-11)
(6.2061e-12 1.23461e-11 -1.37195e-11)
(2.88526e-12 1.19925e-11 -1.28851e-11)
(-1.08853e-12 1.1469e-11 -1.81486e-11)
(1.86528e-12 1.1404e-11 -2.17038e-11)
(3.75564e-12 1.12899e-11 -2.62378e-11)
(4.66082e-12 8.16434e-12 -2.74567e-11)
(3.54627e-12 9.80576e-12 -1.98955e-11)
(2.55997e-12 1.03091e-11 -4.61856e-12)
(2.86232e-12 1.19332e-11 8.49807e-12)
(-5.05089e-13 1.28575e-11 1.27023e-11)
(-3.41335e-12 1.42429e-11 1.30952e-11)
(-4.5501e-12 1.28429e-11 1.33201e-11)
(-4.54891e-12 1.32786e-11 1.3701e-11)
(-4.55836e-12 1.44887e-11 6.72142e-12)
(-4.67574e-12 1.70837e-11 9.54245e-13)
(-2.54875e-12 1.72924e-11 2.85734e-12)
(-2.11151e-12 1.78252e-11 4.46978e-12)
(-1.78736e-12 1.96575e-11 4.68459e-12)
(-2.00104e-12 1.73506e-11 6.30185e-12)
(-2.0155e-12 1.91463e-11 8.50898e-12)
(-2.83712e-12 1.60642e-11 1.24094e-11)
(-5.75054e-12 1.61535e-11 1.3963e-11)
(-6.19013e-12 1.46862e-11 1.22069e-11)
(-5.99608e-12 1.82539e-11 5.00901e-12)
(-3.2736e-12 1.66145e-11 -5.24888e-12)
(-1.26125e-12 1.29661e-11 -1.03505e-11)
(-2.77001e-12 1.20529e-11 -1.45088e-11)
(-1.55281e-12 1.28798e-11 -1.33449e-11)
(-1.71053e-12 1.29889e-11 -7.26631e-12)
(-2.81551e-12 1.17219e-11 -6.2024e-12)
(-2.32495e-12 1.09931e-11 -4.53019e-12)
(-4.69902e-12 1.10887e-11 -2.85991e-12)
(-4.01244e-12 1.23233e-11 -4.57266e-12)
(-2.73467e-12 1.09138e-11 -2.13827e-12)
(-1.77641e-12 9.34636e-12 -2.91216e-12)
(5.33463e-13 8.49498e-12 -1.16555e-12)
(-1.40515e-12 9.93083e-12 -2.29473e-12)
(-1.33899e-12 1.1303e-11 -7.26883e-12)
(1.74005e-12 1.01633e-11 -1.09875e-11)
(3.20062e-12 1.11386e-11 -8.78865e-12)
(2.65296e-12 8.87402e-12 -8.70529e-12)
(4.63552e-13 1.0885e-11 -1.14903e-11)
(-1.10775e-11 3.62313e-12 -9.69977e-12)
(-1.34153e-11 4.73943e-12 -9.91942e-12)
(-1.13293e-11 8.02776e-12 -7.41202e-12)
(-8.53663e-12 7.90131e-12 -9.8325e-13)
(-9.37141e-12 7.68185e-12 3.57562e-12)
(-1.47217e-11 7.65667e-12 5.37219e-12)
(-1.7326e-11 8.40692e-12 5.82957e-12)
(-1.71343e-11 8.15251e-12 5.48522e-12)
(-1.99872e-11 9.73362e-12 3.68563e-12)
(-2.10586e-11 9.97735e-12 7.0219e-13)