/*--------------------------------*- C++ -*----------------------------------*\
| =========                 |                                                 |
| \\      /  F ield         | OpenFOAM: The Open Source CFD Toolbox           |
|  \\    /   O peration     | Version:  2406                                  |
|   \\  /    A nd           | Website:  www.openfoam.com                      |
|    \\/     M anipulation  |                                                 |
\*---------------------------------------------------------------------------*/
FoamFile
{
    version     2.0;
    format      ascii;
    arch        "LSB;label=32;scalar=64";
    class       volVectorField;
    location    "0.045";
    object      U;
}
// * * * * * * * * * * * * * * * * * * * * * * * * * * * * * * * * * * * * * //

dimensions      [0 1 -1 0 0 0 0];

internalField   nonuniform List<vector> 
13988
(
(2.28045e-12 -3.80815e-12 2.20385e-12)
(-1.07382e-12 -8.72599e-13 -1.81452e-12)
(1.42564e-12 -2.39991e-12 -7.94643e-12)
(2.51966e-12 -3.2553e-12 -3.99847e-12)
(2.41814e-13 -4.44057e-12 -6.40954e-12)
(-3.20481e-12 -4.74874e-12 -7.11488e-12)
(-5.61708e-12 -2.38161e-12 -7.77156e-12)
(-3.64037e-12 -3.71405e-12 -7.83632e-12)
(-3.69562e-12 -2.26285e-12 -5.99187e-12)
(-2.32374e-12 -2.99826e-12 -5.60452e-12)
(-9.4655e-13 -4.15393e-12 -5.17744e-12)
(-1.0769e-12 -4.09029e-12 -8.49441e-13)
(1.4308e-12 -6.35381e-14 3.47384e-12)
(-2.78009e-13 6.57574e-13 8.62429e-12)
(2.62711e-13 -3.82088e-13 8.22613e-12)
(4.03687e-12 -3.99305e-13 3.64278e-13)
(3.31417e-12 -1.88423e-13 -1.1181e-11)
(1.5875e-12 -1.98885e-12 -1.7088e-11)
(1.56137e-12 -3.18789e-12 -1.82467e-11)
(2.22628e-13 -3.92224e-12 -1.72112e-11)
(3.0323e-12 -1.73392e-12 -1.59483e-11)
(4.04595e-12 -1.06326e-12 -1.36835e-11)
(3.62145e-12 -4.21663e-12 -1.27593e-11)
(4.77547e-12 -4.26301e-12 -1.26645e-11)
(3.66071e-12 -5.65925e-12 -1.45854e-11)
(1.09778e-13 -7.14165e-12 -1.51844e-11)
(-2.59516e-12 -6.71976e-12 -1.48022e-11)
(-1.50124e-12 -3.99037e-12 -1.19448e-11)
(1.37066e-12 -6.10168e-12 -8.92394e-12)
(4.30488e-12 -3.28846e-12 -3.36335e-12)
(1.71047e-12 -6.4969e-13 8.11873e-12)
(-4.2273e-13 -2.46376e-12 2.2195e-11)
(-1.14204e-13 -3.21264e-13 2.71709e-11)
(7.44236e-13 7.79612e-13 2.93962e-11)
(1.60292e-12 -2.85992e-13 3.08028e-11)
(3.20677e-12 -4.41522e-13 3.0567e-11)
(5.57336e-12 -2.473e-12 3.22637e-11)
(5.63646e-12 -3.73145e-12 3.44974e-11)
(4.0127e-12 -1.73595e-12 2.88205e-11)
(-2.38128e-12 -1.73438e-12 2.48277e-11)
(-2.66283e-12 -3.22974e-12 1.56828e-11)
(1.22875e-12 -6.60664e-12 1.22276e-11)
(8.18742e-13 -6.91539e-12 8.50357e-12)
(2.5556e-12 -6.02157e-12 5.74257e-12)
(1.38102e-12 -4.55383e-12 4.02341e-12)
(-6.11721e-13 -6.38607e-12 3.68453e-12)
(-1.36413e-12 -4.99024e-12 2.89992e-12)
(-1.08908e-12 -5.76979e-12 1.24266e-13)
(4.92792e-13 -3.02077e-12 3.66766e-14)
(2.26226e-12 -3.59177e-12 9.27445e-13)
(7.52912e-13 -2.54584e-12 4.41057e-12)
(-2.66459e-12 4.63551e-13 7.79186e-12)
(-4.36671e-12 -3.48517e-13 7.45706e-12)
(-2.9523e-12 -1.35857e-12 6.77582e-12)
(-4.26609e-12 -3.28311e-12 3.06038e-12)
(-1.22265e-12 -5.20601e-12 -3.58726e-12)
(-1.08045e-12 -2.4462e-12 -1.05532e-11)
(-4.59217e-13 -3.83554e-12 -1.58178e-11)
(2.08878e-12 -5.00316e-12 -1.77486e-11)
(1.25551e-12 -3.68416e-12 -1.54019e-11)
(2.43263e-12 -6.60397e-12 -1.14919e-11)
(1.93042e-12 -3.74676e-12 -7.95139e-12)
(2.05624e-12 -2.15873e-12 -5.21581e-12)
(1.25897e-12 -4.62244e-13 -5.55252e-12)
(2.39384e-12 8.82195e-13 -7.20644e-12)
(6.37805e-12 -5.48492e-13 -9.2175e-12)
(5.08599e-12 -3.76781e-12 -1.07692e-11)
(3.57362e-12 -3.92208e-12 -1.2625e-11)
(4.03464e-12 -2.04514e-12 -1.24401e-11)
(2.94968e-12 -1.83072e-12 -9.41178e-12)
(2.71528e-12 -3.00414e-12 -1.23135e-11)
(3.28578e-12 -9.98358e-13 -1.02613e-11)
(2.50176e-12 -7.93622e-13 -1.08305e-11)
(3.51377e-12 -1.43204e-12 -1.13976e-11)
(2.28712e-12 -1.32764e-12 -1.08228e-11)
(-7.26662e-14 -2.5546e-12 -1.02511e-11)
(-6.75659e-13 -1.63659e-12 -9.5312e-12)
(3.21162e-14 -2.28947e-12 -9.51233e-12)
(-1.91689e-12 -9.11318e-14 -8.20168e-12)
(-4.61354e-12 3.34195e-13 -1.05839e-11)
(-2.8659e-12 1.08111e-12 -1.29592e-11)
(-1.7288e-12 1.37939e-12 -1.14624e-11)
(-1.9964e-12 8.2363e-14 -1.2605e-11)
(-1.05291e-12 -1.39444e-12 -1.54226e-11)
(-1.96802e-13 -5.04816e-14 -1.92252e-11)
(-1.04151e-12 -3.17078e-12 -2.16553e-11)
(-2.66909e-12 -2.70886e-12 -1.5258e-11)
(-2.11118e-12 4.45762e-13 -1.15268e-11)
(-8.69596e-13 -2.59662e-13 -1.24445e-11)
(-1.51407e-12 -2.09842e-12 -1.42553e-11)
(-7.27219e-13 -1.8559e-12 -1.45089e-11)
(-2.53616e-12 -3.67412e-12 -1.26878e-11)
(-4.07501e-12 -6.49743e-12 -1.13553e-11)
(-2.02231e-12 -6.91397e-12 -5.64991e-12)
(-2.15008e-12 -5.75606e-12 -1.46195e-13)
(-2.15479e-12 -2.39446e-12 -2.17759e-12)
(-7.47666e-13 -1.34461e-12 -5.20949e-12)
(-1.89836e-12 -1.20489e-12 -5.35333e-12)
(-3.27007e-12 -1.3833e-13 -6.00922e-12)
(-2.2749e-12 -1.88581e-12 -6.36383e-12)
(-2.20025e-12 -4.56086e-13 -4.01398e-12)
(9.64038e-13 -1.33365e-13 -1.67412e-12)
(-5.95815e-13 8.68591e-13 -2.03608e-12)
(-8.58056e-14 5.58166e-13 -5.37558e-12)
(7.85795e-13 1.68019e-12 -4.66529e-12)
(-4.00875e-13 1.63473e-12 -5.52336e-12)
(-2.07977e-12 2.02478e-12 -7.07563e-12)
(-1.83749e-12 8.84151e-14 -7.46838e-12)
(-2.68589e-12 -2.48378e-12 -7.17807e-12)
(-4.65903e-12 -2.08347e-12 -6.16528e-12)
(-2.51245e-12 -2.5467e-12 -6.4065e-12)
(5.9577e-14 -1.25594e-12 -3.50257e-12)
(3.46121e-13 -2.45241e-12 2.89672e-13)
(-3.65315e-13 -1.54373e-13 2.73515e-12)
(-1.54356e-12 8.02869e-13 5.3098e-12)
(8.8217e-13 1.54108e-12 4.95152e-12)
(3.43118e-12 3.20218e-13 -2.25786e-12)
(3.13393e-12 1.2739e-12 -1.24627e-11)
(2.45958e-12 -2.05572e-12 -1.71082e-11)
(1.93042e-12 -6.90286e-13 -1.73699e-11)
(8.218e-13 -8.49067e-13 -1.74439e-11)
(2.37642e-12 -1.89981e-12 -1.70484e-11)
(5.08907e-12 -3.41391e-12 -1.5522e-11)
(5.63429e-12 -5.27639e-12 -1.02193e-11)
(3.80333e-12 -5.61891e-12 -9.02717e-12)
(1.50691e-12 -5.65102e-12 -1.08663e-11)
(7.95893e-13 -5.22708e-12 -1.13449e-11)
(8.54553e-14 -5.59874e-12 -1.23795e-11)
(-7.89555e-13 -5.2345e-12 -1.01837e-11)
(6.09151e-13 -4.70835e-12 -6.50615e-12)
(1.76331e-12 -2.88516e-12 -2.72948e-12)
(3.08405e-13 -1.07084e-12 6.66117e-12)
(1.31884e-12 -1.36517e-12 1.92276e-11)
(9.78682e-13 5.08684e-14 2.78878e-11)
(3.40582e-13 -3.99291e-13 3.17428e-11)
(1.49948e-12 1.06754e-13 3.44745e-11)
(3.53059e-12 -3.93504e-13 3.36222e-11)
(4.59714e-12 -1.74116e-12 3.45612e-11)
(4.19365e-12 -6.6427e-13 3.43193e-11)
(2.74947e-12 3.05597e-14 2.69142e-11)
(-1.46861e-12 -2.19953e-12 2.07693e-11)
(-5.18139e-13 -3.98139e-12 1.31207e-11)
(2.6733e-12 -4.62697e-12 1.0479e-11)
(1.68877e-12 -6.92572e-12 8.8305e-12)
(1.3857e-12 -6.25541e-12 6.23367e-12)
(6.0244e-13 -5.58474e-12 3.47397e-12)
(-1.01786e-12 -5.09569e-12 4.93825e-12)
(-1.06821e-12 -4.72829e-12 6.52459e-12)
(-8.75033e-13 -4.85133e-12 3.07608e-12)
(-1.19149e-12 -3.0347e-12 1.47119e-12)
(4.12675e-13 -1.49681e-12 9.4741e-13)
(-6.84219e-13 1.01048e-14 1.14993e-12)
(-2.65457e-12 2.40919e-12 4.60868e-12)
(-2.16907e-12 4.57632e-13 8.28269e-12)
(-9.10275e-13 -1.74046e-12 4.20614e-12)
(-2.80729e-12 -2.59868e-12 -1.06702e-12)
(-2.01336e-12 -4.43017e-12 -5.87502e-12)
(-2.59221e-12 -3.42165e-12 -1.06405e-11)
(1.04885e-12 -4.10404e-12 -1.29539e-11)
(2.87725e-12 -5.80707e-12 -1.30509e-11)
(1.25861e-12 -4.2692e-12 -1.20672e-11)
(1.3778e-12 -5.24674e-12 -9.4038e-12)
(3.0776e-13 -2.96225e-12 -6.19365e-12)
(1.03962e-12 -2.30414e-12 -1.65659e-12)
(1.97689e-13 -7.09268e-13 -3.08074e-12)
(3.00831e-12 -8.82115e-13 -4.27749e-12)
(6.76872e-12 -1.14831e-12 -8.38586e-12)
(4.70692e-12 -8.35787e-13 -1.1959e-11)
(2.90877e-12 -1.89517e-12 -1.47472e-11)
(4.0857e-12 -1.90785e-12 -1.59426e-11)
(4.19552e-12 -4.49631e-13 -1.29497e-11)
(3.18021e-12 -1.68226e-12 -1.14251e-11)
(3.35261e-12 -1.01149e-12 -8.08153e-12)
(2.79971e-12 -7.26547e-13 -1.02888e-11)
(2.46167e-12 -1.00108e-14 -1.1882e-11)
(2.84608e-12 1.91873e-13 -1.16219e-11)
(9.47301e-13 -1.03736e-12 -1.02894e-11)
(-9.07318e-13 -1.69544e-12 -8.92396e-12)
(-1.22916e-12 -2.10044e-12 -1.02125e-11)
(-2.93751e-12 -8.58137e-13 -9.67444e-12)
(-4.23523e-12 -9.76849e-13 -1.10087e-11)
(-3.07849e-12 -1.16117e-12 -1.17661e-11)
(-1.63683e-12 1.23375e-12 -9.89363e-12)
(-8.1435e-13 1.69349e-12 -1.21134e-11)
(-1.78088e-12 1.2262e-12 -1.45092e-11)
(-1.42797e-12 1.3934e-12 -1.41387e-11)
(-2.18701e-12 1.21436e-13 -1.2697e-11)
(-2.6141e-12 1.48429e-12 -1.04322e-11)
(-5.47003e-13 6.96981e-13 -6.66599e-12)
(3.31233e-13 4.22602e-14 -1.0509e-11)
(-1.97667e-12 -9.48589e-13 -1.59671e-11)
(-7.52688e-13 -1.08685e-12 -1.94789e-11)
(4.25599e-13 -1.92936e-12 -1.61346e-11)
(-1.70331e-12 -5.50688e-12 -1.21729e-11)
(-4.1683e-12 -4.79996e-12 -5.65778e-12)
(-4.07712e-12 -1.40395e-12 -1.50176e-12)
(-2.30774e-12 -1.05034e-12 -7.31004e-13)
(-2.06287e-12 -1.30312e-13 -3.02586e-12)
(-2.83639e-12 1.01854e-12 -3.79856e-12)
(-2.27894e-12 6.91655e-13 -4.09686e-12)
(-2.40649e-12 -4.53394e-13 -4.42261e-12)
(-6.15578e-13 4.84028e-12 -3.77521e-12)
(-1.05939e-12 3.7775e-12 -4.14182e-12)
(9.22879e-14 4.3606e-12 -6.49922e-12)
(6.88201e-13 4.74847e-12 -3.71675e-12)
(-5.53624e-13 6.00811e-12 -4.20879e-12)
(-1.55626e-12 5.36902e-12 -6.17426e-12)
(-1.49788e-12 4.01792e-12 -6.93894e-12)
(-1.60572e-12 2.11607e-12 -7.20237e-12)
(-3.36948e-12 1.5655e-12 -5.80484e-12)
(-2.55826e-12 -4.80405e-14 -4.13951e-12)
(-7.64644e-13 3.6397e-12 -2.5391e-12)
(-2.92989e-13 3.05893e-12 8.24144e-13)
(-6.14968e-13 5.13218e-12 1.79935e-12)
(-2.138e-12 4.47634e-12 3.92034e-12)
(-1.23603e-13 4.79405e-12 1.69581e-12)
(3.42383e-12 3.11331e-12 -3.62063e-12)
(4.49723e-12 3.11843e-12 -1.09691e-11)
(2.38159e-12 8.68895e-13 -1.4035e-11)
(6.87021e-13 3.08111e-12 -1.46057e-11)
(1.1715e-12 1.01617e-12 -1.43768e-11)
(3.90302e-12 1.67139e-13 -1.40255e-11)
(6.4012e-12 -2.07925e-12 -1.22832e-11)
(4.87936e-12 -2.05136e-12 -8.34176e-12)
(3.83225e-12 -9.85314e-13 -5.42758e-12)
(2.62656e-12 -5.56254e-13 -7.86193e-12)
(3.10342e-13 -1.7242e-12 -8.02635e-12)
(-8.96406e-13 -5.68065e-13 -9.57692e-12)
(-1.10098e-12 -1.06822e-12 -9.34808e-12)
(7.37663e-15 2.06909e-12 -6.61737e-12)
(2.59607e-12 2.85613e-12 -2.02638e-12)
(7.90028e-13 3.79022e-12 6.48237e-12)
(5.00662e-13 1.29989e-12 1.7628e-11)
(-7.47448e-14 3.09506e-12 2.76424e-11)
(3.71347e-13 1.14138e-12 3.08772e-11)
(1.64177e-12 3.28757e-12 3.3252e-11)
(3.87802e-12 2.84238e-12 3.33367e-11)
(4.16475e-12 2.59787e-12 3.52968e-11)
(3.44971e-12 1.35497e-12 3.25821e-11)
(3.80018e-12 3.69618e-12 2.48644e-11)
(9.91853e-13 7.07976e-13 1.75029e-11)
(-5.2352e-14 -1.16125e-12 1.20503e-11)
(2.62064e-12 -6.5258e-13 9.85138e-12)
(2.01656e-12 -2.31883e-12 8.80271e-12)
(8.7506e-13 -3.63044e-12 5.88928e-12)
(1.31246e-13 -2.58879e-12 4.33212e-12)
(-1.48288e-12 -1.95916e-12 6.15817e-12)
(-1.39835e-12 -4.76252e-14 6.13824e-12)
(-1.32116e-12 -1.47492e-13 3.75666e-12)
(-1.21278e-12 2.64216e-12 1.99266e-12)
(-7.10923e-13 2.18544e-12 1.02638e-12)
(-1.73953e-12 4.90608e-12 -1.49953e-13)
(-2.09412e-12 3.08581e-12 1.34648e-12)
(-9.37336e-13 4.31499e-12 3.99782e-12)
(-5.95684e-13 1.42405e-12 1.96595e-12)
(-2.92352e-12 9.46211e-13 -2.18373e-12)
(-9.99263e-13 -4.443e-13 -7.36616e-12)
(-1.405e-12 -2.58953e-13 -1.0684e-11)
(8.07279e-13 -2.06685e-12 -1.1029e-11)
(1.69982e-12 -2.62893e-13 -9.32454e-12)
(9.02146e-13 -4.0833e-13 -9.29267e-12)
(1.69101e-12 -1.09862e-13 -8.51541e-12)
(1.33492e-13 1.3423e-13 -6.74931e-12)
(-1.87877e-14 1.83509e-13 -4.8829e-12)
(2.95116e-13 5.87241e-13 -5.76991e-12)
(3.13478e-12 1.86529e-12 -5.0485e-12)
(6.08007e-12 1.69972e-12 -9.70112e-12)
(5.00461e-12 4.34621e-12 -1.24792e-11)
(3.50526e-12 2.01218e-12 -1.40353e-11)
(3.24098e-12 6.73078e-13 -1.48084e-11)
(3.48946e-12 3.40825e-12 -1.33346e-11)
(3.85061e-12 2.81422e-12 -1.06389e-11)
(3.02998e-12 4.23639e-12 -9.48105e-12)
(1.77611e-12 3.3262e-12 -9.64205e-12)
(1.99364e-12 4.65166e-12 -1.1262e-11)
(3.16325e-12 4.27437e-12 -1.22901e-11)
(1.52365e-12 4.56434e-12 -1.04273e-11)
(2.55825e-13 1.63014e-12 -8.70696e-12)
(-4.41265e-13 1.15729e-12 -1.03287e-11)
(-2.95286e-12 7.14022e-13 -9.73375e-12)
(-4.14496e-12 -2.43221e-13 -1.12669e-11)
(-4.44813e-12 2.98261e-13 -1.29032e-11)
(-3.54827e-12 3.61888e-12 -1.2295e-11)
(-9.67307e-13 5.28295e-12 -1.45574e-11)
(-8.68094e-13 5.55903e-12 -1.31894e-11)
(-3.49638e-13 5.19031e-12 -8.20974e-12)
(-1.01449e-12 6.56764e-12 -3.36695e-12)
(-2.46401e-12 3.96344e-12 -2.70023e-12)
(-1.13173e-12 3.45531e-12 -6.11362e-12)
(4.25791e-13 1.3576e-12 -1.2149e-11)
(-1.16122e-12 2.33798e-12 -1.66941e-11)
(-1.53832e-13 1.0635e-12 -1.87433e-11)
(6.99583e-13 2.45369e-12 -1.69271e-11)
(-1.64165e-12 -2.47232e-13 -1.30306e-11)
(-5.14946e-12 1.09266e-12 -7.59987e-12)
(-5.30981e-12 1.22908e-12 -3.60512e-12)
(-3.3603e-12 1.67305e-12 -2.57005e-12)
(-2.84478e-12 3.82228e-12 -3.12999e-12)
(-2.49639e-12 6.05225e-12 -3.57534e-12)
(-1.71309e-12 4.72184e-12 -4.18362e-12)
(-1.48376e-12 4.13856e-12 -2.11886e-12)
(-2.69458e-13 1.22504e-12 -4.08224e-12)
(-4.7977e-13 2.11727e-12 -3.60139e-12)
(-2.02015e-13 2.01963e-12 -2.69055e-12)
(-9.23825e-13 2.53265e-12 -3.35896e-12)
(-1.14149e-12 9.07035e-13 -4.43684e-12)
(-4.95255e-13 2.38541e-13 -6.37446e-12)
(-1.50564e-12 -6.37572e-13 -7.79468e-12)
(-2.72533e-12 -6.205e-13 -6.458e-12)
(-3.17647e-12 -1.71404e-12 -4.83128e-12)
(-1.47813e-12 1.20371e-12 -2.72678e-12)
(-4.20685e-13 3.20897e-13 5.30749e-13)
(-5.56426e-13 1.32186e-12 4.59767e-13)
(-1.71384e-12 2.09596e-12 7.68937e-13)
(1.76679e-13 9.17251e-13 -2.82301e-13)
(3.75876e-12 -3.24647e-14 -3.34938e-12)
(4.53092e-12 -2.28375e-13 -9.33291e-12)
(2.25497e-12 -1.30391e-12 -1.04123e-11)
(1.43218e-12 -4.55986e-13 -1.20131e-11)
(2.12461e-12 -2.1278e-12 -1.12215e-11)
(3.98324e-12 -3.4234e-12 -1.127e-11)
(6.30751e-12 -3.06353e-12 -9.81518e-12)
(4.72601e-12 -3.58059e-12 -6.34773e-12)
(3.19495e-12 -2.1975e-12 -2.1037e-12)
(2.45402e-12 -1.53772e-12 -3.62566e-12)
(6.36743e-13 -1.26283e-12 -3.43309e-12)
(-9.30486e-13 2.56051e-13 -4.89172e-12)
(-1.73242e-12 -4.17319e-13 -7.50644e-12)
(-1.27402e-12 -1.32531e-12 -5.74975e-12)
(1.02322e-12 1.54198e-12 -2.82548e-12)
(2.19767e-12 3.94177e-12 5.45709e-12)
(3.00108e-12 2.19985e-12 1.62659e-11)
(1.79304e-12 3.03187e-13 2.69649e-11)
(7.01231e-14 -1.7808e-12 3.09778e-11)
(1.03502e-12 -2.02285e-12 3.33236e-11)
(4.33321e-12 -9.78538e-13 3.2793e-11)
(5.27106e-12 -1.42819e-12 3.44576e-11)
(3.34249e-12 -2.64977e-12 3.0332e-11)
(3.43939e-12 -1.76926e-13 2.09728e-11)
(2.00065e-12 -1.07235e-12 1.19147e-11)
(1.05683e-13 -2.72266e-12 9.41362e-12)
(2.47369e-12 -3.446e-12 8.06684e-12)
(3.02409e-12 -3.38185e-12 6.96169e-12)
(1.29391e-12 -4.81964e-12 5.75443e-12)
(-1.63681e-13 -3.70557e-12 4.97566e-12)
(-2.04632e-12 -4.34169e-12 6.3738e-12)
(-1.81606e-12 -4.3202e-12 6.04275e-12)
(-2.01793e-12 -3.42264e-12 4.97642e-12)
(-1.29296e-12 -1.33845e-12 2.56327e-12)
(-9.63862e-13 -5.44884e-13 4.28039e-13)
(-1.54714e-12 9.62368e-15 -8.65428e-14)
(-2.04514e-12 -4.5887e-13 1.19328e-12)
(-1.1552e-12 -7.2101e-13 2.46785e-12)
(3.18305e-13 -2.6603e-14 6.11013e-13)
(-1.71394e-12 -4.99088e-13 -4.00061e-12)
(-1.9307e-12 -2.39062e-12 -9.23341e-12)
(-6.55677e-13 -1.69478e-12 -1.09947e-11)
(8.94335e-13 -3.35203e-12 -1.01408e-11)
(9.8702e-13 -1.60942e-12 -9.28611e-12)
(1.08666e-12 -2.65342e-12 -7.3085e-12)
(1.10673e-12 -1.93815e-12 -8.48317e-12)
(5.6749e-13 -1.14747e-12 -8.09829e-12)
(3.42345e-13 -1.44795e-12 -7.83317e-12)
(-2.95933e-13 -2.27973e-12 -8.39766e-12)
(2.18698e-12 -7.77075e-13 -8.36061e-12)
(4.8771e-12 4.20092e-15 -9.36395e-12)
(4.45186e-12 2.52914e-12 -1.20572e-11)
(5.07783e-12 2.74204e-12 -1.38756e-11)
(2.75025e-12 2.09643e-12 -1.34782e-11)
(3.08944e-12 1.45571e-12 -1.1874e-11)
(2.70896e-12 2.06292e-12 -9.22932e-12)
(2.92287e-12 3.42397e-12 -9.00767e-12)
(2.73375e-12 2.7909e-12 -7.44087e-12)
(2.23054e-12 2.39478e-12 -1.0414e-11)
(2.72675e-12 1.33577e-12 -1.19867e-11)
(2.10725e-12 1.73661e-12 -1.01971e-11)
(1.38739e-12 6.78488e-13 -8.32213e-12)
(-5.21595e-13 1.53557e-12 -8.49399e-12)
(-2.00957e-12 1.79895e-12 -7.56593e-12)
(-4.00258e-12 4.02669e-13 -1.0093e-11)
(-6.24744e-12 1.98939e-12 -1.22835e-11)
(-4.21718e-12 1.8508e-12 -1.32058e-11)
(-1.10327e-12 2.10958e-12 -1.6006e-11)
(1.44436e-15 3.04153e-12 -1.13908e-11)
(-1.23253e-12 2.48555e-12 -3.22392e-12)
(-5.14568e-13 2.60375e-12 3.02294e-12)
(-8.87581e-13 1.17068e-12 1.83562e-12)
(-3.8375e-13 1.50885e-12 -4.11499e-12)
(3.27555e-13 -6.48221e-13 -1.16922e-11)
(-1.64033e-12 1.67375e-12 -1.69993e-11)
(-7.32177e-13 1.22667e-12 -1.95488e-11)
(8.5232e-13 1.10109e-12 -1.78963e-11)
(-3.82267e-13 9.66731e-13 -1.44339e-11)
(-4.02712e-12 1.37785e-12 -8.97138e-12)
(-4.71307e-12 -1.72174e-13 -3.88418e-12)
(-4.97224e-12 8.31094e-13 -4.2166e-12)
(-4.356e-12 1.8409e-12 -2.79351e-12)
(-2.32723e-12 1.94744e-12 -2.90689e-12)
(-7.21604e-13 -4.97651e-14 -2.54799e-12)
(-1.64861e-12 1.53626e-13 -3.87848e-12)
(4.94707e-14 2.87603e-13 -3.61937e-12)
(3.48627e-13 1.05035e-12 -1.21681e-12)
(-8.08229e-14 1.48948e-12 -1.47601e-12)
(-1.77742e-13 -8.62565e-14 -1.72996e-12)
(-7.60889e-13 -1.10261e-12 -3.8758e-12)
(-1.56125e-12 -1.25004e-12 -5.94011e-12)
(-1.83379e-12 -6.20745e-13 -4.8108e-12)
(-3.39794e-12 -1.40533e-12 -2.87811e-12)
(-2.47613e-12 -4.2e-13 -3.46211e-12)
(-6.38782e-13 2.50265e-13 -1.18291e-12)
(-2.25374e-12 1.0036e-12 -2.31144e-12)
(-1.6962e-12 2.45373e-12 -3.42502e-12)
(1.99462e-12 1.37599e-12 -3.43723e-12)
(3.68571e-12 2.12366e-12 -3.37065e-12)
(4.14565e-12 4.31254e-13 -5.99218e-12)
(2.06858e-12 1.05557e-12 -6.26144e-12)
(1.26752e-12 -4.54937e-13 -7.93258e-12)
(3.85865e-12 -7.01969e-13 -6.98439e-12)
(5.24324e-12 -2.26405e-12 -7.75076e-12)
(6.44045e-12 -1.11195e-12 -8.66117e-12)
(4.44697e-12 -1.28606e-12 -4.65311e-12)
(1.56431e-12 6.76847e-13 -5.94216e-13)
(1.62806e-12 7.70573e-13 -1.16163e-12)
(-1.83533e-13 1.33671e-12 -1.01046e-12)
(-1.06436e-12 1.72988e-12 -5.03736e-12)
(-5.26956e-14 2.14818e-13 -9.40137e-12)
(-9.30139e-13 -1.18211e-12 -4.96509e-12)
(-7.08174e-13 -7.058e-13 -1.44255e-12)
(1.61559e-12 9.03763e-13 4.90083e-12)
(4.13448e-12 1.47009e-12 1.46715e-11)
(3.76768e-12 -1.88742e-12 2.51606e-11)
(1.69993e-12 -1.15529e-12 3.03648e-11)
(7.8931e-13 -3.76169e-12 3.35438e-11)
(3.32371e-12 -3.63211e-12 2.94909e-11)
(6.38369e-12 -4.2249e-12 2.91299e-11)
(1.45667e-12 -1.63375e-12 2.63457e-11)
(6.0673e-13 -1.54683e-12 1.44631e-11)
(2.49876e-12 -1.06953e-13 6.6793e-12)
(2.29743e-12 -2.48653e-12 6.03743e-12)
(2.70135e-12 -3.42634e-12 4.13094e-12)
(2.91552e-12 -2.12418e-12 5.63547e-12)
(1.45266e-12 -2.42705e-12 5.20611e-12)
(4.19658e-14 -2.02818e-12 6.1699e-12)
(-9.86942e-13 -2.64307e-12 7.95727e-12)
(-2.13805e-12 -3.21454e-12 6.65796e-12)
(-3.44781e-12 -2.53409e-12 7.1592e-12)
(-3.30682e-12 -3.17363e-12 3.65848e-12)
(-1.83109e-12 -1.70511e-12 -5.68273e-13)
(-1.84885e-12 -2.60945e-12 7.83133e-13)
(-8.17558e-13 -1.34049e-12 3.45648e-12)
(-1.18811e-12 -3.06462e-12 5.26141e-12)
(-1.2742e-12 -3.65619e-13 1.51765e-12)
(-8.70994e-13 -2.0103e-13 -6.16019e-12)
(-8.19065e-13 -2.91125e-13 -1.27177e-11)
(-2.66073e-13 -2.11339e-12 -1.28663e-11)
(4.10378e-13 -1.08156e-12 -1.22769e-11)
(1.20061e-12 -5.24569e-13 -1.21457e-11)
(1.25954e-12 -4.29799e-13 -9.1929e-12)
(4.12375e-13 -5.28622e-13 -9.65143e-12)
(-3.20054e-13 -1.75886e-12 -9.67846e-12)
(1.07063e-12 -2.22935e-12 -9.55991e-12)
(1.95116e-13 -1.14303e-12 -9.14605e-12)
(1.77103e-12 -1.17612e-12 -1.08136e-11)
(4.10971e-12 2.03705e-12 -1.16352e-11)
(3.17484e-12 2.63898e-12 -1.33106e-11)
(4.01572e-12 3.79708e-12 -1.42842e-11)
(3.47472e-12 4.36129e-12 -1.34968e-11)
(3.10193e-12 3.29068e-12 -1.0759e-11)
(2.14001e-12 3.42148e-12 -8.97699e-12)
(2.16548e-12 2.41793e-12 -9.2373e-12)
(2.88435e-12 2.5712e-12 -8.98398e-12)
(3.29174e-12 1.95816e-12 -9.85922e-12)
(3.484e-12 2.04611e-12 -1.09627e-11)
(2.45787e-12 1.88878e-12 -9.26553e-12)
(7.72831e-13 3.94059e-12 -6.44027e-12)
(-1.08677e-12 5.79121e-12 -7.85933e-12)
(-1.68173e-12 5.70981e-12 -7.52998e-12)
(-4.01508e-12 5.10043e-12 -9.83144e-12)
(-5.68955e-12 4.06857e-12 -1.27379e-11)
(-3.28581e-12 2.28691e-12 -1.29503e-11)
(-1.60775e-12 8.31475e-13 -1.4098e-11)
(-2.66003e-12 1.82565e-12 -9.79422e-12)
(-1.26395e-12 3.52961e-12 1.68446e-13)
(3.70024e-13 2.17854e-12 6.36537e-12)
(-1.08976e-12 3.18004e-12 5.21508e-12)
(3.3596e-13 2.50495e-12 -2.07666e-12)
(-1.06327e-13 3.03359e-12 -1.17308e-11)
(-2.39281e-12 3.44499e-12 -1.75076e-11)
(-4.00179e-14 2.94524e-12 -1.89602e-11)
(6.31236e-13 3.43252e-12 -1.86352e-11)
(-1.72479e-12 2.75296e-12 -1.54753e-11)
(-3.31805e-12 3.27222e-12 -9.59743e-12)
(-4.55541e-12 2.21243e-12 -4.73992e-12)
(-5.30874e-12 3.19787e-12 -5.28893e-12)
(-3.62221e-12 2.00815e-12 -4.0085e-12)
(-4.41858e-13 -1.24881e-13 -1.85439e-12)
(9.85896e-13 -4.13391e-13 1.2041e-12)
(-2.05489e-12 -3.76072e-12 -3.27291e-12)
(-6.13838e-13 -3.17877e-12 -1.42494e-12)
(-6.59186e-13 -2.38226e-12 -5.92298e-13)
(-1.57091e-13 -1.03543e-12 -1.13292e-12)
(3.93396e-13 -2.57575e-12 -1.2308e-12)
(4.17759e-13 -3.40026e-12 -3.40584e-12)
(-1.57525e-12 -3.81063e-12 -5.47395e-12)
(-2.00543e-12 -2.63862e-12 -4.48581e-12)
(-3.17641e-12 -2.48707e-12 -3.82674e-12)
(-2.71859e-12 -2.89259e-12 -4.12787e-12)
(-1.59588e-12 5.82402e-13 -4.47477e-12)
(-2.75959e-12 7.28789e-13 -4.88072e-12)
(-1.59895e-12 2.89517e-12 -5.69717e-12)
(1.09418e-12 1.59269e-12 -5.87367e-12)
(3.93875e-12 3.17029e-12 -5.8047e-12)
(5.16182e-12 2.72363e-12 -4.69209e-12)
(3.01911e-12 -8.56315e-13 -4.33505e-12)
(2.76107e-12 -4.28402e-12 -3.14486e-12)
(3.94382e-12 -4.81912e-12 -3.7426e-12)
(4.41437e-12 -4.14827e-12 -4.07771e-12)
(4.76332e-12 -3.11644e-12 -4.52289e-12)
(2.65206e-12 -1.34753e-12 -2.88675e-12)
(1.52116e-12 -1.20561e-12 -7.71089e-13)
(2.01003e-12 -1.28984e-12 -1.15655e-12)
(4.00293e-13 -6.64462e-13 -1.96087e-12)
(6.00671e-14 -2.42336e-13 -4.80111e-12)
(2.2867e-14 -2.41838e-12 -7.70857e-12)
(-7.60344e-13 -1.72412e-12 -5.24827e-12)
(7.48505e-14 -3.82465e-12 -2.33588e-12)
(1.65446e-12 -6.87034e-13 2.93787e-12)
(4.99829e-12 -2.45802e-12 1.35322e-11)
(3.65055e-12 -2.55849e-12 2.7059e-11)
(1.16067e-12 -1.47822e-12 3.35788e-11)
(1.33597e-12 -3.09792e-12 3.32881e-11)
(4.32202e-12 -7.16431e-12 2.93009e-11)
(6.16326e-12 -7.17004e-12 2.30606e-11)
(7.47955e-13 -4.34272e-12 1.86727e-11)
(-2.99456e-13 -5.06046e-12 9.84579e-12)
(2.46255e-12 -2.45658e-12 6.38504e-12)
(3.37063e-12 -3.97425e-12 4.85287e-12)
(1.97183e-12 -4.60222e-12 3.40549e-12)
(2.29857e-12 -3.30631e-12 4.74558e-12)
(1.4538e-12 -3.03919e-12 4.94121e-12)
(2.56257e-13 -3.30321e-12 5.66657e-12)
(-9.26035e-13 -2.90787e-12 6.28179e-12)
(-2.28708e-12 -2.46268e-12 5.66184e-12)
(-2.56351e-12 -2.48917e-12 5.18274e-12)
(-2.51922e-12 -4.53615e-12 3.89541e-12)
(-2.02881e-12 -3.75629e-12 1.95318e-12)
(-1.89956e-12 -1.87187e-12 3.37299e-12)
(-1.00308e-12 -3.7455e-12 6.00831e-12)
(-1.55092e-12 -4.85529e-12 6.19602e-12)
(-1.18624e-12 -3.0994e-12 2.50169e-12)
(-1.13931e-12 -1.35886e-12 -6.56852e-12)
(-5.03302e-13 -1.23398e-12 -1.41676e-11)
(-1.8588e-13 -6.79983e-13 -1.36538e-11)
(-6.73644e-13 -1.6227e-12 -1.37833e-11)
(-9.17278e-14 1.49534e-14 -1.52371e-11)
(-1.01761e-13 -8.41348e-13 -1.29779e-11)
(1.05179e-12 -9.5543e-13 -1.09417e-11)
(1.62026e-12 -2.49842e-12 -1.05261e-11)
(-2.05267e-13 -3.49578e-12 -1.01029e-11)
(-6.99918e-13 -2.6424e-12 -1.00577e-11)
(1.18378e-12 -2.39953e-12 -1.12385e-11)
(1.57933e-12 1.54579e-12 -1.33017e-11)
(3.15833e-12 4.27549e-12 -1.57404e-11)
(3.76626e-12 1.9964e-12 -1.49088e-11)
(2.95819e-12 2.906e-12 -1.36577e-11)
(2.71517e-12 2.61321e-12 -1.08023e-11)
(2.7082e-12 1.86107e-12 -8.95253e-12)
(3.53521e-12 8.06219e-13 -9.14878e-12)
(2.94492e-12 -1.2368e-14 -9.05117e-12)
(2.53926e-12 1.69518e-13 -9.28984e-12)
(3.61457e-12 6.63539e-13 -9.38818e-12)
(1.89576e-12 1.92255e-12 -8.05598e-12)
(-1.47194e-12 4.58687e-12 -7.37719e-12)
(-1.39388e-12 4.91649e-12 -7.76349e-12)
(-1.0999e-12 4.50623e-12 -8.19879e-12)
(-2.94308e-12 4.54322e-12 -1.07458e-11)
(-4.19858e-12 2.24261e-12 -1.40821e-11)
(-2.53405e-12 2.0841e-12 -1.25868e-11)
(-7.43558e-14 1.13441e-13 -9.49885e-12)
(-3.33532e-12 -5.01729e-14 -3.80744e-12)
(-1.562e-12 4.03499e-13 1.39381e-12)
(-5.43321e-13 1.9876e-12 6.27566e-12)
(-1.51523e-12 1.68478e-12 4.58884e-12)
(-1.53565e-14 1.74567e-12 -1.85514e-12)
(-6.33193e-13 4.15775e-12 -1.14173e-11)
(-1.44636e-12 4.45322e-12 -1.85016e-11)
(-8.46193e-13 2.57842e-12 -1.90804e-11)
(4.28415e-13 3.57445e-12 -2.07284e-11)
(-1.08833e-12 1.90207e-12 -1.6146e-11)
(-2.88912e-12 1.5279e-12 -1.04478e-11)
(-4.29416e-12 1.12309e-12 -6.43013e-12)
(-4.96586e-12 1.08369e-12 -5.5737e-12)
(-2.16709e-12 2.21385e-12 -4.19851e-12)
(-2.56805e-13 -5.9354e-13 -1.45141e-12)
(-6.00186e-13 -2.60376e-13 2.69443e-12)
(-1.66391e-12 -1.53978e-12 -2.90163e-12)
(-7.42039e-13 -2.36189e-12 1.27582e-12)
(-1.83652e-12 -2.02705e-12 1.00381e-12)
(-1.4352e-13 -1.09761e-12 1.27021e-12)
(1.7765e-12 -1.24565e-12 -9.67114e-13)
(6.20655e-13 -3.07622e-13 -3.02553e-12)
(-9.23395e-13 -1.31561e-12 -3.9767e-12)
(-2.2945e-12 -5.54608e-13 -4.61552e-12)
(-2.30768e-12 1.12593e-12 -5.10181e-12)
(-4.63029e-12 3.53711e-13 -5.29386e-12)
(-3.73617e-12 5.90098e-13 -5.66059e-12)
(-4.17714e-12 6.72061e-14 -6.15341e-12)
(-2.02896e-12 -4.24233e-13 -6.27086e-12)
(1.99806e-12 6.04526e-13 -6.47132e-12)
(2.47683e-12 1.59093e-12 -7.22659e-12)
(6.26489e-12 1.15706e-12 -3.14284e-12)
(6.06913e-12 -1.05786e-12 -1.02762e-12)
(4.09017e-12 -1.16202e-12 1.6512e-12)
(3.53128e-12 -1.80101e-12 4.70571e-13)
(2.70251e-12 -8.73894e-13 -4.38919e-14)
(3.96476e-12 -6.85142e-13 -1.95394e-13)
(4.02489e-12 1.10773e-12 -1.11588e-13)
(3.39149e-12 6.57716e-13 9.84764e-13)
(1.09043e-12 5.79055e-13 1.95088e-13)
(-1.61151e-12 1.50392e-12 -1.76448e-12)
(3.12461e-13 2.69556e-12 -2.8713e-12)
(1.41972e-12 -3.72618e-14 -3.42656e-12)
(5.01424e-14 -1.58261e-12 -1.88205e-12)
(-1.30143e-12 -1.82438e-12 -9.71248e-13)
(-5.92749e-14 -3.72557e-13 1.78554e-12)
(4.73947e-12 -2.63237e-12 1.00484e-11)
(3.42362e-12 -8.36485e-13 2.7729e-11)
(1.22763e-12 1.61741e-13 3.79187e-11)
(3.55785e-12 -1.53079e-12 3.304e-11)
(6.2815e-12 -4.07735e-12 2.83994e-11)
(3.84962e-12 -3.17701e-12 1.97108e-11)
(2.8021e-13 -2.50722e-12 1.11162e-11)
(-4.45569e-13 -2.37855e-12 6.07181e-12)
(1.9353e-12 -1.8054e-12 4.34086e-12)
(3.64219e-12 -7.19161e-13 3.59592e-12)
(2.60913e-12 -9.90254e-13 3.64742e-12)
(2.46746e-12 -9.7955e-13 4.10482e-12)
(2.54783e-12 -1.04426e-12 4.41179e-12)
(6.83491e-13 -1.97728e-12 4.7798e-12)
(-1.92048e-12 -1.21075e-12 5.1612e-12)
(-3.38601e-12 -1.63083e-12 5.02979e-12)
(-2.14699e-12 -2.18241e-12 4.18181e-12)
(-1.99058e-12 -3.9081e-12 3.57006e-12)
(-4.01556e-12 -4.64377e-12 3.05887e-12)
(-2.11402e-12 -3.34983e-12 6.00692e-12)
(1.11078e-12 -3.86262e-12 6.67549e-12)
(-9.3155e-13 -2.68868e-12 7.27847e-12)
(-3.54951e-12 -2.51188e-12 3.52565e-12)
(-2.83167e-12 1.0073e-12 -4.6933e-12)
(-2.4268e-12 2.51924e-13 -1.19544e-11)
(-3.2314e-13 7.22363e-13 -1.20666e-11)
(-2.07976e-14 -6.2747e-13 -1.28241e-11)
(-7.10977e-13 -2.83694e-13 -1.85905e-11)
(1.04811e-12 1.70066e-12 -1.54988e-11)
(1.91201e-13 1.59546e-12 -1.29168e-11)
(7.93134e-13 3.39569e-12 -1.24201e-11)
(1.51313e-12 2.89225e-12 -1.06388e-11)
(1.33059e-13 1.17214e-12 -1.03381e-11)
(-8.72014e-13 1.56745e-12 -1.09455e-11)
(-1.05082e-12 1.81403e-12 -1.29047e-11)
(3.50944e-12 2.47323e-12 -1.55628e-11)
(5.34635e-12 1.99743e-12 -1.29338e-11)
(3.0377e-12 2.33727e-12 -1.14093e-11)
(3.71698e-12 2.80296e-12 -9.21983e-12)
(2.32963e-12 3.48151e-12 -8.07655e-12)
(2.51931e-12 4.54979e-12 -8.03135e-12)
(2.77903e-12 4.53825e-12 -7.69127e-12)
(2.79618e-12 3.79451e-12 -7.40734e-12)
(2.6503e-12 3.73341e-12 -6.92239e-12)
(6.87153e-13 5.17588e-12 -6.53771e-12)
(5.0726e-14 4.97325e-12 -6.58318e-12)
(-4.54288e-14 5.13417e-12 -7.1792e-12)
(-1.75218e-12 4.52525e-12 -7.90836e-12)
(-2.9456e-12 4.89381e-12 -1.02106e-11)
(-4.47089e-12 3.9764e-12 -1.27922e-11)
(-3.69619e-12 3.48449e-12 -1.2861e-11)
(-3.83319e-13 4.54796e-12 -5.98832e-12)
(-8.9302e-13 5.62621e-12 1.95852e-12)
(-2.32033e-12 3.89137e-12 4.46492e-12)
(-1.22837e-12 4.84582e-12 6.52583e-12)
(-3.36905e-13 4.53896e-12 3.23466e-12)
(-1.89104e-12 3.51201e-12 -2.71597e-12)
(-1.94545e-12 4.42579e-12 -1.20825e-11)
(-8.44853e-13 4.28933e-12 -2.01013e-11)
(9.18585e-14 4.02879e-12 -1.9469e-11)
(7.78129e-13 3.825e-12 -1.97162e-11)
(9.91822e-13 5.60655e-12 -1.63761e-11)
(-1.43884e-12 5.43363e-12 -1.16306e-11)
(-4.83037e-12 3.99695e-12 -7.63221e-12)
(-6.67686e-12 2.31332e-12 -5.66339e-12)
(-3.15797e-12 2.45378e-12 -3.86952e-12)
(4.85056e-13 3.1841e-12 -1.08237e-12)
(-1.72529e-12 2.57851e-12 2.37436e-12)
(-5.34834e-14 7.78693e-12 -3.65429e-12)
(-4.51005e-13 7.16391e-12 1.93457e-14)
(-1.99443e-12 8.00074e-12 7.20916e-14)
(-6.83755e-13 7.63022e-12 -8.15783e-13)
(3.83686e-13 9.3741e-12 -3.21579e-12)
(1.81966e-13 1.07947e-11 -6.648e-12)
(-4.13689e-13 8.06085e-12 -5.57268e-12)
(-3.216e-12 8.02621e-12 -5.40157e-12)
(-2.89363e-12 8.82491e-12 -5.83598e-12)
(-2.2377e-12 1.15407e-11 -5.6479e-12)
(-2.00696e-12 8.28044e-12 -5.77262e-12)
(-1.63134e-12 6.88145e-12 -6.40363e-12)
(-1.58674e-12 5.06686e-12 -5.60201e-12)
(-9.76895e-13 6.74781e-12 -5.48059e-12)
(3.457e-12 5.5873e-12 -4.15008e-12)
(6.11251e-12 5.05586e-12 -1.594e-13)
(3.78645e-12 7.02244e-12 -8.92398e-14)
(3.43733e-12 8.6665e-12 1.10218e-12)
(2.98524e-12 9.58216e-12 7.41555e-13)
(2.5335e-12 1.05074e-11 -3.18803e-13)
(2.65455e-12 9.64791e-12 -9.65666e-14)
(2.21566e-12 1.10071e-11 -5.78981e-14)
(3.09005e-12 1.06222e-11 -1.39726e-13)
(1.95112e-12 1.02945e-11 -1.0913e-12)
(-1.26429e-12 1.12003e-11 -2.0365e-12)
(9.31698e-13 1.00018e-11 -2.53286e-12)
(3.20923e-12 9.7986e-12 -2.21542e-12)
(1.14382e-12 8.36725e-12 -1.34761e-12)
(-1.37242e-13 9.30629e-12 -1.04546e-12)
(1.28767e-12 7.8381e-12 -1.30218e-13)
(3.79396e-12 4.67222e-12 6.94037e-12)
(1.59939e-12 6.70104e-12 1.88453e-11)
(2.00486e-12 6.92853e-12 2.55208e-11)
(3.619e-12 8.21758e-12 2.3094e-11)
(4.6865e-12 7.04854e-12 1.88977e-11)
(3.39194e-12 7.95224e-12 1.33079e-11)
(1.06323e-12 8.76346e-12 7.97657e-12)
(9.52085e-13 1.00122e-11 4.62476e-12)
(1.18238e-12 9.0812e-12 3.16898e-12)
(2.5707e-12 1.0709e-11 2.53152e-12)
(2.17113e-12 9.31138e-12 3.05744e-12)
(2.06851e-12 7.35498e-12 3.7767e-12)
(2.79075e-12 7.40344e-12 4.06877e-12)
(9.70593e-13 7.05131e-12 4.56633e-12)
(-1.44037e-12 6.84479e-12 5.19697e-12)
(-1.78509e-12 5.06617e-12 5.59404e-12)