/*--------------------------------*- C++ -*----------------------------------*\
| =========                 |                                                 |
| \\      /  F ield         | OpenFOAM: The Open Source CFD Toolbox           |
|  \\    /   O peration     | Version:  2406                                  |
|   \\  /    A nd           | Website:  www.openfoam.com                      |
|    \\/     M anipulation  |                                                 |
\*---------------------------------------------------------------------------*/
FoamFile
{
    version     2.0;
    format      ascii;
    arch        "LSB;label=32;scalar=64";
    class       volScalarField;
    location    "0.055";
    object      Ma;
}
// * * * * * * * * * * * * * * * * * * * * * * * * * * * * * * * * * * * * * //

dimensions      [0 0 0 0 0 0 0];

internalField   nonuniform List<scalar> 
83682
(
1.132
1.132
1.132
1.132
1.132
1.132
1.132
1.132
1.132
1.132
1.132
1.132
1.132
1.132
1.132
1.132
1.132
1.132
1.132
1.132
1.132
1.132
1.132
1.132
1.132
1.132
1.132
1.13199
1.13162
1.12281
1.05937
1.02047
1.01915
1.01906
1.01899
1.01895
1.01894
1.01897
1.019
1.01902
1.01901
1.01898
1.01892
1.01887
1.01883
1.0188
1.01881
1.01885
1.01891
1.01895
1.019
1.01904
1.01905
1.01905
1.01906
1.01908
1.0191
1.01913
1.01916
1.01918
1.01918
1.01918
1.01917
1.01915
1.01913
1.01911
1.01911
1.01911
1.0191
1.0191
1.0191
1.01909
1.01908
1.01906
1.01905
1.01903
1.01903
1.01903
1.01904
1.01904
1.01905
1.01907
1.01907
1.01907
1.01907
1.01907
1.01906
1.01905
1.01905
1.01905
1.01905
1.01906
1.01908
1.0191
1.0191
1.01911
1.01912
1.01911
1.0191
1.0191
1.0191
1.0191
1.01911
1.01913
1.01914
1.01914
1.01914
1.01913
1.01912
1.01909
1.01908
1.01907
1.01907
1.01907
1.01907
1.01908
1.01908
1.01907
1.01906
1.01906
1.01905
1.01905
1.01906
1.01907
1.01909
1.0191
1.01911
1.01911
1.01911
1.0191
1.01909
1.01908
1.01908
1.01908
1.01908
1.01908
1.01908
1.01908
1.01908
1.01908
1.01908
1.01908
1.01908
1.01909
1.01909
1.01909
1.0191
1.01911
1.01911
1.01911
1.01912
1.01912
1.01911
1.0191
1.01909
1.01908
1.01906
1.01906
1.01906
1.01907
1.01907
1.01907
1.01908
1.01907
1.01903
1.01894
1.01895
1.01908
1.01955
1.02055
1.02207
1.02395
1.02598
1.02801
1.0299
1.03159
1.03299
1.03391
1.03407
1.03403
1.03392
1.03379
1.03365
1.03367
1.03371
1.03377
1.03372
1.0337
1.03367
1.03363
1.03358
1.03346
1.03316
1.03252
1.03137
1.02983
1.02832
1.02714
1.02626
1.02557
1.02496
1.02442
1.02392
1.02346
1.02304
1.02267
1.02234
1.02206
1.02184
1.02166
1.02152
1.02141
1.02134
1.02128
1.02124
1.02119
1.02115
1.02111
1.02106
1.02102
1.02097
1.02092
1.02087
1.02082
1.02076
1.02071
1.02065
1.02059
1.02054
1.0205
1.02048
1.02047
1.02046
1.02046
1.02046
1.02047
1.02047
1.02047
1.02046
1.02046
1.02045
1.02044
1.02042
1.02041
1.02039
1.02037
1.02035
1.02033
1.0203
1.02028
1.02026
1.02025
1.02024
1.02023
1.02022
1.02023
1.02023
1.02023
1.02023
1.02023
1.02022
1.02021
1.02021
1.0202
1.02019
1.02018
1.02016
1.02014
1.02012
1.0201
1.02008
1.02006
1.02005
1.02003
1.02001
1.02
1.01999
1.01998
1.01997
1.01997
1.01997
1.01996
1.01995
1.01993
1.01992
1.0199
1.01989
1.01988
1.01986
1.01985
1.01983
1.01982
1.01982
1.01981
1.0198
1.0198
1.01979
1.01979
1.01979
1.01979
1.01978
1.01978
1.01978
1.01978
1.01978
1.01978
1.01979
1.01978
1.01977
1.01976
1.01975
1.01973
1.01971
1.0197
1.01969
1.01968
1.01967
1.01966
1.01965
1.01965
1.01964
1.01964
1.01965
1.01965
1.01965
1.01964
1.01963
1.01963
1.01963
1.01962
1.01962
1.01961
1.0196
1.01958
1.01957
1.01956
1.01956
1.01955
1.01955
1.01956
1.01957
1.01959
1.01959
1.0196
1.0196
1.0196
1.01961
1.01961
1.01962
1.01963
1.01963
1.01962
1.01962
1.01962
1.01961
1.0196
1.0196
1.0196
1.0196
1.01959
1.01958
1.01958
1.01957
1.01956
1.01956
1.01956
1.01956
1.01956
1.01956
1.01956
1.01956
1.01955
1.01955
1.01955
1.01954
1.01953
1.0195
1.0195
1.01949
1.01947
1.01946
1.01945
1.01945
1.01944
1.01941
1.01938
1.01935
1.01932
1.01925
1.01914
1.019
1.01876
1.01841
1.01791
1.01718
1.01612
1.01461
1.01251
1.00961
1.00569
1.00043
0.993492
0.984573
0.973323
0.959449
0.942784
0.923315
0.901273
0.877127
0.851851
0.826834
0.803948
0.785295
0.773117
0.767745
0.76606
0.765531
0.765461
0.765466
0.765522
0.765656
0.765871
0.766144
0.76644
0.766595
0.766587
0.766526
0.766421
0.766332
0.7663
0.766296
0.766317
0.76637
0.766418
0.766431
0.766427
0.766397
0.766323
0.766227
0.766173
0.766169
0.766181
0.766218
0.766286
0.766364
0.766411
0.766416
0.766406
0.766372
0.766313
0.766252
0.766216
0.766208
0.766212
0.766227
0.766253
0.76627
0.76627
0.766263
0.76624
0.766199
0.766155
0.766137
0.766136
0.766141
0.76616
0.766189
0.766214
0.766219
0.766216
0.766205
0.766184
0.766158
0.766138
0.766133
0.766136
0.766148
0.766171
0.766202
0.766227
0.766238
0.766245
0.766247
0.766246
0.766245
0.766246
0.766249
0.766258
0.766273
0.766292
0.766313
0.766331
0.76635
0.766374
0.766404
0.76644
0.766476
0.766499
0.766517
0.76654
0.766563
0.766574
0.766575
0.76657
0.766555
0.766531
0.7665
0.766467
0.766437
0.766414
0.7664
0.766394
0.766391
0.766388
0.766382
0.766371
0.766356
0.766338
0.766321
0.766309
0.766304
0.766303
0.766303
0.766303
0.766304
0.766303
0.7663
0.766292
0.766281
0.76627
0.766264
0.766262
0.766262
0.766262
0.766261
0.766259
0.766255
0.766248
0.766237
0.766223
0.766207
0.766191
0.766179
0.766172
0.766168
0.766166
0.766164
0.766161
0.766156
0.766148
0.766137
0.766126
0.76612
0.766118
0.766116
0.766115
0.766114
0.766113
0.766111
0.766108
0.766104
0.766097
0.766089
0.76608
0.766073
0.766068
0.766066
0.766065
0.766064
0.766062
0.766059
0.766053
0.766045
0.766034
0.766021
0.766009
0.766
0.765994
0.76599
0.765986
0.765983
0.765979
0.765973
0.765966
0.765958
0.765948
0.765938
0.765929
0.765921
0.765916
0.765911
0.765906
0.765901
0.765895
0.765886
0.765876
0.765864
0.765852
0.76584
0.765829
0.76582
0.765812
0.765806
0.765799
0.765791
0.765783
0.765773
0.765762
0.765751
0.765739
0.765729
0.76572
0.765712
0.765705
0.765698
0.76569
0.765681
0.765671
0.765659
0.765647
0.765634
0.765621
0.765609
0.765598
0.765588
0.765578
0.765568
0.765557
0.765545
0.765532
0.765517
0.765502
0.765488
0.765473
0.76546
0.765447
0.765434
0.765421
0.765407
0.765392
0.765376
0.765358
0.76534
0.765322
0.765304
0.765287
0.765271
0.765255
0.765239
0.765223
0.765206
0.765189
0.765171
0.765152
0.765134
0.765116
0.765099
0.765082
0.765065
0.765049
0.765032
0.765015
0.764996
0.764978
0.764958
0.764939
0.76492
0.764901
0.764883
0.764866
0.764849
0.764832
0.764815
0.764798
0.764781
0.764764
0.764748
0.764732
0.764715
0.764698
0.764677
0.764654
0.764628
0.764598
0.764626
0.765085
0.768503
0.779285
0.797793
0.821263
0.848125
0.876559
0.907621
0.940987
0.99134
1.132
1.132
1.132
1.132
1.132
1.132
1.132
1.132
1.132
1.132
1.132
1.132
1.132
1.132
1.132
1.132
1.132
1.132
1.132
1.132
1.132
1.132
1.132
1.132
1.132
1.132
1.132
1.13199
1.13162
1.12281
1.05937
1.02047
1.01915
1.01906
1.01899
1.01895
1.01894
1.01897
1.019
1.01902
1.01901
1.01898
1.01892
1.01887
1.01883
1.0188
1.01881
1.01885
1.01891
1.01895
1.019
1.01904
1.01905
1.01905
1.01906
1.01908
1.0191
1.01913
1.01916
1.01918
1.01918
1.01918
1.01917
1.01915
1.01913
1.01911
1.01911
1.01911
1.0191
1.0191
1.0191
1.01909
1.01908
1.01906
1.01905
1.01903
1.01903
1.01903
1.01904
1.01904
1.01905
1.01907
1.01907
1.01907
1.01907
1.01907
1.01906
1.01905
1.01905
1.01905
1.01905
1.01906
1.01908
1.0191
1.0191
1.01911
1.01912
1.01911
1.0191
1.0191
1.0191
1.0191
1.01911
1.01913
1.01914
1.01914
1.01914
1.01913
1.01912
1.01909
1.01908
1.01907
1.01907
1.01907
1.01907
1.01908
1.01908
1.01907
1.01906
1.01906
1.01905
1.01905
1.01906
1.01907
1.01909
1.0191
1.01911
1.01911
1.01911
1.0191
1.01909
1.01908
1.01908
1.01908
1.01908
1.01908
1.01908
1.01908
1.01908
1.01908
1.01908
1.01908
1.01908
1.01909
1.01909
1.01909
1.0191
1.01911
1.01911
1.01911
1.01912
1.01912
1.01911
1.0191
1.01909
1.01908
1.01906
1.01906
1.01906
1.01907
1.01907
1.01907
1.01908
1.01907
1.01903
1.01894
1.01895
1.01908
1.01955
1.02055
1.02207
1.02395
1.02598
1.02801
1.02989
1.03159
1.033
1.03394
1.03409
1.03403
1.03391
1.03376
1.03363
1.03365
1.03371
1.03379
1.03374
1.03371
1.03367
1.03363
1.03358
1.03346
1.03316
1.03252
1.03137
1.02983
1.02832
1.02714
1.02627
1.02557
1.02496
1.02442
1.02392
1.02346
1.02304
1.02267
1.02234
1.02206
1.02184
1.02166
1.02152
1.02141
1.02134
1.02128
1.02124
1.02119
1.02115
1.02111
1.02106
1.02102
1.02097
1.02092
1.02087
1.02082
1.02076
1.02071
1.02065
1.02059
1.02054
1.0205
1.02048
1.02047
1.02046
1.02046
1.02046
1.02047
1.02047
1.02047
1.02046
1.02046
1.02045
1.02044
1.02042
1.02041
1.02039
1.02037
1.02035
1.02033
1.0203
1.02028
1.02026
1.02025
1.02024
1.02023
1.02022
1.02023
1.02023
1.02023
1.02023
1.02023
1.02022
1.02021
1.02021
1.0202
1.02019
1.02018
1.02016
1.02014
1.02012
1.0201
1.02008
1.02006
1.02005
1.02003
1.02001
1.02
1.01999
1.01998
1.01997
1.01997
1.01997
1.01996
1.01995
1.01993
1.01992
1.0199
1.01989
1.01988
1.01986
1.01985
1.01983
1.01982
1.01982
1.01981
1.0198
1.0198
1.01979
1.01979
1.01979
1.01979
1.01978
1.01978
1.01978
1.01978
1.01978
1.01978
1.01979
1.01978
1.01977
1.01976
1.01975
1.01973
1.01971
1.0197
1.01969
1.01968
1.01967
1.01966
1.01965
1.01965
1.01964
1.01964
1.01965
1.01965
1.01965
1.01964
1.01963
1.01963
1.01963
1.01962
1.01962
1.01961
1.0196
1.01958
1.01957
1.01956
1.01956
1.01955
1.01955
1.01956
1.01957
1.01959
1.01959
1.0196
1.0196
1.0196
1.01961
1.01961
1.01962
1.01963
1.01963
1.01962
1.01962
1.01962
1.01961
1.0196
1.0196
1.0196
1.0196
1.01959
1.01958
1.01958
1.01957
1.01956
1.01956
1.01956
1.01956
1.01956
1.01956
1.01956
1.01956
1.01955
1.01955
1.01955
1.01954
1.01953
1.0195
1.0195
1.01949
1.01947
1.01946
1.01945
1.01945
1.01944
1.01941
1.01938
1.01936
1.01932
1.01925
1.01914
1.019
1.01876
1.01842
1.01792
1.0172
1.01614
1.01466
1.01257
1.00971
1.00583
1.00061
0.993739
0.984892
0.973726
0.959944
0.943367
0.923969
0.901979
0.877841
0.852511
0.827381
0.80434
0.785541
0.773242
0.767809
0.766102
0.765548
0.765467
0.76547
0.765524
0.765656
0.765871
0.766143
0.766439
0.766594
0.766587
0.766526
0.76642
0.766331
0.766299
0.766295
0.766316
0.76637
0.766418
0.766431
0.766427
0.766397
0.766322
0.766226
0.766173
0.766169
0.76618
0.766218
0.766286
0.766364
0.766411
0.766415
0.766406
0.766372
0.766313
0.766251
0.766216
0.766208
0.766211
0.766226
0.766252
0.766269
0.76627
0.766262
0.76624
0.766199
0.766155
0.766136
0.766135
0.766141
0.766159
0.766188
0.766213
0.766218
0.766215
0.766205
0.766184
0.766157
0.766137
0.766132
0.766135
0.766146
0.76617
0.766203
0.766228
0.76624
0.766247
0.76625
0.76625
0.766249
0.76625
0.766253
0.766262
0.766276
0.766295
0.766314
0.766332
0.76635
0.766372
0.766401
0.766438
0.766474
0.766497
0.766516
0.766539
0.766562
0.766573
0.766575
0.766569
0.766555
0.766531
0.766501
0.766468
0.766438
0.766415
0.766401
0.766395
0.766392
0.766388
0.766382
0.766372
0.766356
0.766338
0.766321
0.766309
0.766304
0.766302
0.766303
0.766303
0.766304
0.766303
0.7663
0.766292
0.766281
0.76627
0.766264
0.766262
0.766262
0.766262
0.766261
0.766259
0.766255
0.766248
0.766237
0.766223
0.766207
0.766191
0.766179
0.766172
0.766168
0.766166
0.766164
0.766161
0.766156
0.766148
0.766137
0.766126
0.76612
0.766118
0.766116
0.766115
0.766114
0.766113
0.766111
0.766108
0.766104
0.766097
0.766089
0.766081
0.766073
0.766069
0.766066
0.766065
0.766064
0.766062
0.766059
0.766054
0.766045
0.766034
0.766021
0.76601
0.766
0.765994
0.76599
0.765986
0.765983
0.765979
0.765973
0.765967
0.765958
0.765948
0.765938
0.765929
0.765921
0.765916
0.765911
0.765906
0.765901
0.765895
0.765886
0.765876
0.765864
0.765852
0.76584
0.765829
0.76582
0.765813
0.765806
0.765799
0.765791
0.765783
0.765773
0.765762
0.765751
0.765739
0.765729
0.76572
0.765712
0.765705
0.765698
0.76569
0.765681
0.765671
0.765659
0.765647
0.765634
0.765621
0.765609
0.765599
0.765588
0.765578
0.765568
0.765557
0.765545
0.765532
0.765517
0.765502
0.765488
0.765473
0.76546
0.765447
0.765434
0.765421
0.765407
0.765392
0.765376
0.765358
0.76534
0.765322
0.765304
0.765287
0.765271
0.765255
0.765239
0.765223
0.765206
0.765189
0.765171
0.765152
0.765134
0.765116
0.765099
0.765082
0.765065
0.765049
0.765032
0.765015
0.764996
0.764978
0.764958
0.764939
0.76492
0.764901
0.764883
0.764866
0.764849
0.764832
0.764815
0.764798
0.764781
0.764764
0.764748
0.764732
0.764715
0.764698
0.764677
0.764655
0.764628
0.764599
0.764625
0.765073
0.768436
0.77917
0.797732
0.821272
0.848304
0.876852
0.908019
0.941418
0.991085
1.132
1.132
1.132
1.132
1.132
1.132
1.132
1.132
1.132
1.132
1.132
1.132
1.132
1.132
1.132
1.132
1.132
1.132
1.132
1.132
1.132
1.132
1.132
1.132
1.132
1.132
1.132
1.13199
1.13162
1.12281
1.05937
1.02047
1.01915
1.01906
1.01899
1.01895
1.01894
1.01897
1.019
1.01902
1.01901
1.01898
1.01892
1.01887
1.01883
1.0188
1.01881
1.01885
1.01891
1.01895
1.019
1.01904
1.01905
1.01905
1.01906
1.01908
1.0191
1.01913
1.01916
1.01918
1.01918
1.01918
1.01917
1.01915
1.01913
1.01911
1.01911
1.01911
1.0191
1.0191
1.0191
1.01909
1.01908
1.01906
1.01905
1.01903
1.01903
1.01903
1.01904
1.01904
1.01905
1.01907
1.01907
1.01907
1.01907
1.01907
1.01906
1.01905
1.01905
1.01905
1.01905
1.01906
1.01908
1.0191
1.0191
1.01911
1.01912
1.01911
1.0191
1.0191
1.0191
1.0191
1.01911
1.01913
1.01914
1.01914
1.01914
1.01913
1.01912
1.01909
1.01908
1.01907
1.01907
1.01907
1.01907
1.01908
1.01908
1.01907
1.01906
1.01906
1.01905
1.01905
1.01906
1.01907
1.01909
1.0191
1.01911
1.01911
1.01911
1.0191
1.01909
1.01908
1.01908
1.01908
1.01908
1.01908
1.01908
1.01908
1.01908
1.01908
1.01908
1.01908
1.01908
1.01909
1.01909
1.01909
1.0191
1.01911
1.01911
1.01911
1.01912
1.01912
1.01911
1.0191
1.01909
1.01908
1.01906
1.01906
1.01906
1.01907
1.01907
1.01907
1.01908
1.01907
1.01903
1.01894
1.01895
1.01908
1.01955
1.02055
1.02207
1.02395
1.02598
1.02801
1.02988
1.03158
1.03301
1.03397
1.0341
1.03403
1.03389
1.03374
1.0336
1.03364
1.03371
1.03381
1.03377
1.03371
1.03366
1.03363
1.03358
1.03346
1.03316
1.03252
1.03137
1.02983
1.02832
1.02714
1.02627
1.02557
1.02496
1.02442
1.02392
1.02346
1.02304
1.02267
1.02234
1.02206
1.02184
1.02166
1.02152
1.02141
1.02134
1.02128
1.02124
1.02119
1.02115
1.02111
1.02106
1.02102
1.02097
1.02092
1.02087
1.02082
1.02076
1.02071
1.02065
1.02059
1.02054
1.0205
1.02048
1.02047
1.02046
1.02046
1.02046
1.02047
1.02047
1.02047
1.02046
1.02046
1.02045
1.02044
1.02042
1.02041
1.02039
1.02037
1.02035
1.02033
1.0203
1.02028
1.02026
1.02025
1.02024
1.02023
1.02022
1.02023
1.02023
1.02023
1.02023
1.02023
1.02022
1.02021
1.02021
1.0202
1.02019
1.02018
1.02016
1.02014
1.02012
1.0201
1.02008
1.02006
1.02005
1.02003
1.02001
1.02
1.01999
1.01998
1.01997
1.01997
1.01997
1.01996
1.01995
1.01993
1.01992
1.0199
1.01989
1.01988
1.01986
1.01985
1.01983
1.01982
1.01982
1.01981
1.0198
1.0198
1.01979
1.01979
1.01979
1.01979
1.01978
1.01978
1.01978
1.01978
1.01978
1.01978
1.01979
1.01978
1.01977
1.01976
1.01975
1.01973
1.01971
1.0197
1.01969
1.01968
1.01967
1.01966
1.01965
1.01965
1.01964
1.01964
1.01965
1.01965
1.01965
1.01964
1.01963
1.01963
1.01963
1.01962
1.01962
1.01961
1.0196
1.01958
1.01957
1.01956
1.01956
1.01955
1.01955
1.01956
1.01957
1.01959
1.0196
1.0196
1.0196
1.0196
1.01961
1.01961
1.01962
1.01963
1.01963
1.01962
1.01962
1.01962
1.01961
1.0196
1.0196
1.0196
1.0196
1.01959
1.01958
1.01958
1.01957
1.01956
1.01956
1.01956
1.01956
1.01956
1.01956
1.01956
1.01956
1.01955
1.01955
1.01955
1.01954
1.01953
1.0195
1.0195
1.01949
1.01947
1.01946
1.01945
1.01945
1.01944
1.01941
1.01938
1.01936
1.01932
1.01925
1.01915
1.019
1.01877
1.01843
1.01793
1.01721
1.01616
1.0147
1.01263
1.0098
1.00597
1.00081
0.993992
0.985216
0.97413
0.960425
0.943915
0.92455
0.902551
0.878365
0.852939
0.82769
0.80453
0.785642
0.773287
0.767849
0.766154
0.765578
0.765483
0.765481
0.765531
0.76566
0.765873
0.766143
0.766439
0.766593
0.766585
0.766524
0.766418
0.766329
0.766297
0.766293
0.766314
0.766368
0.766416
0.76643
0.766426
0.766396
0.766321
0.766225
0.766171
0.766167
0.766179
0.766217
0.766285
0.766363
0.76641
0.766415
0.766405
0.766371
0.766312
0.76625
0.766215
0.766207
0.76621
0.766225
0.766252
0.766268
0.766269
0.766261
0.766239
0.766198
0.766154
0.766136
0.766135
0.76614
0.766158
0.766188
0.766212
0.766217
0.766214
0.766203
0.766181
0.766154
0.766133
0.766128
0.766131
0.766144
0.766168
0.766202
0.76623
0.766245
0.766253
0.766258
0.76626
0.766261
0.766262
0.766266
0.766273
0.766286
0.766302
0.766318
0.766334
0.76635
0.76637
0.766399
0.766435
0.766471
0.766494
0.766513
0.766536
0.76656
0.766572
0.766573
0.766569
0.766555
0.766532
0.766501
0.766469
0.766439
0.766416
0.766402
0.766396
0.766393
0.766389
0.766383
0.766372
0.766357
0.766339
0.766322
0.76631
0.766304
0.766302
0.766303
0.766303
0.766304
0.766303
0.7663
0.766292
0.766281
0.76627
0.766264
0.766262
0.766262
0.766262
0.766261
0.766259
0.766255
0.766248
0.766237
0.766223
0.766207
0.766191
0.766179
0.766172
0.766169
0.766166
0.766164
0.766161
0.766156
0.766148
0.766137
0.766126
0.766121
0.766118
0.766116
0.766115
0.766114
0.766113
0.766111
0.766108
0.766104
0.766097
0.766089
0.766081
0.766073
0.766069
0.766066
0.766065
0.766064
0.766062
0.766059
0.766054
0.766045
0.766034
0.766021
0.76601
0.766
0.765994
0.76599
0.765986
0.765983
0.765979
0.765974
0.765967
0.765958
0.765948
0.765938
0.765929
0.765921
0.765916
0.765911
0.765906
0.765901
0.765895
0.765886
0.765876
0.765864
0.765852
0.76584
0.765829
0.76582
0.765813
0.765806
0.765799
0.765792
0.765783
0.765773
0.765762
0.765751
0.765739
0.765729
0.76572
0.765712
0.765705
0.765698
0.76569
0.765681
0.765671
0.765659
0.765647
0.765634
0.765621
0.765609
0.765599
0.765588
0.765579
0.765568
0.765557
0.765545
0.765532
0.765517
0.765502
0.765488
0.765473
0.76546
0.765447
0.765434
0.765421
0.765407
0.765392
0.765376
0.765358
0.76534
0.765322
0.765304
0.765287
0.765271
0.765255
0.765239
0.765223
0.765206
0.765189
0.765171
0.765152
0.765134
0.765116
0.765099
0.765082
0.765065
0.765049
0.765032
0.765015
0.764996
0.764978
0.764958
0.764939
0.76492
0.764901
0.764883
0.764866
0.764849
0.764832
0.764815
0.764798
0.764781
0.764764
0.764748
0.764732
0.764715
0.764698
0.764678
0.764655
0.764629
0.764599
0.764623
0.765048
0.768303
0.778953
0.797628
0.821343
0.848632
0.877256
0.908464
0.941852
0.99054
1.132
1.132
1.132
1.132
1.132
1.132
1.132
1.132
1.132
1.132
1.132
1.132
1.132
1.132
1.132
1.132
1.132
1.132
1.132
1.132
1.132
1.132
1.132
1.132
1.132
1.132
1.132
1.13199
1.13162
1.12281
1.05937
1.02047
1.01915
1.01906
1.01899
1.01895
1.01894
1.01897
1.019
1.01902
1.01901
1.01898
1.01892
1.01887
1.01883
1.0188
1.01881
1.01885
1.01891
1.01895
1.019
1.01904
1.01905
1.01905
1.01906
1.01908
1.0191
1.01913
1.01916
1.01918
1.01918
1.01918
1.01917
1.01915
1.01913
1.01911
1.01911
1.01911
1.0191
1.0191
1.0191
1.01909
1.01908
1.01906
1.01905
1.01903
1.01903
1.01903
1.01904
1.01904
1.01905
1.01907
1.01907
1.01907
1.01907
1.01907
1.01906
1.01905
1.01905
1.01905
1.01905
1.01906
1.01908
1.0191
1.0191
1.01911
1.01912
1.01911
1.0191
1.0191
1.0191
1.0191
1.01911
1.01913
1.01914
1.01914
1.01914
1.01913
1.01912
1.01909
1.01908
1.01907
1.01907
1.01907
1.01907
1.01908
1.01908
1.01907
1.01906
1.01906
1.01905
1.01905
1.01906
1.01907
1.01909
1.0191
1.01911
1.01911
1.01911
1.0191
1.01909
1.01908
1.01908
1.01908
1.01908
1.01908
1.01908
1.01908
1.01908
1.01908
1.01908
1.01908
1.01908
1.01909
1.01909
1.01909
1.0191
1.01911
1.01911
1.01911
1.01912
1.01912
1.01911
1.0191
1.01909
1.01908
1.01906
1.01906
1.01906
1.01907
1.01907
1.01907
1.01908
1.01907
1.01903
1.01894
1.01895
1.01908
1.01955
1.02055
1.02207
1.02395
1.02598
1.02801
1.02988
1.03157
1.03301
1.03399
1.03411
1.03404
1.03388
1.03372
1.03358
1.03363
1.03371
1.03383
1.03379
1.03371
1.03366
1.03363
1.03358
1.03346
1.03316
1.03251
1.03137
1.02983
1.02832
1.02714
1.02627
1.02557
1.02496
1.02441
1.02392
1.02346
1.02304
1.02267
1.02234
1.02206
1.02184
1.02166
1.02152
1.02141
1.02134
1.02128
1.02124
1.02119
1.02115
1.02111
1.02106
1.02102
1.02097
1.02092
1.02087
1.02082
1.02076
1.02071
1.02065
1.02059
1.02054
1.0205
1.02048
1.02047
1.02046
1.02046
1.02046
1.02047
1.02047
1.02047
1.02046
1.02046
1.02045
1.02044
1.02042
1.02041
1.02039
1.02037
1.02035
1.02033
1.0203
1.02028
1.02026
1.02025
1.02024
1.02023
1.02022
1.02023
1.02023
1.02023
1.02023
1.02023
1.02022
1.02021
1.02021
1.0202
1.02019
1.02018
1.02016
1.02014
1.02012
1.0201
1.02008
1.02006
1.02005
1.02003
1.02002
1.02
1.01999
1.01998
1.01997
1.01997
1.01997
1.01996
1.01995
1.01993
1.01992
1.0199
1.01989
1.01988
1.01986
1.01985
1.01983
1.01982
1.01982
1.01981
1.0198
1.0198
1.01979
1.01979
1.01979
1.01979
1.01978
1.01978
1.01978
1.01978
1.01978
1.01978
1.01979
1.01978
1.01977
1.01976
1.01975
1.01973
1.01971
1.0197
1.01969
1.01968
1.01967
1.01966
1.01965
1.01965
1.01964
1.01964
1.01965
1.01965
1.01965
1.01964
1.01963
1.01963
1.01963
1.01962
1.01962
1.01961
1.0196
1.01958
1.01957
1.01956
1.01956
1.01955
1.01955
1.01956
1.01957
1.01959
1.0196
1.0196
1.0196
1.0196
1.01961
1.01961
1.01962
1.01963
1.01963
1.01962
1.01962
1.01962
1.01961
1.0196
1.0196
1.0196
1.0196
1.01959
1.01958
1.01958
1.01957
1.01956
1.01956
1.01956
1.01956
1.01956
1.01956
1.01956
1.01956
1.01955
1.01955
1.01955
1.01954
1.01953
1.01951
1.0195
1.01948
1.01947
1.01946
1.01945
1.01945
1.01944
1.01941
1.01939
1.01936
1.01932
1.01925
1.01915
1.01901
1.01878
1.01844
1.01793
1.01722
1.01618
1.01474
1.01269
1.0099
1.00613
1.001
0.994244
0.985532
0.974503
0.960834
0.944332
0.924934
0.902867
0.878595
0.853093
0.827795
0.804613
0.785724
0.773355
0.76791
0.766213
0.765616
0.765506
0.765499
0.765544
0.765668
0.765878
0.766146
0.766439
0.766593
0.766584
0.766522
0.766416
0.766326
0.766293
0.76629
0.766311
0.766365
0.766414
0.766428
0.766424
0.766394
0.766319
0.766223
0.766169
0.766165
0.766177
0.766215
0.766283
0.766362
0.766409
0.766413
0.766403
0.766369
0.76631
0.766248
0.766213
0.766205
0.766208
0.766224
0.76625
0.766267
0.766267
0.76626
0.766237
0.766197
0.766153
0.766134
0.766133
0.766139
0.766157
0.766186
0.76621
0.766214
0.76621
0.766199
0.766176
0.766148
0.766127
0.766122
0.766125
0.766138
0.766165
0.766201
0.766234
0.766255
0.766267
0.766276
0.766282
0.766286
0.766288
0.766292
0.766297
0.766307
0.766318
0.76633
0.76634
0.766351
0.766368
0.766394
0.766429
0.766465
0.766488
0.766506
0.76653
0.766555
0.766568
0.76657
0.766567
0.766554
0.766532
0.766502
0.76647
0.76644
0.766417
0.766403
0.766397
0.766394
0.766391
0.766384
0.766374
0.766358
0.76634
0.766322
0.76631
0.766303
0.766302
0.766302
0.766303
0.766303
0.766303
0.766299
0.766292
0.766281
0.76627
0.766264
0.766262
0.766262
0.766262
0.766261
0.766259
0.766255
0.766248
0.766237
0.766223
0.766207
0.766191
0.766179
0.766172
0.766169
0.766166
0.766164
0.766161
0.766156
0.766148
0.766137
0.766126
0.766121
0.766118
0.766117
0.766116
0.766115
0.766113
0.766111
0.766108
0.766104
0.766097
0.766089
0.766081
0.766073
0.766069
0.766066
0.766065
0.766064
0.766062
0.766059
0.766054
0.766045
0.766034
0.766021
0.76601
0.766
0.765994
0.76599
0.765986
0.765983
0.765979
0.765974
0.765967
0.765958
0.765948
0.765938
0.765929
0.765921
0.765916
0.765911
0.765906
0.765901
0.765895
0.765886
0.765876
0.765864
0.765852
0.76584
0.765829
0.76582
0.765813
0.765806
0.765799
0.765792
0.765783
0.765773
0.765762
0.765751
0.765739
0.765729
0.76572
0.765712
0.765705
0.765698
0.76569
0.765681
0.765671
0.765659
0.765647
0.765634
0.765621
0.765609
0.765599
0.765588
0.765578
0.765568
0.765557
0.765545
0.765532
0.765517
0.765502
0.765488
0.765474
0.76546
0.765447
0.765434
0.765421
0.765407
0.765392
0.765376
0.765358
0.76534
0.765322
0.765304
0.765287
0.765271
0.765255
0.765239
0.765223
0.765206
0.765189
0.765171
0.765152
0.765134
0.765116
0.765099
0.765082
0.765065
0.765049
0.765032
0.765015
0.764996
0.764978
0.764958
0.764939
0.76492
0.764901
0.764883
0.764866
0.764849
0.764832
0.764815
0.764798
0.764781
0.764764
0.764748
0.764731
0.764715
0.764698
0.764678
0.764656
0.76463
0.7646
0.764618
0.765015
0.768135
0.778719
0.797593
0.821575
0.849076
0.877709
0.908878
0.941889
0.989506
1.132
1.132
1.132
1.132
1.132
1.132
1.132
1.132
1.132
1.132
1.132
1.132
1.132
1.132
1.132
1.132
1.132
1.132
1.132
1.132
1.132
1.132
1.132
1.132
1.132
1.132
1.132
1.13199
1.13162
1.12281
1.05937
1.02047
1.01915
1.01906
1.01899
1.01895
1.01894
1.01897
1.019
1.01902
1.01901
1.01898
1.01892
1.01887
1.01883
1.0188
1.01881
1.01885
1.01891
1.01895
1.019
1.01904
1.01905
1.01905
1.01906
1.01908
1.0191
1.01913
1.01916
1.01918
1.01918
1.01918
1.01917
1.01915
1.01913
1.01911
1.01911
1.01911
1.0191
1.0191
1.0191
1.01909
1.01908
1.01906
1.01905
1.01903
1.01903
1.01903
1.01904
1.01904
1.01905
1.01907
1.01907
1.01907
1.01907
1.01907
1.01906
1.01905
1.01905
1.01905
1.01905
1.01906
1.01908
1.0191
1.0191
1.01911
1.01912
1.01911
1.0191
1.0191
1.0191
1.0191
1.01911
1.01913
1.01914
1.01914
1.01914
1.01913
1.01912
1.01909
1.01908
1.01907
1.01907
1.01907
1.01907
1.01908
1.01908
1.01907
1.01906
1.01906
1.01905
1.01905
1.01906
1.01907
1.01909
1.0191
1.01911
1.01911
1.01911
1.0191
1.01909
1.01908
1.01908
1.01908
1.01908
1.01908
1.01908
1.01908
1.01908
1.01908
1.01908
1.01908
1.01908
1.01909
1.01909
1.01909
1.0191
1.01911
1.01911
1.01911
1.01912
1.01912
1.01911
1.0191
1.01909
1.01908
1.01906
1.01906
1.01906
1.01907
1.01907
1.01907
1.01908
1.01907
1.01903
1.01894
1.01895
1.01908
1.01955
1.02055
1.02207
1.02395
1.02597
1.02801
1.02987
1.03157
1.03302
1.03401
1.03411
1.03404
1.03387
1.03371
1.03356
1.03361
1.03371
1.03385
1.03381
1.03372
1.03365
1.03362
1.03358
1.03346
1.03316
1.03251
1.03137
1.02983
1.02832
1.02714
1.02627
1.02557
1.02496
1.02441
1.02392
1.02346
1.02304
1.02267
1.02234
1.02206
1.02184
1.02166
1.02152
1.02141
1.02134
1.02128
1.02124
1.02119
1.02115
1.02111
1.02106
1.02102
1.02097
1.02092
1.02087
1.02082
1.02076
1.02071
1.02065
1.02059
1.02054
1.0205
1.02048
1.02047
1.02046
1.02046
1.02046
1.02047
1.02047
1.02047
1.02047
1.02046
1.02045
1.02044
1.02042
1.02041
1.02039
1.02037
1.02035
1.02033
1.0203
1.02028
1.02026
1.02025
1.02024
1.02023
1.02022
1.02023
1.02023
1.02023
1.02023
1.02023
1.02022
1.02021
1.02021
1.0202
1.02019
1.02018
1.02016
1.02014
1.02012
1.0201
1.02008
1.02006
1.02005
1.02003
1.02002
1.02
1.01999
1.01998
1.01997
1.01997
1.01997
1.01996
1.01995
1.01993
1.01992
1.0199
1.01989
1.01988
1.01986
1.01985
1.01983
1.01982
1.01982
1.01981
1.0198
1.0198
1.01979
1.01979
1.01979
1.01979
1.01978
1.01978
1.01978
1.01978
1.01978
1.01978
1.01979
1.01978
1.01977
1.01976
1.01975
1.01973
1.01971
1.0197
1.01969
1.01968
1.01967
1.01966
1.01965
1.01965
1.01964
1.01964
1.01965
1.01965
1.01965
1.01964
1.01963
1.01963
1.01963
1.01962
1.01962
1.01961
1.0196
1.01958
1.01957
1.01956
1.01955
1.01955
1.01955
1.01956
1.01957
1.01959
1.0196
1.0196
1.0196
1.0196
1.01961
1.01961
1.01962
1.01963
1.01963
1.01962
1.01962
1.01962
1.01961
1.0196
1.0196
1.0196
1.0196
1.01959
1.01958
1.01958
1.01957
1.01956
1.01956
1.01956
1.01956
1.01956
1.01956
1.01956
1.01956
1.01955
1.01955
1.01955
1.01954
1.01953
1.01951
1.0195
1.01948
1.01947
1.01946
1.01946
1.01945
1.01944
1.01941
1.01939
1.01937
1.01932
1.01925
1.01915
1.01901
1.01878
1.01846
1.01794
1.01723
1.0162
1.01478
1.01274
1.00999
1.00626
1.00115
0.994433
0.985765
0.974763
0.961101
0.944567
0.92509
0.90295
0.878605
0.853069
0.82779
0.80464
0.785774
0.773395
0.767947
0.766254
0.765645
0.765528
0.765518
0.76556
0.765681
0.765886
0.76615
0.766441
0.766592
0.766583
0.76652
0.766413
0.766322
0.766289
0.766285
0.766306
0.766361
0.76641
0.766424
0.766421
0.76639
0.766316
0.766219
0.766165
0.766161
0.766173
0.766211
0.76628
0.766359
0.766406
0.766411
0.766401
0.766367
0.766307
0.766245
0.76621
0.766202
0.766206
0.766221
0.766247
0.766264
0.766265
0.766257
0.766235
0.766194
0.766151
0.766133
0.766131
0.766137
0.766155
0.766184
0.766207
0.76621
0.766206
0.766193
0.76617
0.76614
0.766118
0.766112
0.766116
0.76613
0.766159
0.766199
0.766238
0.766267
0.766288
0.766304
0.766316
0.766324
0.766328
0.766332
0.766334
0.766339
0.766344
0.766348
0.76635
0.766355
0.766366
0.766389
0.766423
0.766457
0.766479
0.766498
0.766522
0.766548
0.766563
0.766566
0.766564
0.766552
0.766532
0.766503
0.766471
0.766442
0.766419
0.766406
0.7664
0.766397
0.766393
0.766386
0.766375
0.766359
0.76634
0.766323
0.76631
0.766303
0.766302
0.766302
0.766303
0.766303
0.766302
0.766299
0.766292
0.766281
0.76627
0.766264
0.766262
0.766262
0.766262
0.766261
0.766259
0.766255
0.766248
0.766238
0.766223
0.766207
0.766191
0.766179
0.766172
0.766169
0.766166
0.766164
0.766161
0.766156
0.766148
0.766137
0.766127
0.766121
0.766118
0.766117
0.766116
0.766115
0.766113
0.766111
0.766108
0.766104
0.766097
0.766089
0.766081
0.766073
0.766069
0.766066
0.766065
0.766064
0.766063
0.766059
0.766054
0.766045
0.766034
0.766021
0.76601
0.766
0.765994
0.76599
0.765986
0.765983
0.765979
0.765974
0.765967
0.765958
0.765948
0.765938
0.765929
0.765921
0.765916
0.765911
0.765906
0.765901
0.765895
0.765886
0.765876
0.765865
0.765852
0.76584
0.765829
0.76582
0.765813
0.765806
0.765799
0.765792
0.765783
0.765773
0.765762
0.76575
0.765739
0.765729
0.76572
0.765712
0.765705
0.765698
0.76569
0.765681
0.765671
0.765659
0.765647
0.765634
0.765621
0.765609
0.765598
0.765588
0.765578
0.765568
0.765557
0.765545
0.765532
0.765517
0.765502
0.765488
0.765474
0.76546
0.765447
0.765434
0.765421
0.765407
0.765392
0.765376
0.765358
0.76534
0.765322
0.765304
0.765287
0.765271
0.765255
0.765239
0.765223
0.765206
0.765189
0.765171
0.765152
0.765134
0.765116
0.765098
0.765082
0.765065
0.765049
0.765032
0.765015
0.764996
0.764978
0.764958
0.764939
0.76492
0.764901
0.764883
0.764866
0.764849
0.764832
0.764815
0.764798
0.764781
0.764764
0.764748
0.764731
0.764715
0.764698
0.764678
0.764657
0.764631
0.764601
0.764613
0.764978
0.767947
0.778475
0.797601
0.821933
0.849635
0.878192
0.90929
0.941818
0.988324
1.132
1.132
1.132
1.132
1.132
1.132
1.132
1.132
1.132
1.132
1.132
1.132
1.132
1.132
1.132
1.132
1.132
1.132
1.132
1.132
1.132
1.132
1.132
1.132
1.132
1.132
1.132
1.13199
1.13162
1.12281
1.05937
1.02047
1.01915
1.01906
1.01899
1.01895
1.01894
1.01897
1.019
1.01902
1.01901
1.01898
1.01892
1.01887
1.01883
1.0188
1.01881
1.01885
1.01891
1.01895
1.019
1.01904
1.01905
1.01905
1.01906
1.01908
1.0191
1.01913
1.01916
1.01918
1.01918
1.01918
1.01917
1.01915
1.01913
1.01911
1.01911