/*--------------------------------*- C++ -*----------------------------------*\
| =========                 |                                                 |
| \\      /  F ield         | OpenFOAM: The Open Source CFD Toolbox           |
|  \\    /   O peration     | Version:  2406                                  |
|   \\  /    A nd           | Website:  www.openfoam.com                      |
|    \\/     M anipulation  |                                                 |
\*---------------------------------------------------------------------------*/
FoamFile
{
    version     2.0;
    format      ascii;
    arch        "LSB;label=32;scalar=64";
    class       volScalarField;
    location    "0.055";
    object      rho;
}
// * * * * * * * * * * * * * * * * * * * * * * * * * * * * * * * * * * * * * //

dimensions      [1 -3 0 0 0 0 0];

internalField   nonuniform List<scalar> 
83682
(
4.32005
4.32005
4.32005
4.32005
4.32005
4.32005
4.32005
4.32005
4.32005
4.32005
4.32005
4.32005
4.32005
4.32005
4.32005
4.32005
4.32005
4.32005
4.32005
4.32005
4.32005
4.32005
4.32005
4.32005
4.32005
4.32005
4.32005
4.3201
4.3214
4.35252
4.5854
4.73633
4.73936
4.73914
4.73917
4.7394
4.7398
4.74045
4.74106
4.74144
4.74162
4.74154
4.74123
4.74085
4.74058
4.74027
4.74013
4.74019
4.7404
4.74057
4.74063
4.74065
4.74049
4.7402
4.73992
4.73978
4.7397
4.73971
4.73986
4.74006
4.74014
4.74014
4.74011
4.74001
4.73981
4.73969
4.73965
4.73963
4.7397
4.73986
4.74004
4.74014
4.7402
4.74021
4.74014
4.73998
4.73988
4.73989
4.73997
4.74008
4.74028
4.74053
4.74063
4.74063
4.74057
4.74042
4.74018
4.73995
4.73982
4.73978
4.7398
4.7399
4.74008
4.74021
4.74021
4.74017
4.7401
4.73998
4.73985
4.73979
4.73982
4.7399
4.73999
4.74013
4.74025
4.74027
4.74025
4.7402
4.74014
4.74004
4.73996
4.73995
4.73995
4.73996
4.74
4.74005
4.74008
4.74009
4.74009
4.74009
4.74006
4.74005
4.74006
4.7401
4.74015
4.74022
4.74027
4.74029
4.74028
4.74024
4.74017
4.74008
4.73998
4.73991
4.73989
4.7399
4.73993
4.73996
4.73997
4.73997
4.73994
4.7399
4.73987
4.73987
4.73991
4.73998
4.74007
4.74017
4.74024
4.74025
4.74022
4.74018
4.74014
4.74009
4.74005
4.74002
4.74
4.74002
4.74004
4.74004
4.74004
4.74002
4.74001
4.74004
4.74021
4.74054
4.74055
4.7401
4.73829
4.73442
4.72851
4.72117
4.71324
4.70531
4.69795
4.69132
4.68584
4.68213
4.68156
4.6817
4.68211
4.68257
4.68303
4.68291
4.6827
4.68243
4.68264
4.68273
4.68291
4.68315
4.68345
4.68398
4.68517
4.6877
4.69215
4.69812
4.70399
4.70858
4.71195
4.71464
4.71698
4.71908
4.72101
4.72277
4.72437
4.72581
4.72707
4.72814
4.72902
4.72975
4.73034
4.73082
4.73119
4.73148
4.73173
4.73192
4.73209
4.73223
4.73237
4.73252
4.73268
4.73287
4.73305
4.73324
4.73345
4.73366
4.73386
4.73404
4.73421
4.73434
4.73441
4.73445
4.73451
4.73458
4.73465
4.73472
4.73479
4.73483
4.73484
4.73484
4.73485
4.73485
4.73485
4.73486
4.73489
4.73494
4.73501
4.73509
4.73518
4.73527
4.73535
4.73539
4.73543
4.73546
4.73549
4.73551
4.73555
4.7356
4.73566
4.73569
4.73572
4.73574
4.73575
4.73575
4.73574
4.73574
4.73575
4.73577
4.7358
4.73586
4.73593
4.736
4.73605
4.73611
4.73619
4.73627
4.73636
4.73645
4.73656
4.73666
4.73672
4.73676
4.73681
4.73686
4.7369
4.73691
4.73691
4.7369
4.73688
4.73685
4.73685
4.73688
4.73692
4.73694
4.73698
4.73703
4.73706
4.73708
4.73711
4.73716
4.73722
4.73727
4.73731
4.73734
4.73734
4.73731
4.7373
4.73731
4.73732
4.73734
4.73735
4.73737
4.73738
4.73737
4.73737
4.7374
4.73745
4.73751
4.73755
4.7376
4.73765
4.7377
4.73774
4.73777
4.7378
4.73784
4.73787
4.73788
4.73788
4.73789
4.73788
4.73788
4.73788
4.73789
4.73789
4.73789
4.7379
4.73792
4.73792
4.73789
4.73784
4.7378
4.7378
4.73782
4.73786
4.7379
4.73792
4.73791
4.73787
4.73784
4.73784
4.73784
4.73783
4.73783
4.73783
4.73781
4.73777
4.73774
4.73775
4.7378
4.73781
4.73784
4.73787
4.73792
4.73794
4.73796
4.738
4.73805
4.73807
4.73807
4.73807
4.73809
4.73811
4.7381
4.73811
4.73813
4.73818
4.73815
4.73817
4.73819
4.73823
4.73823
4.7382
4.73816
4.73818
4.73815
4.73797
4.73764
4.73711
4.73629
4.7349
4.73286
4.7297
4.72495
4.71797
4.70796
4.6937
4.67374
4.64625
4.60905
4.55981
4.49591
4.4146
4.31355
4.19112
4.04676
3.88167
3.69901
3.50465
3.30683
3.11673
2.94775
2.81415
2.72834
2.68969
2.67851
2.67627
2.67608
2.67623
2.67665
2.67747
2.67868
2.68019
2.6818
2.68282
2.68317
2.68318
2.6829
2.6826
2.68247
2.68239
2.68233
2.68236
2.68237
2.68228
2.68218
2.68204
2.68177
2.68145
2.68129
2.68131
2.68138
2.68154
2.6818
2.68209
2.68226
2.68229
2.68227
2.68216
2.68196
2.68175
2.68161
2.68156
2.68155
2.68157
2.68163
2.68168
2.68167
2.68164
2.68158
2.68146
2.68134
2.6813
2.68132
2.68135
2.68142
2.68153
2.68161
2.68163
2.68162
2.68158
2.68151
2.68142
2.68135
2.68132
2.68132
2.68134
2.68139
2.68145
2.6815
2.68149
2.68148
2.68146
2.68144
2.68143
2.68144
2.68148
2.68157
2.6817
2.68187
2.68208
2.68231
2.68258
2.68288
2.68322
2.68356
2.68385
2.68404
2.68413
2.68421
2.68427
2.68428
2.68424
2.68417
2.68405
2.68388
2.68367
2.68345
2.68324
2.68308
2.68296
2.68288
2.68284
2.68281
2.68278
2.68274
2.68268
2.68261
2.68254
2.68248
2.68244
2.68242
2.6824
2.68239
2.68237
2.68236
2.68235
2.68232
2.68227
2.68223
2.68221
2.6822
2.68219
2.68218
2.68216
2.68215
2.68212
2.68209
2.68205
2.68199
2.68193
2.68188
2.68183
2.68181
2.68179
2.68178
2.68178
2.68177
2.68175
2.68173
2.68169
2.68166
2.68164
2.68163
2.68162
2.68161
2.6816
2.68159
2.68157
2.68156
2.68153
2.68151
2.68148
2.68145
2.68142
2.68141
2.6814
2.6814
2.68139
2.68139
2.68138
2.68137
2.68134
2.6813
2.68126
2.68122
2.68119
2.68116
2.68115
2.68113
2.68112
2.6811
2.68109
2.68107
2.68104
2.68101
2.68098
2.68095
2.68093
2.68092
2.68091
2.68089
2.68088
2.68086
2.68083
2.6808
2.68077
2.68073
2.68069
2.68065
2.68063
2.6806
2.68058
2.68056
2.68054
2.68051
2.68048
2.68045
2.68041
2.68038
2.68034
2.68032
2.68029
2.68027
2.68025
2.68022
2.6802
2.68016
2.68013
2.68009
2.68004
2.68
2.67997
2.67993
2.6799
2.67987
2.67984
2.6798
2.67976
2.67972
2.67968
2.67963
2.67958
2.67954
2.6795
2.67945
2.67941
2.67937
2.67933
2.67928
2.67923
2.67917
2.67911
2.67906
2.679
2.67895
2.67889
2.67884
2.67879
2.67874
2.67869
2.67864
2.67858
2.67852
2.67847
2.67841
2.67835
2.6783
2.67825
2.6782
2.67814
2.67809
2.67803
2.67797
2.67791
2.67785
2.67779
2.67773
2.67767
2.67762
2.67757
2.67751
2.67746
2.67741
2.67735
2.6773
2.67725
2.6772
2.67714
2.67709
2.67705
2.67701
2.67697
2.67693
2.67672
2.67557
2.66754
2.64268
2.6006
2.54861
2.49038
2.43063
2.36693
2.30182
2.20517
4.32005
4.32005
4.32005
4.32005
4.32005
4.32005
4.32005
4.32005
4.32005
4.32005
4.32005
4.32005
4.32005
4.32005
4.32005
4.32005
4.32005
4.32005
4.32005
4.32005
4.32005
4.32005
4.32005
4.32005
4.32005
4.32005
4.32005
4.3201
4.3214
4.35252
4.5854
4.73633
4.73936
4.73914
4.73917
4.7394
4.7398
4.74045
4.74106
4.74144
4.74162
4.74154
4.74123
4.74085
4.74058
4.74027
4.74013
4.74019
4.7404
4.74057
4.74063
4.74065
4.74049
4.7402
4.73992
4.73978
4.7397
4.73971
4.73986
4.74006
4.74014
4.74014
4.74011
4.74001
4.73981
4.73969
4.73965
4.73963
4.7397
4.73986
4.74004
4.74014
4.7402
4.74021
4.74014
4.73998
4.73988
4.73989
4.73997
4.74008
4.74028
4.74053
4.74063
4.74063
4.74057
4.74042
4.74018
4.73995
4.73982
4.73978
4.7398
4.7399
4.74008
4.74021
4.74021
4.74017
4.7401
4.73998
4.73985
4.73979
4.73982
4.7399
4.73999
4.74013
4.74025
4.74027
4.74025
4.7402
4.74014
4.74004
4.73996
4.73995
4.73995
4.73996
4.74
4.74005
4.74008
4.74009
4.74009
4.74009
4.74006
4.74005
4.74006
4.7401
4.74015
4.74022
4.74027
4.74029
4.74028
4.74024
4.74017
4.74008
4.73998
4.73991
4.73989
4.7399
4.73993
4.73996
4.73997
4.73997
4.73994
4.7399
4.73987
4.73987
4.73991
4.73998
4.74007
4.74017
4.74024
4.74025
4.74022
4.74018
4.74014
4.74009
4.74005
4.74002
4.74
4.74002
4.74004
4.74004
4.74004
4.74002
4.74001
4.74004
4.74021
4.74054
4.74055
4.7401
4.73829
4.73442
4.72851
4.72117
4.71325
4.70532
4.69798
4.69134
4.6858
4.68201
4.68152
4.68169
4.68216
4.68266
4.68313
4.68296
4.68268
4.68234
4.68254
4.68272
4.68292
4.68315
4.68345
4.68398
4.68517
4.6877
4.69216
4.69812
4.704
4.70858
4.71195
4.71464
4.71698
4.71908
4.72101
4.72277
4.72437
4.72581
4.72707
4.72814
4.72902
4.72975
4.73034
4.73082
4.73119
4.73148
4.73173
4.73192
4.73209
4.73223
4.73237
4.73252
4.73268
4.73287
4.73305
4.73324
4.73345
4.73366
4.73386
4.73404
4.73421
4.73434
4.73441
4.73445
4.73451
4.73458
4.73465
4.73472
4.73479
4.73483
4.73484
4.73484
4.73484
4.73485
4.73485
4.73486
4.73489
4.73494
4.73501
4.73509
4.73518
4.73527
4.73535
4.73539
4.73543
4.73546
4.73549
4.73551
4.73555
4.7356
4.73566
4.73569
4.73572
4.73574
4.73575
4.73575
4.73574
4.73574
4.73575
4.73577
4.7358
4.73586
4.73593
4.736
4.73605
4.73611
4.73619
4.73627
4.73636
4.73645
4.73656
4.73666
4.73672
4.73676
4.73681
4.73686
4.7369
4.73691
4.73691
4.7369
4.73688
4.73685
4.73685
4.73688
4.73691
4.73694
4.73698
4.73703
4.73706
4.73708
4.73711
4.73716
4.73722
4.73727
4.73731
4.73734
4.73734
4.73731
4.7373
4.7373
4.73732
4.73734
4.73735
4.73737
4.73738
4.73737
4.73737
4.7374
4.73745
4.73751
4.73755
4.7376
4.73765
4.7377
4.73774
4.73777
4.7378
4.73784
4.73787
4.73788
4.73788
4.73789
4.73788
4.73788
4.73788
4.73789
4.73789
4.73789
4.7379
4.73792
4.73792
4.73789
4.73784
4.7378
4.7378
4.73782
4.73786
4.7379
4.73792
4.73791
4.73786
4.73784
4.73784
4.73784
4.73783
4.73783
4.73783
4.73781
4.73777
4.73774
4.73775
4.7378
4.73781
4.73784
4.73787
4.73792
4.73794
4.73796
4.738
4.73805
4.73807
4.73807
4.73807
4.73809
4.73811
4.7381
4.73811
4.73813
4.73818
4.73815
4.73817
4.73819
4.73823
4.73823
4.7382
4.73816
4.73819
4.73815
4.73797
4.73764
4.73712
4.73629
4.7349
4.73285
4.72969
4.72495
4.71797
4.70797
4.6937
4.67376
4.64628
4.6091
4.5599
4.49607
4.41485
4.31391
4.1916
4.04736
3.88239
3.69978
3.50542
3.30751
3.11725
2.94811
2.81438
2.72843
2.68974
2.67857
2.67628
2.67607
2.67622
2.67665
2.67747
2.67868
2.68019
2.6818
2.68282
2.68317
2.68318
2.6829
2.6826
2.68246
2.68239
2.68233
2.68236
2.68237
2.68228
2.68218
2.68204
2.68177
2.68145
2.68129
2.68131
2.68138
2.68154
2.6818
2.68209
2.68226
2.68229
2.68227
2.68216
2.68196
2.68174
2.68161
2.68156
2.68155
2.68157
2.68163
2.68168
2.68167
2.68164
2.68158
2.68146
2.68134
2.6813
2.68132
2.68135
2.68142
2.68153
2.68161
2.68163
2.68162
2.68158
2.68151
2.68142
2.68135
2.68132
2.68132
2.68134
2.68139
2.68145
2.6815
2.6815
2.68148
2.68146
2.68144
2.68143
2.68144
2.68148
2.68157
2.6817
2.68187
2.68208
2.68231
2.68258
2.68288
2.68322
2.68356
2.68385
2.68404
2.68413
2.68421
2.68427
2.68428
2.68425
2.68417
2.68405
2.68388
2.68367
2.68345
2.68324
2.68307
2.68296
2.68288
2.68284
2.68281
2.68278
2.68274
2.68268
2.68261
2.68254
2.68248
2.68244
2.68242
2.6824
2.68238
2.68237
2.68236
2.68235
2.68232
2.68227
2.68223
2.68221
2.6822
2.68219
2.68218
2.68216
2.68215
2.68212
2.68209
2.68205
2.68199
2.68193
2.68188
2.68183
2.68181
2.68179
2.68178
2.68178
2.68177
2.68175
2.68173
2.68169
2.68166
2.68164
2.68163
2.68162
2.68161
2.6816
2.68159
2.68157
2.68156
2.68153
2.68151
2.68148
2.68145
2.68142
2.68141
2.6814
2.6814
2.68139
2.68139
2.68138
2.68137
2.68134
2.6813
2.68126
2.68122
2.68119
2.68116
2.68115
2.68113
2.68112
2.6811
2.68109
2.68107
2.68104
2.68101
2.68098
2.68095
2.68093
2.68092
2.68091
2.68089
2.68088
2.68086
2.68083
2.6808
2.68077
2.68073
2.68069
2.68065
2.68063
2.6806
2.68058
2.68056
2.68054
2.68051
2.68048
2.68045
2.68041
2.68038
2.68034
2.68032
2.68029
2.68027
2.68025
2.68022
2.6802
2.68016
2.68013
2.68009
2.68004
2.68
2.67997
2.67993
2.6799
2.67987
2.67984
2.6798
2.67976
2.67972
2.67968
2.67963
2.67958
2.67954
2.6795
2.67946
2.67941
2.67937
2.67933
2.67928
2.67923
2.67917
2.67911
2.67906
2.679
2.67895
2.67889
2.67884
2.67879
2.67874
2.67869
2.67864
2.67858
2.67852
2.67847
2.67841
2.67835
2.6783
2.67825
2.6782
2.67814
2.67809
2.67803
2.67797
2.67791
2.67785
2.67779
2.67773
2.67767
2.67762
2.67757
2.67751
2.67746
2.67741
2.67735
2.6773
2.67725
2.6772
2.67714
2.67709
2.67705
2.67701
2.67697
2.67693
2.67672
2.6756
2.66771
2.64301
2.60084
2.54863
2.49006
2.42986
2.36574
2.30078
2.20552
4.32005
4.32005
4.32005
4.32005
4.32005
4.32005
4.32005
4.32005
4.32005
4.32005
4.32005
4.32005
4.32005
4.32005
4.32005
4.32005
4.32005
4.32005
4.32005
4.32005
4.32005
4.32005
4.32005
4.32005
4.32005
4.32005
4.32005
4.3201
4.3214
4.35252
4.5854
4.73633
4.73936
4.73914
4.73917
4.7394
4.7398
4.74045
4.74106
4.74144
4.74162
4.74154
4.74123
4.74085
4.74058
4.74027
4.74013
4.74019
4.7404
4.74057
4.74063
4.74065
4.74049
4.7402
4.73992
4.73978
4.7397
4.73971
4.73986
4.74006
4.74014
4.74014
4.74011
4.74001
4.73981
4.73969
4.73965
4.73963
4.7397
4.73986
4.74004
4.74014
4.7402
4.74021
4.74014
4.73998
4.73988
4.73989
4.73997
4.74008
4.74028
4.74053
4.74063
4.74063
4.74057
4.74042
4.74018
4.73995
4.73982
4.73978
4.7398
4.7399
4.74008
4.74021
4.74021
4.74017
4.7401
4.73998
4.73985
4.73979
4.73982
4.7399
4.73999
4.74013
4.74025
4.74027
4.74025
4.7402
4.74014
4.74004
4.73996
4.73995
4.73995
4.73996
4.74
4.74005
4.74008
4.74009
4.74009
4.74009
4.74006
4.74005
4.74006
4.7401
4.74015
4.74022
4.74027
4.74029
4.74028
4.74024
4.74017
4.74008
4.73998
4.73991
4.73989
4.7399
4.73993
4.73996
4.73997
4.73997
4.73994
4.7399
4.73987
4.73987
4.73991
4.73998
4.74007
4.74017
4.74024
4.74025
4.74022
4.74018
4.74014
4.74009
4.74005
4.74002
4.74
4.74002
4.74004
4.74004
4.74004
4.74002
4.74001
4.74004
4.74021
4.74054
4.74055
4.7401
4.73829
4.73441
4.72851
4.72117
4.71325
4.70533
4.698
4.69136
4.68577
4.68191
4.68148
4.68168
4.6822
4.68274
4.68323
4.68302
4.68267
4.68225
4.68243
4.68271
4.68295
4.68316
4.68345
4.68398
4.68517
4.6877
4.69216
4.69812
4.704
4.70858
4.71195
4.71464
4.71698
4.71908
4.72101
4.72277
4.72437
4.72581
4.72707
4.72814
4.72902
4.72975
4.73034
4.73082
4.73119
4.73149
4.73173
4.73192
4.73209
4.73223
4.73237
4.73251
4.73268
4.73287
4.73305
4.73324
4.73345
4.73366
4.73386
4.73404
4.73421
4.73433
4.7344
4.73445
4.73451
4.73458
4.73465
4.73472
4.73479
4.73483
4.73484
4.73484
4.73484
4.73485
4.73485
4.73486
4.73489
4.73494
4.73501
4.73509
4.73518
4.73527
4.73535
4.73539
4.73543
4.73546
4.73549
4.73551
4.73555
4.7356
4.73566
4.73569
4.73572
4.73574
4.73575
4.73575
4.73574
4.73574
4.73575
4.73577
4.7358
4.73586
4.73593
4.736
4.73605
4.73611
4.73619
4.73627
4.73636
4.73645
4.73656
4.73666
4.73672
4.73676
4.73681
4.73686
4.7369
4.73691
4.73691
4.7369
4.73688
4.73685
4.73685
4.73688
4.73691
4.73694
4.73698
4.73703
4.73706
4.73708
4.7371
4.73716
4.73722
4.73727
4.73731
4.73734
4.73734
4.73731
4.7373
4.7373
4.73732
4.73734
4.73735
4.73737
4.73738
4.73737
4.73737
4.7374
4.73745
4.73751
4.73755
4.7376
4.73765
4.7377
4.73774
4.73777
4.7378
4.73784
4.73787
4.73788
4.73788
4.73789
4.73789
4.73788
4.73787
4.73789
4.73789
4.73789
4.7379
4.73792
4.73792
4.73788
4.73784
4.7378
4.7378
4.73782
4.73786
4.7379
4.73792
4.7379
4.73786
4.73784
4.73784
4.73784
4.73783
4.73783
4.73783
4.73781
4.73777
4.73774
4.73775
4.7378
4.73781
4.73784
4.73787
4.73792
4.73794
4.73796
4.738
4.73805
4.73807
4.73806
4.73807
4.7381
4.73811
4.7381
4.73811
4.73813
4.73818
4.73815
4.73817
4.73818
4.73823
4.73822
4.7382
4.73817
4.73819
4.73814
4.73796
4.73765
4.73713
4.7363
4.7349
4.73284
4.72967
4.72496
4.71799
4.708
4.69374
4.67384
4.64642
4.60929
4.56026
4.49663
4.41566
4.31499
4.19294
4.0489
3.88408
3.70152
3.50702
3.30886
3.11825
2.94876
2.81474
2.72852
2.68974
2.67862
2.6763
2.67607
2.67622
2.67665
2.67747
2.67868
2.68019
2.6818
2.68282
2.68317
2.68318
2.6829
2.68259
2.68246
2.68239
2.68233
2.68236
2.68237
2.68229
2.68218
2.68204
2.68177
2.68145
2.68129
2.68131
2.68138
2.68154
2.6818
2.68209
2.68226
2.68229
2.68227
2.68216
2.68196
2.68174
2.68161
2.68156
2.68155
2.68157
2.68163
2.68168
2.68167
2.68164
2.68158
2.68146
2.68134
2.6813
2.68132
2.68135
2.68142
2.68153
2.68161
2.68163
2.68162
2.68158
2.68151
2.68142
2.68135
2.68132
2.68132
2.68134
2.68139
2.68145
2.6815
2.6815
2.68148
2.68146
2.68144
2.68143
2.68144
2.68148
2.68157
2.6817
2.68187
2.68208
2.68231
2.68258
2.68288
2.68322
2.68356
2.68385
2.68404
2.68413
2.68421
2.68427
2.68428
2.68425
2.68417
2.68405
2.68388
2.68367
2.68345
2.68324
2.68307
2.68296
2.68288
2.68284
2.68281
2.68278
2.68274
2.68268
2.68261
2.68254
2.68248
2.68244
2.68242
2.6824
2.68238
2.68237
2.68236
2.68235
2.68232
2.68227
2.68223
2.68221
2.6822
2.68219
2.68218
2.68216
2.68215
2.68212
2.68209
2.68205
2.68199
2.68193
2.68188
2.68183
2.68181
2.68179
2.68178
2.68178
2.68177
2.68175
2.68173
2.68169
2.68166
2.68164
2.68163
2.68162
2.68161
2.6816
2.68159
2.68157
2.68156
2.68153
2.68151
2.68148
2.68145
2.68142
2.68141
2.6814
2.6814
2.68139
2.68139
2.68138
2.68137
2.68134
2.6813
2.68126
2.68122
2.68118
2.68116
2.68115
2.68113
2.68112
2.6811
2.68109
2.68107
2.68104
2.68101
2.68098
2.68095
2.68093
2.68092
2.68091
2.68089
2.68088
2.68086
2.68083
2.6808
2.68077
2.68073
2.68069
2.68065
2.68063
2.6806
2.68058
2.68056
2.68054
2.68051
2.68048
2.68044
2.68041
2.68037
2.68034
2.68032
2.68029
2.68027
2.68025
2.68022
2.6802
2.68016
2.68013
2.68009
2.68004
2.68
2.67997
2.67993
2.6799
2.67987
2.67984
2.6798
2.67976
2.67972
2.67968
2.67963
2.67958
2.67954
2.6795
2.67946
2.67941
2.67937
2.67933
2.67928
2.67923
2.67917
2.67911
2.67906
2.679
2.67895
2.67889
2.67884
2.67879
2.67874
2.67869
2.67864
2.67858
2.67852
2.67847
2.67841
2.67835
2.6783
2.67825
2.6782
2.67814
2.67809
2.67803
2.67797
2.67791
2.67785
2.67779
2.67773
2.67767
2.67762
2.67757
2.67751
2.67746
2.67741
2.67735
2.6773
2.67725
2.6772
2.67714
2.67709
2.67705
2.67701
2.67697
2.67693
2.67673
2.67566
2.66799
2.64342
2.6009
2.5482
2.48902
2.42882
2.36473
2.30036
2.20717
4.32005
4.32005
4.32005
4.32005
4.32005
4.32005
4.32005
4.32005
4.32005
4.32005
4.32005
4.32005
4.32005
4.32005
4.32005
4.32005
4.32005
4.32005
4.32005
4.32005
4.32005
4.32005
4.32005
4.32005
4.32005
4.32005
4.32005
4.3201
4.3214
4.35252
4.5854
4.73633
4.73936
4.73914
4.73917
4.7394
4.7398
4.74045
4.74106
4.74144
4.74162
4.74154
4.74123
4.74085
4.74058
4.74027
4.74013
4.74019
4.7404
4.74057
4.74063
4.74065
4.74049
4.7402
4.73992
4.73978
4.7397
4.73971
4.73986
4.74006
4.74014
4.74014
4.74011
4.74001
4.73981
4.73969
4.73965
4.73963
4.7397
4.73986
4.74004
4.74014
4.7402
4.74021
4.74014
4.73998
4.73988
4.73989
4.73997
4.74008
4.74028
4.74053
4.74063
4.74063
4.74057
4.74042
4.74018
4.73995
4.73982
4.73978
4.7398
4.7399
4.74008
4.74021
4.74021
4.74017
4.7401
4.73998
4.73985
4.73979
4.73982
4.7399
4.73999
4.74013
4.74025
4.74027
4.74025
4.7402
4.74014
4.74004
4.73996
4.73995
4.73995
4.73996
4.74
4.74005
4.74008
4.74009
4.74009
4.74009
4.74006
4.74005
4.74006
4.7401
4.74015
4.74022
4.74027
4.74029
4.74028
4.74024
4.74017
4.74008
4.73998
4.73991
4.73989
4.7399
4.73993
4.73996
4.73997
4.73997
4.73994
4.7399
4.73987
4.73987
4.73991
4.73998
4.74007
4.74017
4.74024
4.74025
4.74022
4.74018
4.74014
4.74009
4.74005
4.74002
4.74
4.74002
4.74004
4.74004
4.74004
4.74002
4.74001
4.74004
4.74021
4.74054
4.74055
4.74009
4.73829
4.73441
4.72851
4.72117
4.71326
4.70534
4.69802
4.69138
4.68575
4.68182
4.68144
4.68166
4.68224
4.68281
4.68331
4.68308
4.68267
4.68217
4.68234
4.6827
4.68298
4.68317
4.68344
4.68397
4.68517
4.68771
4.69216
4.69812
4.704
4.70858
4.71195
4.71464
4.71698
4.71908
4.72101
4.72277
4.72437
4.72581
4.72707
4.72814
4.72902
4.72975
4.73034
4.73082
4.73119
4.73149
4.73173
4.73192
4.73209
4.73223
4.73237
4.73251
4.73268
4.73287
4.73305
4.73325
4.73345
4.73366
4.73386
4.73404
4.73421
4.73433
4.7344
4.73445
4.73451
4.73458
4.73465
4.73472
4.73479
4.73483
4.73484
4.73484
4.73484
4.73485
4.73485
4.73486
4.73489
4.73494
4.73501
4.73509
4.73518
4.73527
4.73535
4.7354
4.73543
4.73546
4.73549
4.73551
4.73555
4.7356
4.73566
4.73569
4.73572
4.73574
4.73575
4.73575
4.73574
4.73574
4.73575
4.73577
4.7358
4.73586
4.73593
4.736
4.73605
4.73611
4.73619
4.73627
4.73636
4.73645
4.73656
4.73666
4.73672
4.73676
4.7368
4.73686
4.7369
4.73691
4.73691
4.7369
4.73688
4.73685
4.73685
4.73688
4.73691
4.73694
4.73698
4.73703
4.73706
4.73708
4.7371
4.73716
4.73722
4.73727
4.73731
4.73734
4.73734
4.73731
4.7373
4.7373
4.73732
4.73734
4.73735
4.73737
4.73737
4.73737
4.73737
4.7374
4.73745
4.73751
4.73755
4.73759
4.73765
4.7377
4.73774
4.73777
4.7378
4.73784
4.73787
4.73788
4.73788
4.73789
4.73789
4.73788
4.73787
4.73789
4.73789
4.73789
4.7379
4.73792
4.73792
4.73788
4.73783
4.7378
4.7378
4.73782
4.73786
4.7379
4.73792
4.7379
4.73786
4.73784
4.73784
4.73784
4.73783
4.73783
4.73783
4.73781
4.73777
4.73774
4.73776
4.7378
4.73781
4.73784
4.73787
4.73791
4.73794
4.73796
4.738
4.73805
4.73806
4.73806
4.73807
4.7381
4.73811
4.7381
4.73811
4.73813
4.73818
4.73816
4.73817
4.73818
4.73822
4.73821
4.73819
4.73819
4.7382
4.73814
4.73795
4.73766
4.73715
4.7363
4.7349
4.73283
4.72965
4.72497
4.71802
4.70806
4.6938
4.67399
4.64663
4.6096
4.56083
4.49749
4.41683
4.31648
4.19473
4.05094
3.88619
3.70348
3.50866
3.31012
3.11913
2.94934
2.81509
2.72866
2.68981
2.67868
2.67631
2.67605
2.67622
2.67665
2.67747
2.67868
2.68019
2.6818
2.68282
2.68317
2.68318
2.6829
2.68259
2.68246
2.68238
2.68233
2.68236
2.68237
2.68229
2.68218
2.68204
2.68177
2.68145
2.68129
2.68131
2.68138
2.68154
2.6818
2.68209
2.68226
2.68229
2.68227
2.68216
2.68196
2.68174
2.68161
2.68156
2.68154
2.68157
2.68163
2.68168
2.68167
2.68164
2.68158
2.68146
2.68134
2.6813
2.68132
2.68135
2.68142
2.68153
2.68161
2.68163
2.68162
2.68158
2.68151
2.68142
2.68135
2.68132
2.68132
2.68134
2.68139
2.68145
2.6815
2.6815
2.68148
2.68146
2.68144
2.68143
2.68144
2.68148
2.68157
2.6817
2.68187
2.68208
2.68231
2.68258
2.68289
2.68323
2.68357
2.68386
2.68405
2.68414
2.68421
2.68428
2.68429
2.68425
2.68418
2.68405
2.68388
2.68367
2.68345
2.68324
2.68307
2.68295
2.68288
2.68284
2.68282
2.68279
2.68274
2.68268
2.68261
2.68254
2.68248
2.68244
2.68242
2.6824
2.68238
2.68237
2.68236
2.68235
2.68232
2.68227
2.68224
2.68221
2.6822
2.68219
2.68218
2.68216
2.68215
2.68212
2.68209
2.68205
2.68199
2.68193
2.68188
2.68183
2.68181
2.68179
2.68178
2.68178
2.68177
2.68175
2.68173
2.68169
2.68166
2.68164
2.68163
2.68162
2.68161
2.6816
2.68159
2.68157
2.68155
2.68153
2.68151
2.68148
2.68145
2.68142
2.68141
2.6814
2.6814
2.68139
2.68139
2.68138
2.68137
2.68134
2.6813
2.68126
2.68122
2.68118
2.68116
2.68115
2.68113
2.68112
2.6811
2.68109
2.68107
2.68104
2.68101
2.68098
2.68095
2.68093
2.68092
2.6809
2.68089
2.68088
2.68086
2.68083
2.6808
2.68077
2.68073
2.68069
2.68065
2.68063
2.6806
2.68058
2.68056
2.68054
2.68051
2.68048
2.68044
2.68041
2.68037
2.68034
2.68032
2.68029
2.68027
2.68025
2.68022
2.6802
2.68016
2.68013
2.68009
2.68004
2.68
2.67997
2.67993
2.6799
2.67987
2.67984
2.6798
2.67976
2.67972
2.67968
2.67963
2.67958
2.67954
2.6795
2.67946
2.67941
2.67937
2.67933
2.67928
2.67923
2.67917
2.67911
2.67906
2.679
2.67895
2.67889
2.67884
2.67879
2.67874
2.67869
2.67864
2.67858
2.67852
2.67847
2.67841
2.67835
2.6783
2.67825
2.6782
2.67814
2.67809
2.67803
2.67797
2.67791
2.67785
2.67779
2.67773
2.67767
2.67762
2.67757
2.67751
2.67746
2.67741
2.67735
2.6773
2.67725
2.6772
2.67714
2.67709
2.67705
2.67701
2.67697
2.67693
2.67674
2.67573
2.66836
2.64387
2.6008
2.5474
2.48776
2.42773
2.36382
2.30035
2.20943
4.32005
4.32005
4.32005
4.32005
4.32005
4.32005
4.32005
4.32005
4.32005
4.32005
4.32005
4.32005
4.32005
4.32005
4.32005
4.32005
4.32005
4.32005
4.32005
4.32005
4.32005
4.32005
4.32005
4.32005
4.32005
4.32005
4.32005
4.3201
4.3214
4.35252
4.5854
4.73633
4.73936
4.73914
4.73917
4.7394
4.7398
4.74045
4.74106
4.74144
4.74162
4.74154
4.74123
4.74085
4.74058
4.74027
4.74013
4.74019
4.7404
4.74057
4.74063
4.74065
4.74049
4.7402
4.73992
4.73978
4.7397
4.73971
4.73986
4.74006
4.74014
4.74014
4.74011
4.74001
4.73981
4.73969
4.73965
4.73963
4.7397
4.73986
4.74004
4.74014
4.7402
4.74021
4.74014
4.73998
4.73988
4.73989
4.73997
4.74008
4.74028
4.74053
4.74063
4.74063
4.74057
4.74042
4.74018
4.73995
4.73982
4.73978
4.7398
4.7399
4.74008
4.74021
4.74021
4.74017
4.7401
4.73998
4.73985
4.73979
4.73982
4.7399
4.73999
4.74013
4.74025
4.74027
4.74025
4.7402
4.74014
4.74004
4.73996
4.73995
4.73995
4.73996
4.74
4.74005
4.74008
4.74009
4.74009
4.74009
4.74006
4.74005
4.74006
4.7401
4.74015
4.74022
4.74027
4.74029
4.74028
4.74024
4.74017
4.74008
4.73998
4.73991
4.73989
4.7399
4.73993
4.73996
4.73997
4.73997
4.73994
4.7399
4.73987
4.73987
4.73991
4.73998
4.74007
4.74017
4.74024
4.74025
4.74022
4.74018
4.74014
4.74009
4.74005
4.74002
4.74
4.74002
4.74004
4.74004
4.74004
4.74002
4.74001
4.74004
4.74021
4.74054
4.74055
4.74009
4.73828
4.73441
4.72851
4.72118
4.71327
4.70535
4.69803
4.6914
4.68573
4.68175
4.6814
4.68165
4.68227
4.68287
4.68337
4.68313
4.68267
4.6821
4.68227
4.68269
4.68301
4.68318
4.68343
4.68396
4.68517
4.68771
4.69216
4.69812
4.704
4.70858
4.71196
4.71464
4.71698
4.71908
4.72101
4.72277
4.72437
4.72581
4.72707
4.72814
4.72902
4.72975
4.73034
4.73082
4.7312
4.73149
4.73173
4.73192
4.73208
4.73223
4.73236
4.73251
4.73268
4.73287
4.73306
4.73325
4.73346
4.73366
4.73386
4.73404
4.7342
4.73433
4.7344
4.73444
4.7345
4.73458
4.73465
4.73472
4.73479
4.73483
4.73484
4.73484
4.73484
4.73485
4.73485
4.73486
4.73489
4.73494
4.73501
4.73509
4.73518
4.73527
4.73535
4.7354
4.73543
4.73546
4.73549
4.73551
4.73555
4.7356
4.73566
4.73569
4.73571
4.73574
4.73575
4.73575
4.73574
4.73574
4.73575
4.73577
4.7358
4.73586
4.73593
4.736
4.73606
4.73611
4.73619
4.73627
4.73636
4.73645
4.73656
4.73666
4.73672
4.73676
4.7368
4.73686
4.7369
4.73691
4.73691
4.7369
4.73688
4.73685
4.73685
4.73688
4.73691
4.73694
4.73698
4.73703
4.73705
4.73707
4.7371
4.73716
4.73722
4.73727
4.73731
4.73734
4.73734
4.73731
4.7373
4.7373
4.73732
4.73734
4.73735
4.73736
4.73737
4.73737
4.73737
4.7374
4.73745
4.73751
4.73755
4.73759
4.73765
4.7377
4.73774
4.73777
4.7378
4.73784
4.73787
4.73788
4.73788
4.73789
4.73789
4.73788
4.73787
4.73789
4.73789
4.73789
4.7379
4.73792
4.73791
4.73788
4.73783
4.7378
4.7378
4.73783
4.73787
4.7379
4.73792
4.7379
4.73786
4.73784
4.73784
4.73784
4.73784
4.73783
4.73783
4.7378
4.73776
4.73774
4.73776
4.7378
4.73781
4.73784
4.73787
4.73791
4.73794
4.73796
4.738
4.73805
4.73806
4.73806
4.73807
4.7381
4.73812
4.7381
4.73811
4.73813
4.73817
4.73816
4.73818
4.73818
4.73822
4.73821
4.73819
4.73821
4.73822
4.73813
4.73794
4.73766
4.73716
4.73631
4.73491
4.73282
4.72962
4.725
4.71808
4.70815
4.69389
4.6742
4.6469
4.61002
4.56153
4.49848
4.41813
4.31809
4.19656
4.05279
3.88793
3.70488
3.50973
3.31086
3.11959
2.94966
2.8153
2.72874
2.68985
2.67871
2.67632
2.67605
2.67621
2.67665
2.67747
2.67868
2.68019
2.6818
2.68282
2.68317
2.68319
2.6829
2.68259
2.68246
2.68238
2.68233
2.68236
2.68238
2.68229
2.68218
2.68204
2.68177
2.68145
2.68129
2.68131
2.68138
2.68154
2.6818
2.68209
2.68226
2.68229
2.68228
2.68216
2.68196
2.68174
2.68161
2.68156
2.68154
2.68157
2.68163
2.68168
2.68167
2.68165
2.68158
2.68146
2.68134
2.6813
2.68132
2.68135
2.68142
2.68153
2.68161
2.68163
2.68162
2.68158
2.68151
2.68142
2.68135
2.68132
2.68132
2.68134
2.68139
2.68145
2.68149
2.6815
2.68149
2.68146
2.68145
2.68143
2.68144
2.68148
2.68157
2.6817
2.68188
2.68208
2.68231
2.68259
2.6829
2.68323
2.68357
2.68387
2.68405
2.68415
2.68422
2.68429
2.6843
2.68426
2.68418
2.68405
2.68388
2.68367
2.68344
2.68323
2.68306
2.68295
2.68288
2.68285
2.68282
2.68279
2.68275
2.68268
2.68261
2.68254
2.68248
2.68244
2.68241
2.6824
2.68238
2.68237
2.68236
2.68235
2.68232
2.68227
2.68224
2.68221
2.6822
2.68219
2.68218
2.68216
2.68215
2.68212
2.68209
2.68205
2.68199
2.68193
2.68188
2.68183
2.68181
2.68179
2.68178
2.68178
2.68177
2.68175
2.68173
2.68169
2.68166
2.68164
2.68163
2.68162
2.68161
2.6816
2.68159
2.68157
2.68155
2.68153
2.68151
2.68148
2.68145
2.68142
2.68141
2.6814
2.6814
2.68139
2.68139
2.68138
2.68137
2.68134
2.6813
2.68126
2.68122
2.68118
2.68116
2.68115
2.68113
2.68112
2.6811
2.68109
2.68107
2.68104
2.68101
2.68098
2.68095
2.68093
2.68092
2.6809
2.68089
2.68088
2.68086
2.68083
2.6808
2.68077
2.68073
2.68069
2.68065
2.68063
2.6806
2.68058
2.68056
2.68054
2.68051
2.68048
2.68044
2.68041
2.68037
2.68034
2.68032
2.68029
2.68027
2.68025
2.68022
2.6802
2.68016
2.68013
2.68009
2.68004
2.68
2.67997
2.67993
2.6799
2.67987
2.67984
2.6798
2.67976
2.67972
2.67968
2.67963
2.67958
2.67954
2.6795
2.67946
2.67941
2.67937
2.67933
2.67928
2.67923
2.67917
2.67911
2.67906
2.679
2.67895
2.67889
2.67884
2.67879
2.67874
2.67869
2.67864
2.67858
2.67852
2.67847
2.67841
2.67835
2.6783
2.67825
2.6782
2.67814
2.67809
2.67803
2.67797
2.67791
2.67785
2.67779
2.67773
2.67767
2.67762
2.67757
2.67751
2.67746
2.67741
2.67735
2.6773
2.67725
2.6772
2.67714
2.67709
2.67705
2.677
2.67696
2.67693
2.67675
2.67581
2.66877
2.64434
2.60058
2.54637
2.4863
2.42664
2.36301
2.30062
2.21189
4.32005
4.32005
4.32005
4.32005
4.32005
4.32005
4.32005
4.32005
4.32005
4.32005
4.32005
4.32005
4.32005
4.32005
4.32005
4.32005
4.32005
4.32005
4.32005
4.32005
4.32005
4.32005
4.32005
4.32005
4.32005
4.32005
4.32005
4.3201
4.3214
4.35252
4.5854
4.73633
4.73936
4.73914
4.73917
4.7394
4.7398
4.74045
4.74106
4.74144
4.74162
4.74154
4.74123
4.74085
4.74058
4.74027
4.74013
4.74019
4.7404
4.74057
4.74063
4.74065
4.74049
4.7402
4.73992
4.73978
4.7397
4.73971
4.73986
4.74006
4.74014
4.74014
4.74011
4.74001
4.73981
4.73969
4.73965
4.73963
4.7397
4.73986
4.74004
4.74014
4.7402
4.74021
4.74014
4.73998
4.73988
4.73989
4.73997
4.74008
4.74028
4.74053
4.74063
4.74063
4.74057
4.74042
4.74018
4.73995
4.73982
4.73978
4.7398
4.7399
4.74008
4.74021
4.74021
4.74017
4.7401
4.73998
4.73985
4.73979
4.73982
4.7399
4.73999
4.74013
4.74025
4.74027
4.74025
4.7402
4.74014
4.74004
4.73996
4.73995
4.73995
4.73996
4.74
4.74005
4.74008
4.74009
4.74009
4.74009
4.74006
4.74005
4.74006
4.7401
4.74015
4.74022
4.74027
4.74029
4.74028
4.74024
4.74017
4.74008
4.73998
4.73991
4.73989
4.7399
4.73993
4.73996
4.73997
4.73997
4.73994
4.7399
4.73987
4.73987
4.73991
4.73998
4.74007
4.74017
4.74024
4.74025
4.74022
4.74018
4.74014
4.74009
4.74005
4.74002
4.74
4.74002
4.74004
4.74004
4.74004
4.74002
4.74001
4.74004
4.74021
4.74054
4.74055
4.74009
4.73828
4.73441
4.72851
4.72118
4.71328
4.70535
4.69804
4.69142
4.68571
4.68169
4.68137
4.68164
4.68229
4.68292
4.68343
4.68318
4.68268
4.68205
4.6822
4.68268
4.68305
4.68319
4.68342
4.68396
4.68517
4.68771
4.69216
4.69812
4.704
4.70859
4.71195
4.71465
4.71698
4.71908
4.721
4.72276
4.72437
4.72581
4.72707
4.72813
4.72902
4.72974
4.73034
4.73082
4.7312
4.73149
4.73173
4.73192
4.73208
4.73223
4.73236
4.73251
4.73268