/*--------------------------------*- C++ -*----------------------------------*\
| =========                 |                                                 |
| \\      /  F ield         | OpenFOAM: The Open Source CFD Toolbox           |
|  \\    /   O peration     | Version:  2406                                  |
|   \\  /    A nd           | Website:  www.openfoam.com                      |
|    \\/     M anipulation  |                                                 |
\*---------------------------------------------------------------------------*/
FoamFile
{
    version     2.0;
    format      ascii;
    arch        "LSB;label=32;scalar=64";
    class       volVectorField;
    location    "0.055";
    object      U;
}
// * * * * * * * * * * * * * * * * * * * * * * * * * * * * * * * * * * * * * //

dimensions      [0 1 -1 0 0 0 0];

internalField   nonuniform List<vector> 
83682
(
(347.059 -1.52584e-11 -3.28391e-11)
(347.059 -2.00697e-11 -3.27983e-11)
(347.059 -2.39789e-11 -2.83355e-11)
(347.059 -2.30867e-11 -2.8137e-11)
(347.059 -1.82396e-11 -2.97279e-11)
(347.059 -1.34021e-11 -3.04122e-11)
(347.059 -1.32403e-11 -2.95788e-11)
(347.059 -1.48515e-11 -2.78958e-11)
(347.059 -2.01816e-11 -2.62783e-11)
(347.059 -2.57215e-11 -2.27382e-11)
(347.059 -3.02089e-11 -2.43063e-11)
(347.059 -3.04176e-11 -2.15692e-11)
(347.059 -2.62493e-11 -2.15439e-11)
(347.059 -2.01018e-11 -2.23951e-11)
(347.059 -1.34327e-11 -2.18762e-11)
(347.059 -6.40097e-12 -2.2406e-11)
(347.059 -2.99528e-12 -2.46473e-11)
(347.059 -6.51391e-12 -2.39698e-11)
(347.059 -7.46136e-12 -2.42846e-11)
(347.059 -8.38194e-12 -2.66189e-11)
(347.059 -9.97551e-12 -2.80471e-11)
(347.059 -1.33154e-11 -2.63534e-11)
(347.059 -1.64825e-11 -2.48248e-11)
(347.059 -1.56347e-11 -2.44325e-11)
(347.059 -1.07255e-11 -2.41448e-11)
(347.059 3.4807e-12 -2.44134e-11)
(347.059 3.55465e-11 -2.4859e-11)
(347.056 -9.95568e-09 3.82316e-10)
(346.963 4.34389e-07 -1.8543e-08)
(344.757 -1.19783e-05 5.10597e-07)
(328.727 6.01665e-05 -2.61213e-06)
(318.591 -4.26588e-06 1.84461e-07)
(318.36 -9.36242e-06 3.96509e-07)
(318.348 -1.56633e-05 6.67648e-07)
(318.328 -2.00302e-05 8.63101e-07)
(318.313 -2.00043e-05 8.64703e-07)
(318.3 -1.65037e-05 7.24624e-07)
(318.288 -3.60308e-06 1.8235e-07)
(318.273 1.30767e-05 -5.53259e-07)
(318.272 2.12883e-05 -9.13103e-07)
(318.275 2.25557e-05 -9.54388e-07)
(318.276 2.02076e-05 -8.53962e-07)
(318.279 1.19576e-05 -5.05151e-07)
(318.285 -7.26037e-08 2.20596e-08)
(318.282 -9.48666e-06 4.44777e-07)
(318.269 -1.5895e-05 7.05225e-07)
(318.264 -1.47661e-05 6.27544e-07)
(318.264 -1.053e-05 4.33258e-07)
(318.264 -7.15022e-07 -5.28403e-10)
(318.265 5.78375e-06 -2.99171e-07)
(318.275 7.03352e-06 -3.51005e-07)
(318.29 6.05756e-06 -2.76315e-07)
(318.3 4.7878e-06 -2.10863e-07)
(318.312 -1.74187e-06 7.89637e-08)
(318.326 -1.28975e-05 5.95714e-07)
(318.337 -1.01804e-05 4.93905e-07)
(318.343 -8.59678e-06 4.29062e-07)
(318.347 -6.95271e-06 3.58079e-07)
(318.348 -3.23228e-06 2.02522e-07)
(318.344 1.30635e-05 -5.31626e-07)
(318.337 1.55183e-05 -6.49844e-07)
(318.334 1.40597e-05 -6.01782e-07)
(318.333 1.30718e-05 -5.63861e-07)
(318.333 9.88243e-06 -4.26983e-07)
(318.335 3.47468e-07 -9.15813e-09)
(318.341 -7.94541e-06 3.80182e-07)
(318.342 -8.67712e-06 4.22677e-07)
(318.339 -5.49388e-06 2.87564e-07)
(318.335 -3.63626e-06 2.06873e-07)
(318.328 -9.64155e-07 9.49423e-08)
(318.318 1.16197e-05 -4.72928e-07)
(318.309 1.26679e-05 -5.25178e-07)
(318.305 9.53595e-06 -3.88532e-07)
(318.303 6.85772e-06 -2.7499e-07)
(318.304 4.28034e-06 -1.67278e-07)
(318.308 -7.68256e-06 3.52878e-07)
(318.315 -1.13411e-05 5.13055e-07)
(318.32 -1.36207e-05 6.13893e-07)
(318.322 -1.382e-05 6.27152e-07)
(318.322 -1.25666e-05 5.76128e-07)
(318.32 -9.19838e-06 4.29814e-07)
(318.317 -1.57556e-06 9.2739e-08)
(318.31 2.20685e-07 1.23259e-08)
(318.307 1.58032e-06 -5.05331e-08)
(318.308 1.82392e-06 -6.1869e-08)
(318.31 7.53525e-07 -1.89475e-08)
(318.314 -1.44115e-06 7.49171e-08)
(318.319 -9.77192e-07 5.08862e-08)
(318.324 4.08033e-07 2.13415e-08)
(318.324 2.07184e-06 -3.69027e-08)
(318.324 2.48382e-06 -4.73082e-08)
(318.322 3.32486e-06 -7.78787e-08)
(318.32 6.06232e-06 -1.94824e-07)
(318.315 3.67417e-06 -1.21243e-07)
(318.313 3.12561e-06 -1.02148e-07)
(318.315 1.28545e-06 -2.95278e-08)
(318.318 -4.16438e-07 4.2303e-08)
(318.321 -1.25397e-07 2.16031e-08)
(318.325 2.55315e-06 -1.19011e-07)
(318.33 3.34968e-06 -1.59628e-07)
(318.333 3.54521e-06 -1.81712e-07)
(318.335 4.00405e-06 -2.14181e-07)
(318.336 5.24558e-06 -2.60346e-07)
(318.337 3.53911e-06 -2.00147e-07)
(318.336 1.39513e-06 -1.23724e-07)
(318.333 7.89269e-07 -1.02068e-07)
(318.33 -2.86559e-08 -7.97392e-08)
(318.328 -7.11949e-07 -6.61139e-08)
(318.325 -1.3092e-06 -4.24294e-08)
(318.322 -9.88956e-07 -5.29024e-08)
(318.321 6.41638e-07 -1.32162e-07)
(318.321 8.26587e-07 -1.56657e-07)
(318.32 1.1131e-06 -2.21027e-07)
(318.32 1.33647e-06 -2.55275e-07)
(318.319 7.92986e-07 -2.40405e-07)
(318.318 -1.13589e-06 -1.17209e-07)
(318.315 -1.58907e-06 -8.83803e-08)
(318.313 -2.30978e-06 -5.29215e-08)
(318.311 -2.17721e-06 -4.49977e-08)
(318.309 -1.19328e-06 -7.15913e-08)
(318.31 2.17453e-07 -1.27688e-07)
(318.312 1.29949e-06 -1.80746e-07)
(318.316 2.31183e-06 -2.41903e-07)
(318.321 1.68077e-06 -2.16823e-07)
(318.326 -6.53193e-07 -1.2399e-07)
(318.33 -3.31327e-06 6.77285e-09)
(318.331 -5.25673e-06 1.03779e-07)
(318.33 -5.70134e-06 1.25082e-07)
(318.329 -5.79818e-06 1.33549e-07)
(318.327 -5.70144e-06 1.37929e-07)
(318.325 -3.88718e-06 6.29961e-08)
(318.323 -8.50208e-07 -5.61526e-08)
(318.321 1.41207e-06 -1.39646e-07)
(318.32 3.73733e-06 -2.39029e-07)
(318.32 4.73829e-06 -2.8147e-07)
(318.32 4.59717e-06 -2.83296e-07)
(318.319 3.94514e-06 -2.4902e-07)
(318.318 1.74896e-06 -1.01381e-07)
(318.317 4.68755e-08 9.71738e-10)
(318.317 -3.40652e-07 1.95397e-08)
(318.318 -6.8218e-07 1.97483e-08)
(318.319 -9.29584e-07 -1.16462e-10)
(318.322 -9.02418e-07 -1.34051e-08)
(318.323 -5.20324e-07 -4.73595e-08)
(318.324 -1.52436e-07 -5.94185e-08)
(318.325 2.50161e-07 -7.62047e-08)
(318.327 1.06772e-06 -1.1237e-07)
(318.329 7.94804e-07 -7.52796e-08)
(318.331 8.80433e-07 -9.09442e-08)
(318.331 -3.5884e-07 3.15795e-09)
(318.332 -6.80767e-07 9.62097e-09)
(318.333 -1.70829e-06 6.37174e-08)
(318.332 -3.82382e-06 1.98196e-07)
(318.33 -3.38488e-06 1.68033e-07)
(318.326 -5.86474e-06 2.81042e-07)
(318.322 -2.9954e-06 2.00603e-07)
(318.316 -6.57995e-06 3.02828e-07)
(318.313 -7.86259e-07 1.82552e-08)
(318.312 -2.92868e-06 -2.00458e-08)
(318.311 1.28504e-06 -1.0795e-07)
(318.312 3.28569e-06 -2.8991e-07)
(318.314 1.10835e-06 -2.4839e-07)
(318.316 3.52162e-06 -4.73552e-08)
(318.315 -3.16015e-05 9.26692e-07)
(318.305 8.81e-05 -3.45005e-06)
(318.285 8.49226e-06 3.03997e-07)
(318.286 0.000111427 -5.07622e-06)
(318.32 -6.90111e-07 -1.3423e-06)
(318.442 -0.000243664 7.64097e-06)
(318.7 -0.000240438 2.262e-06)
(319.094 -0.000868218 4.5407e-05)
(319.581 0.000279303 -2.00957e-05)
(320.108 -0.000516075 2.13704e-05)
(320.634 0.000297235 -1.46285e-06)
(321.121 0.00338122 -0.000116385)
(321.559 0.00161465 -4.79803e-05)
(321.919 0.00536032 -0.000184722)
(322.161 -0.000618628 -0.000102828)
(322.201 -0.00657607 0.000231795)
(322.188 -0.00963988 0.000416515)
(322.158 -0.00756556 0.000374541)
(322.123 -0.00256861 0.000217542)
(322.088 0.00417461 1.14419e-05)
(322.09 0.0105404 -0.000379361)
(322.1 0.0106319 -0.000490027)
(322.117 0.00740639 -0.000436415)
(322.104 -0.000539895 -0.000116954)
(322.102 -0.00169363 -5.65291e-05)
(322.095 -0.00185353 -1.93705e-05)
(322.085 -0.00141294 -3.47127e-05)
(322.072 -0.00137008 -4.83848e-05)
(322.042 -0.00157768 -1.33013e-05)
(321.966 -0.00145953 7.06782e-06)
(321.8 -0.00121343 1.33606e-05)
(321.504 -0.001825 7.98389e-05)
(321.106 4.87005e-05 -0.000125444)
(320.714 -6.76882e-05 0.000176727)
(320.409 -0.00212127 0.000187715)
(320.183 -0.000692952 -0.000211883)
(320.002 0.000887197 -0.000163171)
(319.845 0.000904245 0.000105528)
(319.703 -7.25613e-05 0.000182841)
(319.573 -0.000938698 -9.05272e-05)
(319.454 -0.000918557 -0.000185835)
(319.345 -0.000435113 -0.000100842)
(319.248 -0.000258095 0.000126005)
(319.163 -0.000432098 0.000175518)
(319.091 -0.000426879 9.12662e-05)
(319.033 5.94449e-05 -4.37296e-05)
(318.987 0.000588441 -0.000103)
(318.952 0.000679705 -9.59383e-05)
(318.925 0.000331071 -8.57165e-05)
(318.905 -0.000162904 -8.90917e-05)
(318.892 -0.00053967 -8.30944e-05)
(318.881 -0.000635184 -4.8573e-05)
(318.87 -0.00048562 -4.92595e-06)
(318.858 -0.000307674 2.32944e-05)
(318.848 4.12836e-05 5.71288e-05)
(318.837 0.00038779 6.83448e-05)
(318.825 0.000463547 4.1942e-05)
(318.812 0.000430974 2.65352e-05)
(318.798 0.000355002 1.72214e-06)
(318.784 0.000108211 -6.46724e-06)
(318.77 -0.000146972 -1.60414e-06)
(318.754 -0.000284124 8.16138e-06)
(318.739 -0.000327894 2.33693e-05)
(318.724 -0.000306518 4.22612e-05)
(318.71 -0.000195308 5.84263e-05)
(318.696 -5.55331e-06 6.83509e-05)
(318.686 0.000195033 7.09067e-05)
(318.681 0.000277193 6.96167e-05)
(318.679 0.000314563 6.73085e-05)
(318.677 0.000272598 6.41922e-05)
(318.677 0.000132434 6.10883e-05)
(318.678 -2.02732e-05 5.7381e-05)
(318.68 -0.000121165 4.89515e-05)
(318.681 -0.000140459 3.68155e-05)
(318.68 -0.000107696 2.93454e-05)
(318.679 -6.9199e-05 2.72016e-05)
(318.677 2.1882e-05 3.13867e-05)
(318.675 0.000123098 5.01471e-05)
(318.672 0.000190569 7.37057e-05)
(318.669 0.0002051 8.99841e-05)
(318.665 0.000169327 9.33592e-05)
(318.659 0.000108977 8.63196e-05)
(318.653 4.378e-05 7.25846e-05)
(318.647 6.41678e-06 6.89084e-05)
(318.641 -3.14019e-05 5.07755e-05)
(318.635 -3.12796e-05 3.70802e-05)
(318.628 -1.22885e-05 2.20807e-05)
(318.623 1.36668e-05 6.83209e-06)
(318.619 3.85727e-05 -7.59359e-06)
(318.617 5.33854e-05 -1.6564e-05)
(318.615 6.41017e-05 -2.52015e-05)
(318.615 5.92345e-05 -2.58062e-05)
(318.616 3.07847e-05 -1.75587e-05)
(318.618 -1.07032e-06 -7.7252e-07)
(318.619 -1.80826e-05 2.13249e-05)
(318.619 -1.51385e-05 3.70072e-05)
(318.618 -2.73072e-06 3.99584e-05)
(318.617 8.86394e-06 3.73163e-05)
(318.615 3.58712e-05 2.4899e-05)
(318.613 6.16623e-05 -1.348e-06)
(318.612 7.45684e-05 -3.1571e-05)
(318.609 7.59946e-05 -6.33445e-05)
(318.605 5.84618e-05 -9.24519e-05)
(318.599 3.31943e-05 -0.000111064)
(318.592 9.31081e-06 -0.000119574)
(318.586 -2.90274e-05 -0.000122423)
(318.581 -5.79716e-05 -0.000115812)
(318.576 -6.39319e-05 -0.000104209)
(318.571 -6.34723e-05 -9.25408e-05)
(318.568 -6.50848e-05 -8.13778e-05)
(318.564 -5.55697e-05 -6.41271e-05)
(318.56 -3.07378e-05 -4.36009e-05)
(318.557 -9.67403e-06 -2.09858e-05)
(318.555 1.29228e-05 1.75195e-06)
(318.553 3.13825e-05 2.01871e-05)
(318.551 4.59684e-05 3.31121e-05)
(318.55 7.37147e-05 3.99103e-05)
(318.55 8.62248e-05 4.38579e-05)
(318.548 8.31074e-05 4.55479e-05)
(318.545 7.64217e-05 4.57798e-05)
(318.541 4.89721e-05 4.46991e-05)
(318.537 7.88769e-06 3.88619e-05)
(318.534 -2.76619e-05 3.27907e-05)
(318.53 -4.21346e-05 2.38852e-05)
(318.526 -5.74756e-05 1.35788e-05)
(318.521 -4.85998e-05 4.4402e-07)
(318.517 -4.2822e-07 -2.35823e-05)
(318.512 3.89108e-05 -5.05647e-05)
(318.51 4.98331e-05 -6.8919e-05)
(318.507 6.52099e-05 -8.78192e-05)
(318.506 9.16249e-05 -0.00011256)
(318.504 6.44419e-05 -0.000126398)
(318.502 -1.95643e-05 -0.00013188)
(318.501 -1.50423e-05 -0.000133152)
(318.502 1.65463e-05 -0.000128195)
(318.502 -2.36844e-05 -0.000116053)
(318.502 -7.02634e-05 -0.000105855)
(318.502 -3.7803e-05 -9.5493e-05)
(318.502 2.24875e-05 -8.81828e-05)
(318.502 2.39857e-05 -8.27441e-05)
(318.501 1.84821e-05 -7.94439e-05)
(318.501 1.33799e-05 -7.84806e-05)
(318.503 7.17441e-06 -7.82498e-05)
(318.503 -4.39829e-08 -7.7409e-05)
(318.502 -2.55631e-05 -7.48116e-05)
(318.499 -8.38849e-05 -6.77731e-05)
(318.496 -5.22223e-05 -6.02423e-05)
(318.491 4.56961e-06 -5.20568e-05)
(318.485 1.01543e-05 -4.4447e-05)
(318.48 -1.91361e-05 -3.52632e-05)
(318.476 -7.27337e-06 -2.76058e-05)
(318.474 3.54556e-06 -2.29277e-05)
(318.473 -1.04159e-06 -2.10631e-05)
(318.469 -1.76787e-05 -1.84113e-05)
(318.466 -3.81431e-05 -1.66974e-05)
(318.464 -3.20905e-05 -1.8035e-05)
(318.463 -5.71982e-06 -2.224e-05)
(318.463 -1.0379e-05 -2.58155e-05)
(318.464 -3.03204e-05 -2.84007e-05)
(318.466 -2.2293e-05 -3.15065e-05)
(318.468 -1.35824e-05 -3.34638e-05)
(318.468 1.27477e-05 -3.53798e-05)
(318.465 8.75186e-06 -3.56415e-05)
(318.463 1.82167e-06 -3.48597e-05)
(318.462 3.94263e-06 -3.4134e-05)
(318.461 4.28981e-05 -3.44951e-05)
(318.46 1.04587e-05 -3.11887e-05)
(318.458 -2.25226e-05 -2.78713e-05)
(318.456 2.75195e-05 -2.98163e-05)
(318.452 8.20031e-05 -3.14542e-05)
(318.447 -2.1588e-05 -2.59035e-05)
(318.444 -4.30838e-05 -2.27907e-05)
(318.441 3.35797e-05 -2.38933e-05)
(318.44 5.12104e-05 -2.25433e-05)
(318.438 3.73293e-05 -2.14604e-05)
(318.438 3.72347e-05 -2.10102e-05)
(318.441 5.00031e-05 -1.94831e-05)
(318.445 6.81626e-05 -1.863e-05)
(318.448 5.05737e-05 -1.52137e-05)
(318.451 -5.48606e-05 -8.72892e-06)
(318.452 -0.000141906 -3.43539e-06)
(318.454 -0.000101576 -3.63424e-07)
(318.455 2.22856e-05 -1.35176e-06)
(318.456 6.47633e-07 2.64291e-06)
(318.457 -3.67399e-05 6.33426e-06)
(318.46 -3.21607e-05 7.20155e-06)
(318.462 1.8469e-05 7.59891e-06)
(318.461 4.87646e-05 8.90429e-06)
(318.461 1.20797e-05 1.11845e-05)
(318.46 -9.83277e-05 1.19528e-05)
(318.458 -5.26745e-05 1.18961e-05)
(318.455 5.47769e-05 6.98279e-06)
(318.453 6.20766e-05 4.73451e-06)
(318.453 -7.00142e-05 1.18196e-05)
(318.452 -8.64112e-05 2.69731e-05)
(318.451 -5.62359e-05 3.79891e-05)
(318.448 -5.00246e-05 4.36193e-05)
(318.447 -5.33856e-05 5.11543e-05)
(318.446 -6.21483e-05 6.12987e-05)
(318.444 -5.12455e-06 7.72817e-05)
(318.442 0.000127847 9.77876e-05)
(318.442 0.000178754 0.000107744)
(318.443 4.50927e-05 0.000123679)
(318.444 -1.89178e-06 0.000129719)
(318.443 2.90373e-05 0.000127359)
(318.444 -7.73628e-06 0.00012505)
(318.444 -0.000110232 0.000126874)
(318.444 -0.000131788 0.000134929)
(318.442 -0.000134002 0.00014096)
(318.441 -9.14993e-05 0.000118317)
(318.441 2.21129e-05 7.40662e-05)
(318.439 0.000160795 4.4417e-05)
(318.435 0.000449522 5.04384e-05)
(318.429 0.000301839 7.80924e-05)
(318.428 0.000156852 0.000141659)
(318.423 3.68564e-05 0.000161561)
(318.42 -0.000551911 0.000139805)
(318.416 -0.00115766 9.2294e-05)
(318.414 -0.00159041 5.15402e-05)
(318.415 -0.00208211 4.45144e-05)
(318.415 -0.00247577 0.000108799)
(318.41 -0.002398 0.000244547)
(318.406 -0.00201127 0.000466847)
(318.405 -0.00141152 0.000488449)
(318.405 -0.00104336 0.000424476)
(318.405 7.77238e-05 -0.000392155)
(318.402 0.000200448 -0.00129814)
(318.404 -0.00103052 -0.00228243)
(318.401 -0.00495544 -0.00214642)
(318.401 -0.0115002 -0.000533283)
(318.404 -0.0209457 0.00224639)
(318.411 -0.0363477 0.00604158)
(318.417 -0.0557964 0.00910226)
(318.429 -0.0764868 0.00984318)
(318.446 -0.102513 0.00893232)
(318.471 -0.131074 0.0052644)
(318.506 -0.155594 -0.00321611)
(318.542 -0.172827 -0.0152398)
(318.576 -0.183161 -0.0252328)
(318.613 -0.175566 -0.0285241)
(318.646 -0.138957 -0.0225198)
(318.671 -0.0829405 -0.00563335)
(318.688 -0.000157414 0.0142527)
(318.696 0.0798002 0.0313108)
(318.695 0.196636 0.0297797)
(318.665 0.291575 0.0191886)
(318.619 0.341851 0.00473681)
(318.561 0.36651 -0.0112817)
(318.48 0.341698 -0.0201778)
(318.312 0.254865 -0.0177982)
(318.234 0.152635 -0.0103763)
(318.36 0.0826031 -0.00439544)
(318.29 0.0521757 -0.00166252)
(318.116 0.0411723 -0.000665584)
(318.083 0.0372413 -0.000283458)
(318.077 0.0345898 -1.6052e-05)
(318.081 0.0315241 0.000282307)
(318.102 0.0248724 0.00060295)
(318.145 0.0236003 0.000193177)
(318.201 0.0170537 0.000749944)
(318.263 0.00980254 0.00164204)
(318.267 0.00603194 0.00207907)
(318.217 0.00510567 0.00214241)
(318.164 0.003738 0.00218448)
(318.105 0.0024482 0.00218281)
(318.064 0.00145732 0.00212664)
(318.053 0.000814089 0.00203703)
(318.061 0.000486025 0.00196582)
(318.086 0.000127934 0.00185877)
(318.131 -0.000170082 0.00172369)
(318.172 -0.000350352 0.0015786)
(318.194 -0.000452579 0.00144886)
(318.204 -0.000498223 0.00135196)
(318.196 -0.00051195 0.00122623)
(318.164 -0.000468838 0.00109693)
(318.118 -0.000417661 0.000972001)
(318.09 -0.000404283 0.000848735)
(318.085 -0.000414492 0.000771633)
(318.086 -0.000428622 0.00067712)
(318.1 -0.000444187 0.000567807)
(318.128 -0.000488289 0.000474881)
(318.161 -0.000521504 0.000399231)
(318.181 -0.00050254 0.000332966)
(318.181 -0.000465668 0.000289622)
(318.175 -0.000397493 0.000238656)
(318.158 -0.000277554 0.000165655)
(318.131 -0.000143354 8.75117e-05)
(318.103 -3.46333e-05 6.6778e-06)
(318.089 3.16469e-05 -6.8036e-05)
(318.088 5.8526e-05 -0.000119474)
(318.094 6.34933e-05 -0.000160413)
(318.105 4.53027e-05 -0.000211166)
(318.12 -1.66132e-05 -0.000252403)
(318.13 -0.000122518 -0.000279809)
(318.13 -0.000198455 -0.000290619)
(318.127 -0.000305537 -0.00029963)
(318.116 -0.000396905 -0.000304088)
(318.094 -0.000426212 -0.000310545)
(318.07 -0.000350408 -0.000331912)
(318.058 -0.00014428 -0.00037661)
(318.056 5.82559e-05 -0.000416494)
(318.057 0.00042258 -0.000483092)
(318.064 0.000988345 -0.000571239)
(318.077 0.00173381 -0.000664117)
(318.089 0.0026036 -0.000760453)
(318.092 0.00326071 -0.000822899)
(318.091 0.00373171 -0.000847382)
(318.087 0.00416073 -0.000823088)
(318.079 0.00412609 -0.000746973)
(318.068 0.00345201 -0.000588831)
(318.06 0.00184471 -0.000348052)
(318.059 -0.000177994 -0.000154902)
(318.062 -0.00290269 2.09936e-05)
(318.068 -0.00794268 0.000199256)
(318.08 -0.0140154 0.000151591)
(318.095 -0.0199384 -0.000165786)
(318.106 -0.0238301 -0.000562792)
(318.11 -0.0247751 -0.000804413)
(318.112 -0.024518 -0.000934223)
(318.111 -0.0227535 -0.00112679)
(318.108 -0.0183666 -0.00105736)
(318.105 -0.0116495 -0.000664147)
(318.103 -0.00363039 -2.34171e-05)
(318.101 0.00552385 0.000982351)
(318.101 0.0140314 0.00241878)
(318.102 0.0214292 0.00389999)
(318.104 0.0274181 0.00531915)
(318.103 0.0306071 0.00692915)
(318.097 0.0318754 0.00865223)
(318.089 0.0313476 0.0104192)
(318.078 0.0280957 0.0117734)
(318.068 0.0213163 0.0125853)
(318.061 0.0129626 0.0124932)
(318.057 0.00572413 0.0113177)
(318.054 0.000847281 0.0104834)
(318.057 -0.00163688 0.0105125)
(318.067 -0.00341837 0.0109624)
(318.078 -0.00487948 0.0116121)
(318.085 -0.00589014 0.0122673)
(318.088 -0.00635356 0.012624)
(318.09 -0.00686238 0.0130087)
(318.09 -0.0069161 0.0131658)
(318.089 -0.00627452 0.0130913)
(318.086 -0.0049382 0.0124896)
(318.083 -0.00319795 0.0110158)
(318.082 -0.0016164 0.00881242)
(318.083 -0.000509645 0.00656025)
(318.085 0.000207199 0.0047232)
(318.089 0.000596588 0.00347502)
(318.091 0.000691314 0.00293486)
(318.092 0.000701859 0.00269141)
(318.091 0.00068179 0.00252)
(318.088 0.000627504 0.00235)
(318.082 0.000577746 0.00223941)
(318.075 0.000520694 0.00216226)
(318.069 0.000426188 0.00200456)
(318.065 0.000315653 0.00179188)
(318.065 0.000203391 0.00156715)
(318.068 6.6311e-05 0.00131829)
(318.07 1.28237e-05 0.00122502)
(318.072 -6.68625e-05 0.00109223)
(318.074 -0.000130246 0.000993652)
(318.074 -0.00017498 0.000927988)
(318.074 -0.000221483 0.000855481)
(318.07 -0.000259105 0.000785523)
(318.066 -0.000277899 0.000724154)
(318.061 -0.000265945 0.000673473)
(318.059 -0.000233877 0.000636669)
(318.059 -0.000190368 0.000601378)
(318.06 -0.000144193 0.000564832)
(318.061 -0.00010832 0.000526943)
(318.062 -7.39178e-05 0.00047264)
(318.062 -5.29756e-05 0.000410302)
(318.061 -4.87462e-05 0.000346809)
(318.06 -5.76484e-05 0.000286733)
(318.056 -6.89861e-05 0.000233959)
(318.05 -7.16109e-05 0.000188889)
(318.043 -6.23897e-05 0.000152445)
(318.036 -4.4791e-05 0.000124896)
(318.031 -2.43735e-05 0.000104967)
(318.028 -8.17818e-06 9.21256e-05)
(318.026 1.50383e-06 8.4224e-05)
(318.025 4.99359e-06 7.90458e-05)
(318.024 3.31474e-06 7.50306e-05)
(318.023 -3.68466e-06 7.14244e-05)
(318.02 -1.25976e-05 6.72989e-05)
(318.016 -2.9425e-05 6.41634e-05)
(318.01 -4.26475e-05 5.95096e-05)
(318.005 -5.48709e-05 5.59266e-05)
(318.003 -6.20473e-05 5.40462e-05)
(318.002 -5.54756e-05 5.35868e-05)
(318.002 -3.66078e-05 5.57922e-05)
(318.002 -1.23642e-05 6.00817e-05)
(318.003 1.07156e-05 6.2894e-05)
(318.003 2.87048e-05 6.29066e-05)
(318.003 3.67663e-05 6.08301e-05)
(318.003 3.1177e-05 5.57321e-05)
(318.001 1.51537e-05 4.77826e-05)
(317.999 -4.94283e-06 4.03619e-05)
(317.995 -2.40065e-05 3.53853e-05)
(317.992 -3.54411e-05 3.33783e-05)
(317.988 -3.75657e-05 3.06749e-05)
(317.986 -2.78035e-05 2.85166e-05)
(317.985 -1.19915e-05 2.40689e-05)
(317.984 5.6264e-06 2.193e-05)
(317.984 1.95827e-05 2.01559e-05)
(317.983 2.99313e-05 1.8389e-05)
(317.981 3.35288e-05 1.70309e-05)
(317.978 2.72219e-05 1.51858e-05)
(317.974 1.38278e-05 1.35289e-05)
(317.969 -1.93894e-06 1.15626e-05)
(317.963 -1.22925e-05 1.00638e-05)
(317.957 -1.40108e-05 9.47904e-06)
(317.953 -5.84016e-06 6.42273e-06)
(317.951 1.01315e-05 5.40909e-06)
(317.949 2.73284e-05 4.61658e-06)
(317.947 4.41333e-05 5.22238e-06)
(317.946 5.69399e-05 8.24781e-06)
(317.944 6.14219e-05 1.09909e-05)
(317.942 5.83071e-05 1.30686e-05)
(317.938 4.64618e-05 1.19339e-05)
(317.934 2.63524e-05 6.29372e-06)
(317.929 3.70387e-06 1.44124e-06)
(317.924 -1.69929e-05 8.80577e-07)
(317.919 -3.22549e-05 4.79104e-07)
(317.915 -3.91426e-05 7.02253e-07)
(317.912 -3.67545e-05 2.13514e-06)
(317.909 -2.94539e-05 4.52574e-06)
(317.907 -2.1393e-05 4.93535e-06)
(317.904 -1.26265e-05 5.45344e-06)
(317.901 -6.62254e-06 5.80722e-06)
(317.896 -5.57522e-06 6.3313e-06)
(317.891 -9.63316e-06 8.18266e-06)
(317.885 -1.81552e-05 8.98865e-06)
(317.879 -2.89127e-05 7.64676e-06)
(317.873 -3.66048e-05 6.96698e-06)
(317.868 -3.86734e-05 7.34173e-06)
(317.864 -3.74205e-05 7.33103e-06)
(317.86 -3.38186e-05 6.10643e-06)
(317.857 -2.88707e-05 4.29979e-06)
(317.853 -2.56286e-05 1.60342e-06)
(317.85 -2.4222e-05 -1.46481e-06)
(317.845 -2.20904e-05 -3.06472e-06)
(317.84 -2.18212e-05 -2.4898e-06)
(317.835 -2.4889e-05 -8.87534e-07)
(317.829 -3.00078e-05 -7.19135e-07)
(317.823 -3.5573e-05 -1.11572e-07)
(317.818 -3.87545e-05 2.56225e-07)
(317.814 -4.20214e-05 -1.43716e-06)
(317.81 -4.6852e-05 -5.03585e-06)
(317.806 -5.04067e-05 -9.08357e-06)
(317.803 -5.03251e-05 -1.24221e-05)
(317.799 -4.84332e-05 -1.59938e-05)
(317.794 -4.76096e-05 -2.06674e-05)
(317.789 -4.83668e-05 -2.43826e-05)
(317.784 -4.79548e-05 -2.6025e-05)
(317.778 -4.36589e-05 -2.7801e-05)
(317.771 -3.38219e-05 -3.1534e-05)
(317.765 -2.25175e-05 -3.63901e-05)
(317.759 -1.42006e-05 -4.12845e-05)
(317.754 -1.09881e-05 -4.50009e-05)
(317.749 -8.50887e-06 -4.85089e-05)
(317.744 -7.20956e-06 -5.29005e-05)
(317.739 -7.01429e-06 -5.81475e-05)
(317.734 -7.06169e-06 -6.23859e-05)
(317.728 -6.78363e-06 -6.48714e-05)
(317.721 -6.10971e-06 -6.52656e-05)
(317.714 -5.56476e-06 -6.54154e-05)
(317.707 -5.4353e-06 -6.72607e-05)
(317.7 -5.86228e-06 -7.11284e-05)
(317.693 -6.32932e-06 -7.5615e-05)
(317.686 -6.27399e-06 -7.85537e-05)
(317.68 -5.80879e-06 -7.82041e-05)
(317.674 -5.45365e-06 -7.53778e-05)
(317.667 -6.15319e-06 -7.19781e-05)
(317.661 -7.81405e-06 -6.99438e-05)
(317.653 -9.82525e-06 -7.00273e-05)
(317.645 -1.09893e-05 -7.22968e-05)
(317.637 -1.15457e-05 -7.6153e-05)
(317.628 -1.21114e-05 -7.98223e-05)
(317.619 -1.22744e-05 -8.33021e-05)
(317.611 -1.15896e-05 -8.45854e-05)
(317.602 -1.02677e-05 -8.50009e-05)
(317.594 -9.18655e-06 -8.38095e-05)
(317.586 -8.4316e-06 -8.3101e-05)
(317.579 -8.20665e-06 -8.24238e-05)
(317.571 -8.1706e-06 -8.22402e-05)
(317.562 -8.77721e-06 -8.25021e-05)
(317.554 -9.68688e-06 -8.30779e-05)
(317.545 -1.04469e-05 -8.35476e-05)
(317.536 -1.00471e-05 -8.44975e-05)
(317.527 -8.45623e-06 -8.62935e-05)
(317.518 -6.88799e-06 -8.83465e-05)
(317.51 -5.69522e-06 -8.95572e-05)
(317.501 -4.60302e-06 -8.99773e-05)
(317.493 -3.87566e-06 -8.99891e-05)
(317.485 -2.90786e-06 -9.0782e-05)
(317.477 -1.87638e-06 -9.10375e-05)
(317.469 -1.5104e-06 -9.06032e-05)
(317.46 -1.51874e-06 -9.05797e-05)
(317.451 -1.78207e-06 -9.13427e-05)
(317.441 -1.7197e-06 -9.17138e-05)
(317.432 -2.27305e-06 -9.22657e-05)
(317.422 -9.52258e-07 -9.22881e-05)
(317.413 -3.63244e-06 -9.26414e-05)
(317.404 7.64032e-07 -9.22122e-05)
(317.396 -7.85013e-06 -9.23898e-05)
(317.387 6.76179e-06 -9.07161e-05)
(317.379 -1.20848e-05 -9.34594e-05)
(317.371 1.12373e-05 -8.74128e-05)
(317.362 -1.20338e-05 -9.53867e-05)
(317.354 8.29218e-06 -8.37297e-05)
(317.346 -1.30035e-05 -9.83096e-05)
(317.338 2.80692e-05 -7.82937e-05)
(317.33 -6.31461e-05 -9.34252e-05)
(317.322 7.90003e-05 -8.68127e-05)
(317.313 -4.85859e-05 -8.39676e-05)
(317.304 -1.83791e-05 -8.89564e-05)
(317.293 9.14896e-05 -8.8017e-05)
(317.281 -7.75501e-05 -8.41701e-05)
(317.268 -0.000198064 -7.84911e-05)
(317.275 -0.000339598 -7.44704e-05)
(317.438 0.000354292 -9.87236e-05)
(318.664 0.0135856 -0.000638391)
(322.528 -0.0266869 0.00116862)
(329.126 0.179242 -0.00767339)
(337.439 -0.053408 0.00228837)
(346.864 0.252978 -0.0111543)
(356.75 -0.0346058 0.000780074)
(367.429 0.178125 -0.00776401)
(378.81 -0.154394 0.00312668)
(395.639 -0.0324617 0.000774509)
(347.059 -3.27451e-12 -2.77583e-11)
(347.059 -6.04702e-12 -2.79764e-11)
(347.059 -1.44666e-11 -2.72559e-11)
(347.059 -1.7795e-11 -2.93676e-11)
(347.059 -1.69423e-11 -2.99349e-11)
(347.059 -1.4468e-11 -2.98525e-11)
(347.059 -1.39585e-11 -2.90441e-11)
(347.059 -1.54395e-11 -2.73368e-11)
(347.059 -1.85657e-11 -2.69473e-11)
(347.059 -2.6977e-11 -2.48159e-11)
(347.059 -3.09712e-11 -2.67035e-11)
(347.059 -3.12198e-11 -2.04998e-11)
(347.059 -2.5574e-11 -2.14172e-11)
(347.059 -1.73845e-11 -2.31453e-11)
(347.059 -1.35037e-11 -2.19655e-11)
(347.059 -9.55669e-12 -2.29856e-11)
(347.059 -7.77782e-12 -2.68933e-11)
(347.059 -6.72397e-12 -2.43269e-11)
(347.059 -5.11204e-12 -2.53559e-11)
(347.059 -6.009e-12 -2.63231e-11)
(347.059 -8.45717e-12 -2.76743e-11)
(347.059 -1.24146e-11 -2.78393e-11)
(347.059 -1.661e-11 -2.66708e-11)
(347.059 -1.61244e-11 -2.58592e-11)
(347.059 -1.23794e-11 -2.51228e-11)
(347.059 1.68336e-12 -2.53998e-11)
(347.059 2.76973e-11 -2.56753e-11)
(347.056 -9.58682e-09 3.72483e-10)
(346.963 4.20056e-07 -1.80077e-08)
(344.757 -1.15894e-05 4.9421e-07)
(328.727 5.79019e-05 -2.50696e-06)
(318.591 -3.83171e-06 1.65414e-07)
(318.36 -8.83039e-06 3.71581e-07)
(318.348 -1.50835e-05 6.39863e-07)
(318.328 -1.94704e-05 8.35522e-07)
(318.313 -1.94605e-05 8.3749e-07)
(318.3 -1.60684e-05 7.01223e-07)
(318.288 -3.70262e-06 1.83444e-07)
(318.273 1.22965e-05 -5.1652e-07)
(318.272 2.03215e-05 -8.66764e-07)
(318.275 2.14981e-05 -9.07726e-07)
(318.276 1.92004e-05 -8.11021e-07)
(318.279 1.14954e-05 -4.89791e-07)
(318.285 1.3495e-07 1.90104e-09)
(318.282 -9.15697e-06 4.16227e-07)
(318.269 -1.54744e-05 6.79338e-07)
(318.264 -1.42243e-05 6.05946e-07)
(318.264 -1.01906e-05 4.24726e-07)
(318.264 -9.63175e-07 2.40677e-08)
(318.265 5.41119e-06 -2.63653e-07)
(318.275 6.90357e-06 -3.28122e-07)
(318.29 6.43464e-06 -2.75025e-07)
(318.3 5.3321e-06 -2.16291e-07)
(318.312 -7.44952e-07 5.42214e-08)
(318.326 -1.10989e-05 5.2199e-07)
(318.337 -8.81715e-06 4.27462e-07)
(318.343 -7.51212e-06 3.69017e-07)
(318.347 -6.09265e-06 3.05527e-07)
(318.348 -2.64921e-06 1.59454e-07)
(318.344 1.23902e-05 -5.06991e-07)
(318.337 1.46183e-05 -6.1114e-07)
(318.334 1.34925e-05 -5.77084e-07)
(318.333 1.27103e-05 -5.49599e-07)
(318.333 9.7915e-06 -4.24959e-07)
(318.335 7.9681e-07 -3.07126e-08)
(318.341 -6.89045e-06 3.2768e-07)
(318.342 -7.52831e-06 3.66224e-07)
(318.339 -4.6907e-06 2.50413e-07)
(318.335 -3.02169e-06 1.79864e-07)
(318.328 -4.92216e-07 7.74287e-08)
(318.318 1.17149e-05 -4.69341e-07)
(318.309 1.27193e-05 -5.1861e-07)
(318.305 9.69057e-06 -3.88267e-07)
(318.303 7.15367e-06 -2.81366e-07)
(318.304 4.67471e-06 -1.78064e-07)
(318.308 -6.89225e-06 3.2245e-07)
(318.315 -1.04362e-05 4.76499e-07)
(318.32 -1.27669e-05 5.77724e-07)
(318.322 -1.31578e-05 5.98025e-07)
(318.322 -1.20538e-05 5.50774e-07)
(318.32 -8.89164e-06 4.10397e-07)
(318.317 -2.00834e-06 1.03631e-07)
(318.31 -3.41207e-07 2.89379e-08)
(318.307 1.04393e-06 -2.58486e-08)
(318.308 1.49589e-06 -4.3912e-08)
(318.31 6.15651e-07 -9.60498e-09)
(318.314 -1.52772e-06 7.96254e-08)
(318.319 -1.85365e-07 1.67561e-08)
(318.324 1.537e-06 -2.82033e-08)
(318.324 2.84225e-06 -7.05959e-08)
(318.324 3.06155e-06 -7.9854e-08)
(318.322 3.67815e-06 -1.13739e-07)
(318.32 6.39924e-06 -2.45205e-07)
(318.315 3.94215e-06 -1.45012e-07)
(318.313 3.3959e-06 -1.20871e-07)
(318.315 1.13839e-06 -2.5953e-08)
(318.318 -5.60811e-07 4.42717e-08)
(318.321 -3.53955e-07 2.90898e-08)
(318.325 2.0891e-06 -9.87106e-08)
(318.33 2.82211e-06 -1.36198e-07)
(318.333 2.84976e-06 -1.49361e-07)
(318.335 3.3596e-06 -1.79053e-07)
(318.336 4.65717e-06 -2.26662e-07)
(318.337 2.97657e-06 -1.71351e-07)
(318.336 9.70001e-07 -1.03414e-07)
(318.333 4.55806e-07 -8.65458e-08)
(318.33 -1.40637e-07 -7.81965e-08)
(318.328 -4.90091e-07 -6.65297e-08)
(318.325 -9.31058e-07 -3.91523e-08)
(318.322 -4.14646e-07 -5.11988e-08)
(318.321 1.83067e-06 -1.62e-07)
(318.321 2.17133e-06 -1.97581e-07)
(318.32 2.20005e-06 -2.53046e-07)
(318.32 2.29182e-06 -2.82011e-07)
(318.319 1.69404e-06 -2.71012e-07)
(318.318 -3.99861e-07 -1.5354e-07)
(318.315 -8.92644e-07 -1.19564e-07)
(318.313 -1.76761e-06 -7.71006e-08)
(318.311 -1.86412e-06 -5.96868e-08)
(318.309 -1.09501e-06 -7.34107e-08)
(318.31 9.04427e-08 -1.17569e-07)
(318.312 1.0616e-06 -1.61809e-07)
(318.316 2.01987e-06 -2.13464e-07)
(318.321 1.2901e-06 -1.80458e-07)
(318.326 -1.01579e-06 -8.4061e-08)
(318.33 -3.67209e-06 3.05957e-08)
(318.331 -5.55536e-06 1.17457e-07)
(318.33 -5.91208e-06 1.34656e-07)
(318.329 -5.81758e-06 1.33697e-07)
(318.327 -5.70965e-06 1.35518e-07)
(318.325 -3.91481e-06 6.50591e-08)
(318.323 -8.42879e-07 -5.37663e-08)
(318.321 1.51126e-06 -1.39363e-07)
(318.32 3.88851e-06 -2.38863e-07)
(318.32 4.93636e-06 -2.81275e-07)
(318.32 4.77493e-06 -2.83412e-07)
(318.319 4.1925e-06 -2.52008e-07)
(318.318 1.99462e-06 -1.12082e-07)
(318.317 1.9067e-07 -9.76249e-09)
(318.317 -2.43373e-07 9.08772e-09)
(318.318 -7.82124e-07 1.64518e-08)
(318.319 -1.34967e-06 9.70075e-09)
(318.322 -1.46639e-06 2.29713e-09)
(318.323 -1.27246e-06 -2.62348e-08)
(318.324 -1.12323e-06 -3.01795e-08)
(318.325 -7.96374e-07 -5.19317e-08)
(318.327 7.06115e-08 -6.48247e-08)
(318.329 3.74501e-08 -3.75023e-08)
(318.331 4.63842e-07 -6.62699e-08)
(318.331 -6.50932e-07 1.73352e-08)