/*--------------------------------*- C++ -*----------------------------------*\
| =========                 |                                                 |
| \\      /  F ield         | OpenFOAM: The Open Source CFD Toolbox           |
|  \\    /   O peration     | Version:  2406                                  |
|   \\  /    A nd           | Website:  www.openfoam.com                      |
|    \\/     M anipulation  |                                                 |
\*---------------------------------------------------------------------------*/
FoamFile
{
    version     2.0;
    format      ascii;
    arch        "LSB;label=32;scalar=64";
    class       volScalarField;
    location    "0.015";
    object      Ma;
}
// * * * * * * * * * * * * * * * * * * * * * * * * * * * * * * * * * * * * * //

dimensions      [0 0 0 0 0 0 0];

internalField   nonuniform List<scalar> 
14020
(
2.34682e-14
2.32896e-14
2.42343e-14
2.39086e-14
2.48543e-14
2.89254e-14
2.88765e-14
3.09018e-14
2.97732e-14
2.67564e-14
2.32938e-14
2.1168e-14
1.7616e-14
1.78227e-14
2.11765e-14
2.04826e-14
2.21198e-14
2.06933e-14
1.88109e-14
1.81075e-14
1.77037e-14
1.31874e-14
1.99942e-14
2.03535e-14
1.49755e-14
1.70354e-14
1.83182e-14
2.75987e-14
3.09699e-14
3.08228e-14
3.3635e-14
3.48091e-14
3.57147e-14
3.28036e-14
3.10096e-14
2.53279e-14
2.0215e-14
1.63406e-14
9.21042e-15
7.65743e-15
1.03614e-14
9.49998e-15
1.59954e-14
1.53817e-14
1.3753e-14
1.42541e-14
1.55965e-14
1.42787e-14
7.54843e-15
3.80505e-15
5.28427e-15
4.47006e-15
5.39348e-15
7.07943e-15
7.81664e-15
7.92638e-15
9.57667e-15
1.25702e-14
1.31253e-14
1.41966e-14
1.13488e-14
8.74489e-15
1.17525e-14
8.18468e-15
1.70123e-15
8.47871e-15
1.24614e-14
1.16357e-14
1.47103e-14
1.6866e-14
1.60429e-14
1.90414e-14
2.41191e-14
2.85555e-14
4.53796e-14
6.36694e-14
6.5851e-14
6.04976e-14
5.34854e-14
4.67707e-14
4.33693e-14
4.05545e-14
3.13745e-14
2.98446e-14
2.85691e-14
2.47371e-14
2.23988e-14
2.25268e-14
2.02842e-14
1.77371e-14
1.65414e-14
1.82668e-14
2.09704e-14
2.11164e-14
2.18438e-14
1.76794e-14
1.632e-14
1.63421e-14
1.9052e-14
1.96392e-14
1.92572e-14
1.7804e-14
1.9434e-14
2.27923e-14
2.23144e-14
2.30198e-14
2.53637e-14
2.25554e-14
1.94785e-14
1.58201e-14
1.43082e-14
1.77949e-14
1.76284e-14
2.01969e-14
2.10373e-14
2.03845e-14
1.86271e-14
1.92126e-14
1.76786e-14
1.5971e-14
1.40706e-14
1.57667e-14
1.98537e-14
2.36079e-14
2.68084e-14
3.18585e-14
3.90103e-14
3.50085e-14
3.81546e-14
3.82789e-14
3.80053e-14
3.58959e-14
3.61506e-14
4.03551e-14
4.09275e-14
4.32737e-14
4.41685e-14
4.45349e-14
3.84044e-14
3.27609e-14
3.06608e-14
3.43795e-14
3.49462e-14
3.24432e-14
2.9937e-14
2.84117e-14
2.9055e-14
2.93464e-14
2.78001e-14
2.53474e-14
2.066e-14
9.47996e-15
9.84345e-15
9.87593e-15
6.8481e-15
4.88799e-15
5.68061e-15
5.64923e-15
8.15165e-15
9.88573e-15
1.58145e-14
2.08305e-14
2.26312e-14
2.42911e-14
2.57059e-14
2.67409e-14
2.43652e-14
1.79607e-14
1.70783e-14
1.70551e-14
1.94304e-14
2.30303e-14
2.78525e-14
3.2304e-14
3.5378e-14
3.8643e-14
3.83564e-14
3.98479e-14
3.97437e-14
3.27929e-14
2.97605e-14
3.42821e-14
4.02218e-14
3.61041e-14
3.72288e-14
3.94951e-14
3.89274e-14
3.40393e-14
2.95938e-14
3.23645e-14
2.93058e-14
2.33964e-14
1.95778e-14
1.61244e-14
2.04697e-14
2.56135e-14
2.40447e-14
2.43068e-14
2.28211e-14
2.14137e-14
1.86361e-14
1.25957e-14
7.35384e-15
9.08747e-15
8.84566e-15
1.11513e-14
1.71081e-14
2.91345e-14
3.92815e-14
3.95061e-14
3.52603e-14
3.18148e-14
2.93888e-14
2.64322e-14
2.10349e-14
2.26716e-14
1.8698e-14
2.01058e-14
2.31765e-14
2.55737e-14
2.6163e-14
2.53362e-14
2.37733e-14
2.44196e-14
2.33965e-14
2.67051e-14
2.49901e-14
2.26722e-14
2.63329e-14
2.5276e-14
1.85594e-14
2.67344e-14
2.57408e-14
2.74152e-14
2.60391e-14
2.7169e-14
2.94991e-14
2.89111e-14
3.08776e-14
2.78369e-14
2.66841e-14
2.50184e-14
2.29977e-14
1.92258e-14
1.75962e-14
1.96303e-14
2.18024e-14
2.2351e-14
1.95826e-14
1.82633e-14
1.94655e-14
1.75018e-14
1.01158e-14
1.20829e-14
1.40038e-14
1.66986e-14
1.86851e-14
2.38577e-14
2.79928e-14
3.14486e-14
3.3352e-14
3.38426e-14
3.48659e-14
3.43809e-14
3.37857e-14
3.07257e-14
2.46451e-14
1.99471e-14
1.78758e-14
1.00833e-14
1.00631e-14
1.347e-14
1.15598e-14
1.38613e-14
1.42018e-14
1.50778e-14
1.36368e-14
1.36089e-14
9.76303e-15
5.18931e-15
5.28806e-15
6.48534e-15
6.11804e-15
6.83491e-15
7.12907e-15
7.63698e-15
1.00356e-14
1.18903e-14
1.44711e-14
1.439e-14
1.38893e-14
1.10877e-14
1.16293e-14
1.21492e-14
6.60044e-15
1.496e-15
8.49975e-15
1.20585e-14
1.31818e-14
1.73153e-14
2.07678e-14
1.9635e-14
2.07305e-14
2.49563e-14
2.89582e-14
4.15266e-14
5.39127e-14
5.88702e-14
5.50256e-14
5.03539e-14
4.51787e-14
4.31284e-14
4.10121e-14
3.01909e-14
2.87075e-14
2.90913e-14
2.65045e-14
2.51185e-14
2.38495e-14
2.11439e-14
1.75392e-14
1.80528e-14
1.61425e-14
2.11229e-14
2.33992e-14
2.3572e-14
1.93152e-14
1.85514e-14
1.97005e-14
2.13168e-14
2.28822e-14
2.27693e-14
2.06961e-14
2.19129e-14
2.30974e-14
2.40819e-14
2.40489e-14
2.2239e-14
1.86451e-14
1.85946e-14
1.68862e-14
1.71592e-14
1.90117e-14
2.05678e-14
2.27573e-14
2.19627e-14
2.24492e-14
2.09025e-14
2.07311e-14
1.76366e-14
1.74538e-14
1.49281e-14
1.59596e-14
2.08051e-14
2.31017e-14
2.69471e-14
3.29705e-14
3.72025e-14
3.45824e-14
3.57465e-14
3.79718e-14
3.72827e-14
3.70379e-14
3.59402e-14
3.9587e-14
4.39328e-14
4.44281e-14
4.4149e-14
3.91825e-14
3.28369e-14
3.16457e-14
3.20037e-14
3.19047e-14
3.39395e-14
3.31744e-14
2.97909e-14
2.79493e-14
2.79726e-14
2.73088e-14
2.54607e-14
2.33448e-14
1.83034e-14
1.40918e-14
1.26106e-14
9.80731e-15
7.22591e-15
7.3465e-15
9.44502e-15
9.3291e-15
1.24838e-14
1.42365e-14
1.87008e-14
2.44561e-14
2.39315e-14
2.35252e-14
2.47307e-14
2.41015e-14
2.14035e-14
1.84846e-14
1.83101e-14
1.86546e-14
2.17618e-14
2.37637e-14
2.78289e-14
3.15039e-14
3.29999e-14
3.62508e-14
3.92928e-14
4.23544e-14
4.19689e-14
3.64695e-14
3.15345e-14
3.56894e-14
4.08954e-14
3.70922e-14
3.93454e-14
4.0285e-14
4.10798e-14
3.62773e-14
3.14451e-14
3.31855e-14
2.86306e-14
2.24557e-14
2.19601e-14
2.17269e-14
2.42603e-14
2.52598e-14
2.22338e-14
2.47453e-14
2.48809e-14
2.23115e-14
1.93338e-14
1.39886e-14
1.08439e-14
1.30128e-14
1.29155e-14
1.3516e-14
1.65722e-14
2.66229e-14
3.32499e-14
3.67236e-14
3.49513e-14
3.21333e-14
2.85996e-14
2.58576e-14
2.31586e-14
2.27977e-14
2.02788e-14
2.07389e-14
2.34806e-14
2.58399e-14
2.56135e-14
2.58045e-14
2.49681e-14
2.5907e-14
2.50319e-14
2.68416e-14
2.85593e-14
2.46501e-14
2.65845e-14
2.58435e-14
1.95943e-14
2.43238e-14
2.30072e-14
2.46949e-14
2.44868e-14
2.3886e-14
2.43504e-14
2.45116e-14
2.45003e-14
2.4814e-14
2.41809e-14
2.26218e-14
2.115e-14
1.69293e-14
1.93075e-14
2.0166e-14
2.22122e-14
2.3649e-14
2.02829e-14
1.79458e-14
1.82154e-14
1.46018e-14
9.57182e-15
7.9771e-15
1.15846e-14
1.69638e-14
1.86184e-14
2.35141e-14
2.78116e-14
3.28251e-14
3.15602e-14
3.09598e-14
3.08808e-14
3.06293e-14
2.92841e-14
2.65536e-14
2.20891e-14
1.88826e-14
1.35838e-14
1.1387e-14
1.1864e-14
1.19978e-14
1.13768e-14
9.47466e-15
1.00601e-14
1.14793e-14
1.26721e-14
1.28829e-14
9.95183e-15
7.561e-15
8.37724e-15
8.79742e-15
1.00334e-14
1.17404e-14
1.15724e-14
1.2208e-14
1.33696e-14
1.33365e-14
1.29174e-14
1.34003e-14
1.39124e-14
1.24825e-14
1.12953e-14
1.16196e-14
7.68954e-15
4.7631e-15
9.68911e-15
1.36482e-14
1.11412e-14
1.42714e-14
1.66308e-14
1.79906e-14
2.01038e-14
2.42115e-14
2.82534e-14
3.64411e-14
4.3404e-14
4.60529e-14
4.57175e-14
4.26578e-14
3.82569e-14
3.53088e-14
3.29336e-14
2.44026e-14
2.34332e-14
2.57411e-14
2.50159e-14
2.38487e-14
2.09299e-14
1.82991e-14
1.6801e-14
1.74192e-14
1.79237e-14
1.94213e-14
1.93636e-14
1.66444e-14
1.73116e-14
1.67984e-14
1.86081e-14
2.0761e-14
2.41509e-14
2.36383e-14
2.03807e-14
2.06477e-14
2.23565e-14
2.32886e-14
2.19467e-14
1.98872e-14
1.84033e-14
2.14388e-14
1.95758e-14
1.99354e-14
1.71588e-14
1.81298e-14
2.26999e-14
2.27834e-14
2.40246e-14
2.1781e-14
1.96866e-14
1.8559e-14
1.64515e-14
1.54823e-14
1.82028e-14
2.11524e-14
2.42681e-14
2.60477e-14
3.18507e-14
3.60906e-14
3.49522e-14
3.32515e-14
3.41086e-14
3.27853e-14
3.25501e-14
3.46449e-14
3.81859e-14
4.42041e-14
3.99907e-14
3.58525e-14
3.45832e-14
3.19883e-14
3.32368e-14
3.03901e-14
3.04864e-14
3.08627e-14
2.93218e-14
2.79042e-14
2.66799e-14
2.68934e-14
2.5217e-14
2.09362e-14
2.03351e-14
1.96828e-14
1.5884e-14
1.1259e-14
8.6481e-15
7.33661e-15
7.53863e-15
1.01268e-14
1.28612e-14
1.461e-14
1.60433e-14
1.67715e-14
1.95007e-14
2.07888e-14
2.05808e-14
2.06092e-14
1.77126e-14
1.50107e-14
1.42146e-14
1.63277e-14
1.79068e-14
2.15654e-14
2.32784e-14
2.66988e-14
2.93664e-14
3.14899e-14
3.38535e-14
3.56153e-14
3.82559e-14
3.91088e-14
3.48408e-14
3.09865e-14
3.20787e-14
3.39805e-14
3.43936e-14
3.45676e-14
3.30937e-14
3.38521e-14
3.10817e-14
2.85032e-14
2.93696e-14
2.50843e-14
2.37488e-14
2.53816e-14
2.37665e-14
2.42724e-14
2.37303e-14
2.16498e-14
2.49482e-14
2.45326e-14
2.23802e-14
1.97789e-14
1.51591e-14
1.40001e-14
1.43644e-14
1.33203e-14
1.43505e-14
1.89077e-14
2.57537e-14
3.03817e-14
3.09061e-14
3.22884e-14
2.83328e-14
2.43117e-14
2.3235e-14
2.27278e-14
2.24178e-14
1.98224e-14
1.7689e-14
1.94359e-14
2.24016e-14
2.39131e-14
2.32806e-14
2.32175e-14
2.34858e-14
2.31915e-14
2.29865e-14
2.66651e-14
2.54468e-14
2.41538e-14
2.52556e-14
1.96198e-14
1.75193e-14
1.673e-14
1.70349e-14
1.6685e-14
1.7634e-14
1.95848e-14
1.97892e-14
1.99985e-14
2.1908e-14
2.14481e-14
1.88225e-14
1.75844e-14
1.79369e-14
1.93258e-14
1.91857e-14
2.14254e-14
2.25294e-14
2.08116e-14
1.90205e-14
1.66725e-14
1.38429e-14
1.29018e-14
1.32139e-14
1.43604e-14
1.78546e-14
2.18505e-14
2.1464e-14
2.25352e-14
2.54234e-14
2.63613e-14
2.55123e-14
2.50134e-14
2.33857e-14
2.12811e-14
1.92808e-14
1.86746e-14
1.4606e-14
8.66653e-15
8.5335e-15
1.09686e-14
9.83765e-15
7.31425e-15
7.30519e-15
4.92391e-15
6.55705e-15
1.04414e-14
1.14361e-14
9.57337e-15
8.9882e-15
1.07006e-14
1.01856e-14
1.09752e-14
1.22268e-14
1.19127e-14
1.17158e-14
1.28068e-14
1.22044e-14
1.1417e-14
1.17008e-14
9.99628e-15
8.66524e-15
1.26356e-14
1.10276e-14
7.33329e-15
7.009e-15
6.42712e-15
8.05275e-15
9.04131e-15
1.20275e-14
1.12834e-14
1.23298e-14
1.59987e-14
2.14577e-14
2.55465e-14
2.95093e-14
3.28139e-14
3.44785e-14
3.45923e-14
3.45075e-14
3.11498e-14
2.78438e-14
2.45079e-14
1.85646e-14
2.16123e-14
2.34807e-14
2.04574e-14
2.01081e-14
1.92306e-14
1.61809e-14
1.63557e-14
1.47819e-14
1.49096e-14
1.53545e-14
1.55867e-14
1.63851e-14
1.39251e-14
1.47073e-14
1.59667e-14
1.48605e-14
1.86302e-14
2.01383e-14
1.66534e-14
1.88356e-14
1.97241e-14
2.02755e-14
1.97909e-14
1.95034e-14
2.04222e-14
1.96418e-14
1.74515e-14
1.9269e-14
1.68479e-14
1.8057e-14
2.28466e-14
2.25802e-14
2.14506e-14
1.79354e-14
1.39743e-14
1.41553e-14
1.13249e-14
9.82102e-15
1.33321e-14
1.6962e-14
2.07473e-14
2.36522e-14
2.67343e-14
3.13304e-14
3.12257e-14
2.98366e-14
2.85186e-14
2.75742e-14
2.92397e-14
3.09066e-14
3.51745e-14
3.86921e-14
3.16739e-14
2.5537e-14
2.77698e-14
2.65582e-14
2.7851e-14
2.67762e-14
2.75318e-14
2.55115e-14
2.43918e-14
2.43975e-14
2.49349e-14
2.51954e-14
2.48098e-14
2.17349e-14
1.87142e-14
1.73015e-14
1.48281e-14
1.20824e-14
1.04729e-14
7.67842e-15
8.84494e-15
9.4591e-15
1.25629e-14
1.43355e-14
1.48689e-14
1.48246e-14
1.55576e-14
1.59947e-14
1.466e-14
1.46288e-14
1.19798e-14
9.1414e-15
9.97835e-15
1.25397e-14
1.73408e-14
1.94658e-14
2.16896e-14
2.47231e-14
2.82774e-14
3.22855e-14
3.2905e-14
3.40894e-14
3.46002e-14
3.18085e-14
3.04582e-14
2.77286e-14
2.59441e-14
2.60894e-14
2.48136e-14
2.31125e-14
2.32479e-14
2.31019e-14
2.24816e-14
2.3298e-14
2.36499e-14
2.38637e-14
2.53265e-14
2.35018e-14
2.29115e-14
2.33403e-14
2.16704e-14
1.98736e-14
2.0774e-14
1.92129e-14
2.02663e-14
1.97356e-14
1.5499e-14
1.56679e-14
1.42002e-14
1.52667e-14
1.49759e-14
1.8142e-14
2.0179e-14
2.19498e-14
1.99136e-14
2.27327e-14
1.94555e-14
1.77201e-14
1.77251e-14
1.85561e-14
1.88221e-14
1.93111e-14
1.69656e-14
1.68703e-14
1.85063e-14
1.97869e-14
1.89089e-14
1.87977e-14
2.12309e-14
2.16305e-14
1.96784e-14
1.94409e-14
2.06394e-14
1.87629e-14
1.74944e-14
1.62881e-14
1.65437e-14
1.5121e-14
1.37239e-14
1.13961e-14
1.47113e-14
1.52297e-14
1.67326e-14
1.8365e-14
2.14141e-14
1.97663e-14
1.86055e-14
1.87393e-14
1.74846e-14
1.784e-14
1.72556e-14
1.78692e-14
1.81706e-14
1.67543e-14
1.58314e-14
1.54768e-14
1.29907e-14
1.11169e-14
1.0862e-14
1.34987e-14
1.90569e-14
1.85265e-14
1.73834e-14
1.76105e-14
1.84181e-14
1.89465e-14
1.85078e-14
1.71381e-14
1.5426e-14
1.4537e-14
1.26006e-14
1.11097e-14
9.14784e-15
7.63474e-15
6.4323e-15
9.28053e-15
9.54117e-15
8.1827e-15
5.50714e-15
4.82919e-15
6.88903e-15
5.6613e-15
5.54002e-15
5.72813e-15
6.58335e-15
8.27422e-15
6.79482e-15
7.39484e-15
8.29471e-15
6.72824e-15
6.79543e-15
6.85524e-15
6.41877e-15
8.14258e-15
6.12941e-15
4.65149e-15
7.83003e-15
1.1077e-14
8.68766e-15
6.26819e-15
7.5947e-15
8.49328e-15
1.04722e-14
1.07961e-14
1.31715e-14
1.31393e-14
1.17194e-14
1.35023e-14
1.90052e-14
2.27808e-14
2.38603e-14
2.58905e-14
2.75157e-14
2.74716e-14
2.67259e-14
2.43357e-14
2.11151e-14
2.013e-14
1.93865e-14
1.88384e-14
2.08981e-14
1.97671e-14
1.74298e-14
1.74585e-14
1.5311e-14
1.47852e-14
1.32547e-14
1.13751e-14
1.34126e-14
1.43368e-14
1.39945e-14
1.23011e-14
1.48991e-14
1.64768e-14
1.33792e-14
1.37666e-14
1.4158e-14
1.29071e-14
1.50746e-14
1.38058e-14
1.59371e-14
1.68713e-14
1.75279e-14
1.88431e-14
1.84652e-14
1.90947e-14
1.96125e-14
1.6942e-14
1.65808e-14
1.9649e-14
2.09033e-14
1.92399e-14
1.58562e-14
1.0676e-14
1.0634e-14
1.04165e-14
9.17209e-15
1.00533e-14
1.52971e-14
1.82267e-14
2.16414e-14
2.14965e-14
2.71063e-14
2.81711e-14
2.58542e-14
2.57386e-14
2.44069e-14
2.54271e-14
2.58305e-14
2.67457e-14
2.8512e-14
2.59696e-14
2.17579e-14
2.26097e-14
2.09407e-14
2.21025e-14
2.29335e-14
2.33234e-14
2.06806e-14
1.97521e-14
2.03018e-14
2.20298e-14
2.23011e-14
2.30736e-14
2.04786e-14
1.74e-14
1.34467e-14
1.2165e-14
1.00272e-14
9.49241e-15
8.48853e-15
1.13273e-14
1.20334e-14
1.43623e-14
1.59116e-14
1.45974e-14
1.40597e-14
1.57835e-14
1.61009e-14
1.51529e-14
1.42129e-14
1.36324e-14
1.03861e-14
9.72217e-15
1.41894e-14
1.69201e-14
1.82816e-14
2.0838e-14
2.24796e-14
2.57922e-14
3.04315e-14
3.02412e-14
3.08748e-14
3.14928e-14
2.85348e-14
2.858e-14
2.81819e-14
2.59476e-14
2.45923e-14
1.93673e-14
1.85843e-14
1.79422e-14
1.66926e-14
1.89089e-14
2.07577e-14
2.03583e-14
2.29449e-14
2.4982e-14
2.27991e-14
2.10044e-14
1.97222e-14
1.74264e-14
1.84386e-14
1.96332e-14
1.92203e-14
2.10321e-14
2.05448e-14
1.77504e-14
1.76612e-14
1.53723e-14
1.65211e-14
1.54785e-14
1.42979e-14
1.38738e-14
1.20058e-14
1.16544e-14
1.32663e-14
1.39236e-14
1.45288e-14
1.46722e-14
1.73243e-14
1.6748e-14
1.96315e-14
1.75964e-14
1.61585e-14
1.53194e-14
1.488e-14
1.60969e-14
1.56429e-14
1.85343e-14
1.8706e-14
1.6318e-14
1.45823e-14
1.58001e-14
1.32694e-14
9.92252e-15
1.47361e-14
1.36479e-14
1.17538e-14
9.31633e-15
8.48132e-15
1.11531e-14
1.16313e-14
1.38403e-14
1.75291e-14
1.8109e-14
1.79353e-14
1.51657e-14
1.74831e-14
1.93561e-14
1.95229e-14
1.71764e-14
1.68907e-14
1.41782e-14
1.23496e-14
1.29128e-14
1.1395e-14
1.16683e-14
9.86172e-15
8.25876e-15
9.19541e-15
1.35511e-14
1.7028e-14
1.34787e-14
1.25659e-14
1.38003e-14
1.41977e-14
1.48759e-14
1.33696e-14
1.31354e-14
1.04538e-14
7.95399e-15
1.01111e-14
9.16597e-15
7.67419e-15
6.59431e-15
8.24763e-15
8.83067e-15
8.7491e-15
2.86631e-15
6.68329e-15
5.56852e-15
4.56794e-15
2.81281e-15
3.61514e-15
5.35775e-15
6.03166e-15
5.43565e-15
6.67269e-15
6.55991e-15
5.69618e-15
4.64652e-15
4.13711e-15
4.65734e-15
6.23497e-15
5.42215e-15
6.2493e-15
1.01411e-14
9.15451e-15
7.33312e-15
7.56652e-15
9.6435e-15
1.25823e-14
1.41414e-14
9.36962e-15
1.1221e-14
1.20568e-14
1.41707e-14
1.32681e-14
1.68981e-14
2.23661e-14
2.07458e-14
2.19528e-14
2.40138e-14
2.42189e-14
2.36901e-14
2.0764e-14
1.45352e-14
1.6862e-14
1.57858e-14
1.37911e-14
1.59719e-14
1.34921e-14
1.33377e-14
1.48768e-14
1.32248e-14
1.34805e-14
1.08155e-14
9.25333e-15
1.16567e-14
1.31037e-14
1.22071e-14
1.22277e-14
1.3292e-14
1.58637e-14
1.41501e-14
1.20285e-14
1.07844e-14
1.03535e-14
1.03774e-14
1.17253e-14
1.80409e-14
1.71732e-14
1.9545e-14
2.37752e-14
2.01694e-14
1.89734e-14
1.8784e-14
1.59175e-14
1.54719e-14
1.57258e-14
1.75344e-14
1.69555e-14
1.44335e-14
1.15281e-14
1.16249e-14
1.19312e-14
1.29819e-14
1.09409e-14
1.38165e-14
1.97923e-14
2.21628e-14
1.87005e-14
2.07177e-14
2.46428e-14
2.35324e-14
2.2247e-14
2.23664e-14
2.33443e-14
2.20046e-14
1.85554e-14
1.8971e-14
2.20415e-14
1.942e-14
2.11268e-14
1.93653e-14
1.90028e-14
2.15783e-14
2.55475e-14
1.99155e-14
1.71941e-14
1.68545e-14
1.95416e-14
2.08529e-14
1.95902e-14
1.9041e-14
1.52187e-14
1.18584e-14
1.1482e-14
1.13594e-14
9.40349e-15
1.05621e-14
1.11143e-14
9.06227e-15
1.03935e-14
1.08141e-14
1.07643e-14
1.07187e-14
1.17029e-14
1.30378e-14
1.46306e-14
1.96166e-14
1.76905e-14
1.03931e-14
8.43652e-15
1.4256e-14
1.6976e-14
1.85483e-14
2.29462e-14
2.19295e-14
2.41436e-14
3.02235e-14
3.11671e-14
3.0072e-14
2.6528e-14
2.12735e-14
2.04344e-14
2.38143e-14
2.81099e-14
2.0344e-14
1.37696e-14
1.3691e-14
1.18425e-14
1.26882e-14
1.71657e-14
1.66066e-14
1.73839e-14
2.36157e-14
2.33468e-14
2.05236e-14
2.04224e-14
1.80614e-14
1.47908e-14
1.86701e-14
2.00835e-14
1.97459e-14
2.13711e-14
2.02075e-14
1.99826e-14
1.68309e-14
1.68593e-14
1.6204e-14
1.42547e-14
1.32095e-14
9.09517e-15
5.49918e-15
7.33335e-15
1.08662e-14
9.14061e-15
1.12411e-14
1.45602e-14
1.64276e-14
1.84039e-14
1.6051e-14
1.44063e-14
1.44775e-14
1.26061e-14
1.11441e-14
1.26284e-14
1.23651e-14
1.43206e-14
1.63215e-14
1.05785e-14
1.0207e-14
9.94575e-15
1.20234e-14
9.08184e-15
8.56808e-15
1.11443e-14
9.58872e-15
7.00432e-15
8.04482e-15
1.05155e-14
1.23212e-14
1.27237e-14
1.45533e-14
1.6145e-14
1.59242e-14
1.61243e-14
1.90548e-14
2.08374e-14
2.04541e-14
1.78522e-14
1.53748e-14
1.39097e-14
1.40348e-14
1.37854e-14
1.24546e-14
1.14402e-14
1.04698e-14
9.33752e-15
9.1048e-15
1.32113e-14
1.87275e-14
1.42591e-14
1.25271e-14
1.2419e-14
1.43184e-14
1.43498e-14
1.22187e-14
1.14006e-14
1.14675e-14
1.01329e-14
1.15832e-14
8.98374e-15
8.73661e-15
9.03957e-15
9.11672e-15
8.17451e-15
8.15847e-15
5.65052e-15
6.70141e-15
6.21225e-15
7.82941e-15
5.90234e-15
7.47915e-15
8.38864e-15
9.05195e-15
9.20876e-15
8.96942e-15
7.04378e-15
7.64634e-15
8.72048e-15
7.88612e-15
9.33544e-15
9.36519e-15
1.11406e-14
9.25803e-15
1.01725e-14
8.97156e-15
7.98275e-15
8.12197e-15
1.02752e-14
1.13053e-14
1.22924e-14
1.20454e-14
1.36687e-14
1.29584e-14
1.44209e-14
1.51333e-14
1.68752e-14
1.9234e-14
1.9669e-14
2.1423e-14
2.19941e-14
2.22341e-14
2.09135e-14
1.84231e-14
1.16759e-14
1.09684e-14
1.13515e-14
1.29211e-14
1.32928e-14
1.23115e-14
1.3186e-14
1.46025e-14
1.50235e-14
1.40254e-14
1.08238e-14
9.96583e-15
8.86767e-15
1.04023e-14
1.24804e-14
1.24673e-14
1.28557e-14
1.49266e-14
1.45229e-14
1.21186e-14
1.17734e-14
1.13983e-14
1.05722e-14
1.39707e-14
1.7161e-14
1.86208e-14
2.12412e-14
2.16618e-14
1.85493e-14
1.71953e-14
1.65196e-14
1.49048e-14
1.21964e-14
1.30097e-14
1.32986e-14
1.57385e-14
1.44922e-14
1.11015e-14
9.50888e-15
1.08665e-14
1.15827e-14
1.17879e-14
1.39608e-14
1.79017e-14
2.03196e-14
1.9222e-14
2.09239e-14
2.28173e-14
2.38513e-14
2.28916e-14
1.97443e-14
1.9651e-14
1.75654e-14
1.49817e-14
1.59668e-14
1.72676e-14
1.66252e-14
1.77732e-14
1.84229e-14
1.77279e-14
1.71322e-14
1.84533e-14
1.82193e-14
1.66407e-14
1.68952e-14
1.82567e-14
1.89997e-14
1.97547e-14
1.95968e-14
1.52472e-14
1.09482e-14
1.01487e-14
8.89084e-15
8.66045e-15
1.10072e-14
1.171e-14
1.04531e-14
8.30284e-15
8.11351e-15
9.34076e-15
1.14976e-14
1.1538e-14
1.12858e-14
1.32487e-14
1.48116e-14
1.50551e-14
1.22797e-14
1.01639e-14
1.50044e-14
1.57794e-14
1.72641e-14
2.21627e-14
2.24031e-14
2.46512e-14
2.76401e-14
2.87419e-14
2.75877e-14
2.3248e-14
2.005e-14
1.89905e-14
1.73424e-14
1.95395e-14
1.4747e-14
1.32108e-14
1.22338e-14
1.22298e-14
1.40542e-14
1.4884e-14
1.52322e-14
1.84849e-14
2.2433e-14
2.05257e-14
1.91515e-14
1.67393e-14
1.60359e-14
1.55839e-14
1.73158e-14
1.92437e-14
2.04093e-14
2.11578e-14
2.0463e-14
1.88622e-14
1.55023e-14
1.53765e-14
1.52379e-14
1.35607e-14
1.08186e-14
8.60583e-15
6.40032e-15
8.08684e-15
1.06355e-14
9.23513e-15
9.80757e-15
1.16851e-14
1.29693e-14
1.57454e-14
1.40277e-14
1.41939e-14
1.48798e-14
1.32562e-14
1.21421e-14
1.13757e-14
1.20097e-14
1.39747e-14
1.53889e-14
1.16739e-14
8.26539e-15
6.88701e-15
7.62677e-15
8.33006e-15
5.0531e-15
1.15958e-14
1.12919e-14
6.88798e-15
5.84413e-15
7.61019e-15
9.66188e-15
1.07356e-14
1.32029e-14
1.5321e-14
1.61346e-14
1.86234e-14
1.83899e-14
1.84741e-14
1.85935e-14
1.38441e-14
1.00202e-14
1.2626e-14
1.13354e-14
1.09069e-14
8.82101e-15
8.06513e-15
8.98308e-15
7.71832e-15
7.29273e-15
9.87325e-15
1.13142e-14
1.04584e-14
9.33432e-15
1.06116e-14
1.18044e-14
1.30244e-14
1.11239e-14
8.14811e-15
1.05567e-14
8.09086e-15
9.47969e-15
7.50585e-15
5.98523e-15
6.41382e-15
7.17575e-15
6.98558e-15
7.44406e-15
6.13542e-15
4.78566e-15
4.68883e-15
4.82217e-15
7.07777e-15
6.03829e-15
4.6455e-15
6.77464e-15
5.71823e-15
6.1138e-15
5.52645e-15
5.1085e-15
6.35646e-15
6.62009e-15
5.72872e-15
5.39734e-15
5.11615e-15
3.25981e-15
5.93552e-15
4.8386e-15
3.45809e-15
6.35567e-15
9.50092e-15
7.62445e-15
6.58921e-15
1.20259e-14
1.62459e-14
1.47304e-14
1.61532e-14
1.77498e-14
1.65042e-14
1.78967e-14
1.72373e-14
1.84276e-14
1.73387e-14
1.95798e-14
2.16141e-14
1.68419e-14
1.24665e-14
7.66499e-15
1.06746e-14
1.13594e-14
1.07589e-14
1.06479e-14
1.0904e-14
1.55856e-14
1.48195e-14
1.15343e-14
1.08413e-14
9.06306e-15
7.49427e-15
9.15188e-15
1.08101e-14
9.38375e-15
1.24077e-14
1.70632e-14
1.65345e-14
9.70217e-15
5.70641e-15
7.81847e-15
9.08157e-15
9.50661e-15
1.48461e-14
1.76057e-14
1.87103e-14
1.88532e-14
1.66808e-14
1.54194e-14
1.54072e-14
1.2422e-14
9.72387e-15
1.17708e-14
1.05367e-14
1.17445e-14
1.28445e-14
1.19245e-14
8.76415e-15
9.80024e-15
9.35561e-15
8.541e-15
1.36488e-14
1.62465e-14
1.93566e-14
1.84231e-14
1.79305e-14
2.14024e-14
2.19139e-14
2.078e-14
2.10732e-14
1.94819e-14
1.72807e-14
1.11505e-14
1.24351e-14
1.30328e-14
1.0658e-14
1.13029e-14
1.23049e-14
1.15298e-14
1.03638e-14
9.7327e-15
1.25851e-14
1.44695e-14
1.31723e-14
1.67002e-14
1.85573e-14
1.67469e-14
1.64717e-14
1.28872e-14
8.49146e-15
1.05407e-14
7.35894e-15
5.22673e-15
9.03941e-15
1.11648e-14
1.1186e-14
8.78274e-15
1.00168e-14
1.47929e-14
1.14024e-14
1.12154e-14
8.71657e-15
1.28909e-14
1.36856e-14
1.34942e-14
1.33935e-14
1.31662e-14
1.61417e-14
1.51408e-14
1.5641e-14
2.25841e-14
2.42702e-14
2.25033e-14
2.60918e-14
2.5666e-14
2.35179e-14
1.86154e-14
1.55183e-14
1.6676e-14
1.51331e-14
1.17614e-14
8.96168e-15
6.77956e-15
7.43712e-15
1.00098e-14
9.23604e-15
1.29991e-14
1.68873e-14
1.69241e-14
2.02296e-14
1.81907e-14
1.41849e-14
1.58385e-14
1.62443e-14
1.81588e-14
1.80887e-14
1.80611e-14
2.08503e-14
1.94182e-14
1.80499e-14
1.69836e-14
1.29146e-14
1.0036e-14
1.17249e-14
1.09971e-14
9.60844e-15
7.76387e-15
2.75588e-15
5.3229e-15
8.72927e-15
7.17192e-15
8.21521e-15
8.54879e-15
1.12297e-14
1.48624e-14
1.30224e-14
1.35672e-14
1.55261e-14
1.42667e-14
1.14107e-14
1.26672e-14
1.05842e-14
1.13252e-14
1.17515e-14
9.11873e-15
6.41865e-15
2.64605e-15
5.80734e-15
6.12648e-15
2.16071e-15
1.04226e-14
1.04568e-14
5.01332e-15
4.08764e-15
5.66798e-15
8.68239e-15
1.1484e-14
1.36292e-14
1.31467e-14
1.35479e-14
1.71801e-14
1.56635e-14
1.8899e-14
1.58743e-14
9.85051e-15
1.0217e-14
1.02346e-14
8.3287e-15
1.2077e-14
7.22758e-15
5.43928e-15
8.64158e-15
6.46716e-15
5.94168e-15
7.69633e-15
6.02875e-15
7.87446e-15
9.60363e-15
8.96886e-15
1.03239e-14
1.06868e-14
1.00629e-14
1.00167e-14
1.26714e-14
8.15134e-15
6.00965e-15
5.89799e-15
4.01242e-15
9.76336e-15
5.65908e-15
6.60477e-15
6.74283e-15
7.58485e-15
5.58058e-15
5.02913e-15
4.39892e-15
6.16087e-15
5.40805e-15
5.29694e-15
4.92645e-15
4.83338e-15
5.99789e-15
7.13774e-15
7.41359e-15
6.8758e-15
4.48344e-15
4.36906e-15
3.85721e-15
3.08723e-15
7.34049e-15
9.98242e-15
5.69592e-15
5.18222e-15
8.65913e-15
8.19797e-15
8.77068e-15
7.6765e-15
1.37289e-14
1.8493e-14
1.70034e-14
1.84391e-14
1.68707e-14
1.52674e-14
1.78054e-14
1.5426e-14
1.57749e-14
1.60235e-14
1.65184e-14
2.02527e-14
1.35418e-14
1.22337e-14
7.55986e-15
1.24784e-14
1.00488e-14
9.98758e-15
1.06734e-14
1.24143e-14
1.5009e-14
1.29566e-14
1.15343e-14
1.04699e-14
8.46813e-15
8.7422e-15
7.12721e-15
9.23505e-15
5.35913e-15
1.16249e-14
1.70088e-14
1.56382e-14
1.07969e-14
3.99766e-15
6.15667e-15
6.55742e-15
6.53842e-15
1.3784e-14
1.6436e-14
1.793e-14
1.68174e-14
1.40919e-14
1.34411e-14
1.58765e-14
1.29527e-14
1.46481e-14
1.07131e-14
8.94953e-15
9.89866e-15
8.81093e-15
1.06306e-14
9.28316e-15
8.16984e-15
1.10723e-14
9.37406e-15
1.03223e-14
1.50907e-14
1.89743e-14
1.84248e-14
1.50012e-14
2.06138e-14
2.1232e-14
1.74931e-14
2.01592e-14
1.7344e-14
1.37612e-14
8.68751e-15
7.65125e-15
1.00917e-14
9.73707e-15
8.15008e-15
6.97916e-15
4.81572e-15
5.82773e-15
6.98697e-15
8.58521e-15
9.30434e-15
7.05284e-15
1.17033e-14
1.54559e-14
1.28619e-14
1.65318e-14
1.13621e-14
6.23522e-15
1.10169e-14
7.30332e-15
3.92438e-15
6.69597e-15
8.33675e-15
8.21549e-15
1.10379e-14
9.75602e-15
1.19159e-14
9.53576e-15
9.77352e-15
9.48972e-15
1.06664e-14
1.15106e-14
8.81998e-15
1.27908e-14
1.36535e-14
1.53475e-14
1.49503e-14
1.47678e-14
2.26182e-14
2.51782e-14
2.2219e-14
2.45287e-14
2.27796e-14
1.97391e-14
1.75636e-14
1.19185e-14
1.4933e-14
1.41942e-14
7.7289e-15
5.51987e-15
3.0463e-15
4.65978e-15
8.39564e-15
1.18601e-14
1.50771e-14
1.55839e-14
1.56497e-14
1.9766e-14
1.73644e-14
1.32111e-14
1.70981e-14
1.64649e-14
1.72573e-14
1.75138e-14
1.56875e-14
2.08393e-14
1.97611e-14
1.54312e-14
1.6602e-14
1.09372e-14
8.09174e-15
8.12676e-15
7.70363e-15
5.95548e-15
4.08292e-15
2.43553e-15
6.94326e-15
6.02648e-15
4.16046e-15
5.01258e-15
4.80214e-15
7.0144e-15
1.29747e-14
1.24278e-14
1.20246e-14
1.5406e-14
1.35551e-14
1.0231e-14
1.28037e-14
9.83922e-15
9.21276e-15
9.76591e-15
4.90816e-15
4.57699e-15
2.20192e-15
4.2925e-15
3.72233e-15
2.29423e-15
1.66867e-14
1.79375e-14
2.1412e-14
2.47097e-14
2.21099e-14
2.33681e-14
2.27667e-14
2.04493e-14
1.2416e-14
1.95323e-14
2.32831e-14
2.48596e-14
1.76694e-14
9.15905e-15
1.36636e-14
1.78321e-14
1.89867e-14
1.58785e-14
1.53978e-14
1.75043e-14
1.84718e-14
1.63209e-14
1.17222e-14
1.08221e-14
1.22046e-14
1.13963e-14
1.18742e-14
1.35047e-14
1.9897e-14
3.03012e-14
4.20998e-14
4.47149e-14
4.15504e-14
3.44098e-14
2.09826e-14
1.46469e-14
1.50027e-14
1.79143e-14
2.20117e-14
2.89836e-14
3.70092e-14
4.76967e-14
5.46338e-14
6.1103e-14
6.17883e-14
6.3893e-14
6.53e-14
6.5317e-14
6.30532e-14
6.05134e-14
5.29541e-14
5.16479e-14
5.14584e-14
5.27991e-14
4.70623e-14
4.6495e-14
3.52793e-14
2.81774e-14
2.85831e-14
3.28473e-14
2.99141e-14
2.83853e-14
2.7728e-14
3.12855e-14
3.22186e-14
3.14782e-14
2.61884e-14
2.44349e-14
2.16211e-14
2.1146e-14
2.06092e-14
1.96017e-14
1.52835e-14
1.6244e-14
1.85596e-14
1.81985e-14
2.07039e-14
2.57298e-14
2.84297e-14
3.08704e-14
3.28114e-14
3.56248e-14
3.87852e-14
4.02809e-14
4.34152e-14
5.11906e-14
4.40703e-14
3.26324e-14
2.03446e-14
2.56047e-14
1.92983e-14
9.64302e-15
1.2921e-14
1.12023e-14
7.64424e-15
1.1806e-14
1.55325e-14
1.79743e-14
2.34277e-14
3.50441e-14
1.70683e-14
1.72858e-14
1.87153e-14
1.91256e-14
1.87536e-14
1.70098e-14
2.37107e-14
2.79074e-14
2.30515e-14
1.32295e-14
1.08477e-14
1.76061e-14
1.7153e-14
1.40936e-14
7.10745e-15
1.38735e-14
1.95721e-14
2.43383e-14
1.86133e-14
1.37008e-14
1.64274e-14
1.76849e-14
1.11752e-14
8.42497e-15
8.74457e-15
1.03507e-14
9.18747e-15
8.27822e-15
1.12648e-14
2.4894e-14
3.85166e-14
4.89366e-14
4.97677e-14
4.55193e-14
3.33179e-14
1.75783e-14
1.02468e-14
1.04045e-14
1.3172e-14
1.85622e-14
2.52036e-14
3.37695e-14
4.22897e-14
4.78044e-14
5.75867e-14
6.33278e-14
6.98503e-14
7.48221e-14
7.31946e-14
6.38971e-14
5.41367e-14
4.60264e-14
4.51445e-14
4.36545e-14
4.36296e-14
4.46994e-14
3.61813e-14
2.27191e-14
1.81587e-14
1.72502e-14
2.24953e-14
3.01667e-14
3.18877e-14
3.17848e-14
3.24926e-14
3.3889e-14
3.84676e-14
3.62225e-14
2.84293e-14
2.14562e-14
2.254e-14
2.17533e-14
1.40043e-14
6.94418e-15
1.39174e-14
2.28005e-14
2.58302e-14
2.7482e-14
3.5195e-14
3.79572e-14
3.94371e-14
3.8263e-14
4.06861e-14
4.3482e-14
4.20647e-14
4.12624e-14
4.72934e-14
4.52214e-14
3.42922e-14
2.77891e-14
2.66159e-14
2.1655e-14
1.49349e-14
1.48347e-14
1.25466e-14
6.50601e-15
4.19368e-15
5.69891e-15
8.10035e-15
1.51212e-14
2.56856e-14
2.45623e-14
2.51878e-14
2.39814e-14
2.08407e-14
2.27421e-14
2.39515e-14
2.85133e-14
2.84571e-14
2.3691e-14
2.10986e-14
2.5535e-14
1.95116e-14
1.43758e-14
1.81142e-14
2.03795e-14
2.83505e-14
2.946e-14
2.54097e-14
2.27862e-14
2.39021e-14
2.13353e-14
2.23229e-14
1.64339e-14
2.265e-14
2.77285e-14
2.72923e-14
2.31341e-14
2.17492e-14
2.96617e-14
4.28811e-14
4.72005e-14
4.8119e-14
4.63428e-14
3.90528e-14
2.49382e-14
2.06548e-14
1.91196e-14
2.26206e-14
2.20775e-14
2.95648e-14
3.45075e-14
3.8853e-14
4.53964e-14
5.51655e-14
6.00845e-14
6.59769e-14
7.10607e-14
7.03353e-14
6.05666e-14
5.16456e-14
4.4039e-14
4.40888e-14
4.34517e-14
4.00214e-14
3.96433e-14
3.63508e-14
2.75215e-14
2.42745e-14
2.57894e-14
2.78412e-14
2.90794e-14
3.30007e-14
3.32784e-14
3.83154e-14
4.05561e-14
4.30228e-14
4.2931e-14
3.83459e-14
3.46836e-14
3.38887e-14
2.94582e-14
2.488e-14
2.39154e-14
2.5251e-14
2.86475e-14
3.31726e-14
3.56128e-14
3.88774e-14
4.29417e-14
4.42399e-14
4.53143e-14
4.59458e-14
4.75279e-14
4.70372e-14
4.51869e-14
4.98954e-14
5.0914e-14
4.32544e-14
3.68729e-14
3.56978e-14
3.34196e-14
3.26701e-14
3.41606e-14
3.08738e-14
3.16208e-14
3.18467e-14
2.96295e-14
3.43023e-14
3.74011e-14
4.30495e-14
3.6601e-14
3.43466e-14
3.5727e-14
3.344e-14
3.25244e-14
3.52995e-14
3.64379e-14
3.6031e-14
4.09654e-14
3.40489e-14
3.09974e-14
3.09967e-14
3.2489e-14
3.15871e-14
3.38137e-14
3.88719e-14
3.96026e-14
4.12322e-14
4.08618e-14
3.43766e-14
4.20428e-14
4.56819e-14
4.98932e-14
4.86135e-14
5.14405e-14
4.20705e-14
3.63885e-14
3.60301e-14
3.50404e-14
3.37981e-14
3.47943e-14
3.69153e-14
3.94445e-14
3.20804e-14
3.24175e-14
4.05245e-14
5.08707e-14
5.54335e-14
6.50041e-14
6.99273e-14
5.94005e-14
4.72383e-14
4.37221e-14
4.28547e-14
3.93213e-14
4.12013e-14
4.10816e-14
3.69191e-14
2.95142e-14
2.3191e-14
1.69377e-14
1.98562e-14
1.58334e-14
1.9084e-14
2.16534e-14
1.92483e-14
2.53662e-14
3.19464e-14
3.15929e-14
2.92071e-14
2.1501e-14
2.16764e-14
2.50391e-14
2.56026e-14
2.2757e-14
2.60315e-14
2.31851e-14