/*--------------------------------*- C++ -*----------------------------------*\
| =========                 |                                                 |
| \\      /  F ield         | OpenFOAM: The Open Source CFD Toolbox           |
|  \\    /   O peration     | Version:  2406                                  |
|   \\  /    A nd           | Website:  www.openfoam.com                      |
|    \\/     M anipulation  |                                                 |
\*---------------------------------------------------------------------------*/
FoamFile
{
    version     2.0;
    format      ascii;
    arch        "LSB;label=32;scalar=64";
    class       volVectorField;
    location    "0.015";
    object      U;
}
// * * * * * * * * * * * * * * * * * * * * * * * * * * * * * * * * * * * * * //

dimensions      [0 1 -1 0 0 0 0];

internalField   nonuniform List<vector> 
14020
(
(1.29448e-12 7.326e-12 -3.11462e-12)
(1.73213e-12 7.49691e-12 -2.20379e-12)
(1.21774e-12 8.1527e-12 -1.18897e-12)
(-9.37651e-13 8.10774e-12 -9.46892e-13)
(-1.3999e-12 8.26044e-12 -1.66236e-12)
(-1.87589e-12 9.54071e-12 -2.0669e-12)
(-2.64829e-12 9.43412e-12 -1.57042e-12)
(-3.60266e-12 9.11031e-12 -4.09929e-12)
(-5.16271e-12 7.64009e-12 -4.43494e-12)
(-3.71544e-12 6.71256e-12 -5.06841e-12)
(-2.90382e-12 5.87134e-12 -4.60205e-12)
(-4.17247e-12 4.49124e-12 -3.91665e-12)
(-3.34149e-12 3.54919e-12 -3.59003e-12)
(-2.18133e-12 2.80276e-12 -4.99023e-12)
(-1.9123e-12 1.94807e-12 -6.74622e-12)
(-2.15553e-12 2.70018e-12 -6.13289e-12)
(-2.85485e-12 3.28401e-12 -6.23315e-12)
(-2.54535e-12 2.69232e-12 -6.07015e-12)
(-1.79713e-12 1.89093e-12 -5.9149e-12)
(-2.44578e-12 1.48977e-12 -5.5248e-12)
(-4.34978e-12 1.2836e-12 -4.05564e-12)
(-4.5219e-12 -3.02296e-13 1.80592e-14)
(-4.41898e-12 -1.18622e-12 5.12642e-12)
(-4.26969e-12 -2.41201e-12 4.98786e-12)
(-4.22985e-12 -2.44671e-12 1.61519e-12)
(-4.01725e-12 -3.19474e-12 -2.81604e-12)
(-3.96764e-13 -3.44084e-12 -5.25681e-12)
(-1.30175e-13 -2.24981e-12 -9.21307e-12)
(4.11714e-13 -1.19843e-12 -1.05675e-11)
(-1.07976e-13 -6.17217e-13 -1.05741e-11)
(-1.81855e-13 -5.5378e-13 -1.15444e-11)
(1.35129e-12 2.77065e-13 -1.18828e-11)
(7.80778e-13 3.19238e-13 -1.22448e-11)
(1.11509e-12 1.19183e-12 -1.11547e-11)
(-7.24451e-13 2.90237e-12 -1.02284e-11)
(-2.44363e-12 1.88197e-12 -8.1395e-12)
(-7.97354e-13 2.02853e-12 -6.59641e-12)
(-6.72178e-13 3.07559e-12 -4.65023e-12)
(-1.18614e-12 2.16708e-12 -1.97886e-12)
(4.01466e-13 2.47771e-12 -7.90566e-13)
(-2.21899e-13 3.52741e-12 -4.33313e-13)
(-8.05268e-13 2.77859e-12 -1.51325e-12)
(-3.18886e-13 3.58137e-12 -4.15807e-12)
(-7.16543e-13 3.16879e-12 -4.16997e-12)
(3.81101e-13 2.79903e-12 -3.78934e-12)
(6.66642e-13 3.13475e-12 -3.70479e-12)
(-2.19287e-12 2.67713e-12 -4.09309e-12)
(-3.98646e-12 1.34863e-12 -2.52362e-12)
(-2.14823e-12 3.43359e-13 -1.41305e-12)
(-4.9833e-13 8.07053e-13 -9.00169e-13)
(-6.14577e-13 1.70285e-12 -1.43216e-13)
(1.97266e-14 1.49802e-12 3.39771e-13)
(1.22691e-12 1.3864e-12 9.06107e-14)
(1.13495e-12 1.71049e-12 -1.30588e-12)
(1.31129e-12 1.4622e-12 -1.83267e-12)
(1.03026e-12 2.44125e-12 -6.31725e-13)
(-5.75331e-13 3.11532e-12 8.91898e-13)
(-1.53012e-12 3.81017e-12 1.34283e-12)
(-1.91389e-12 4.08453e-12 1.01839e-14)
(-3.2827e-12 3.53616e-12 -7.22993e-13)
(-3.33282e-12 1.81999e-12 -8.89604e-13)
(-2.70358e-12 1.30945e-12 8.87177e-14)
(-3.44787e-12 1.66367e-12 1.28733e-12)
(-2.76022e-12 -1.40513e-13 5.2265e-13)
(2.4702e-14 -5.64112e-13 -1.51605e-13)
(2.65229e-12 -3.01519e-13 -1.16827e-12)
(3.48284e-12 1.29127e-12 -2.13134e-12)
(3.15617e-12 2.4519e-12 -1.30283e-13)
(2.54276e-12 3.82098e-12 2.11935e-12)
(2.3257e-12 3.70165e-12 3.80597e-12)
(2.39609e-12 3.37709e-12 3.64021e-12)
(3.25844e-12 3.50152e-12 4.46583e-12)
(3.93481e-12 4.50989e-12 5.73442e-12)
(2.62616e-12 3.98011e-12 8.57711e-12)
(5.20039e-12 4.46446e-12 1.40085e-11)
(6.07929e-12 5.91144e-12 2.0171e-11)
(5.80464e-12 7.26654e-12 2.06313e-11)
(7.35615e-12 8.18629e-12 1.76389e-11)
(6.21349e-12 1.06926e-11 1.35986e-11)
(4.37211e-12 1.05672e-11 1.12948e-11)
(3.74809e-12 1.08519e-11 9.50425e-12)
(9.07013e-13 1.00658e-11 9.59691e-12)
(4.35855e-13 8.96723e-12 5.97129e-12)
(4.14238e-13 1.01314e-11 1.54241e-12)
(-3.14774e-12 9.26456e-12 -8.09921e-13)
(-4.1296e-12 7.29574e-12 -1.4106e-12)
(-4.69419e-12 6.0918e-12 -3.29611e-13)
(-5.08614e-12 5.7787e-12 -8.19214e-13)
(-4.58858e-12 5.1822e-12 -8.26932e-13)
(-3.16499e-12 5.14116e-12 8.41145e-13)
(-1.50927e-12 4.47278e-12 3.16732e-12)
(-1.47743e-12 3.09252e-12 5.25952e-12)
(-6.13867e-14 2.85741e-12 6.61582e-12)
(5.00775e-13 3.54633e-12 6.3116e-12)
(-2.26931e-13 4.03165e-12 6.32838e-12)
(-2.73388e-13 2.87087e-12 5.34775e-12)
(1.62693e-12 3.45076e-12 4.11118e-12)
(2.69055e-12 3.68131e-12 3.27878e-12)
(2.22854e-12 5.26467e-12 3.1916e-12)
(2.93634e-13 6.23936e-12 2.55679e-12)
(-1.89443e-12 6.21148e-12 1.27539e-12)
(-3.25809e-12 5.178e-12 1.01638e-13)
(-2.65861e-12 5.98761e-12 -1.29856e-12)
(-2.89066e-12 6.63029e-12 -3.00623e-12)
(-4.08029e-12 5.9871e-12 -2.51277e-12)
(-4.8684e-12 5.43386e-12 -3.05893e-12)
(-6.08858e-12 4.82218e-12 -3.95661e-12)
(-6.24638e-12 3.40761e-12 -3.07514e-12)
(-5.63004e-12 2.04249e-12 -2.99024e-12)
(-4.17154e-12 1.26801e-12 -3.24795e-12)
(-2.32914e-12 2.2364e-12 -3.70848e-12)
(-1.29756e-12 3.66677e-12 -4.71911e-12)
(-1.0717e-12 3.94863e-12 -4.4679e-12)
(-1.43005e-12 3.32799e-12 -5.92081e-12)
(-4.65996e-14 3.02413e-12 -6.56674e-12)
(1.40875e-12 2.11509e-12 -6.52822e-12)
(1.79118e-12 2.33006e-12 -5.68695e-12)
(2.23426e-12 2.95177e-12 -5.46721e-12)
(2.02813e-12 3.43353e-12 -4.58358e-12)
(1.34095e-12 2.9745e-12 -4.41356e-12)
(1.80903e-12 2.37405e-12 -3.80446e-12)
(4.095e-12 2.12094e-12 -2.8447e-12)
(5.54272e-12 3.27268e-12 -2.26298e-12)
(6.53538e-12 3.63043e-12 -3.15163e-12)
(6.08163e-12 5.52412e-12 -4.16879e-12)
(6.81608e-12 4.93338e-12 -7.00539e-12)
(7.36343e-12 4.80334e-12 -1.01213e-11)
(7.17834e-12 4.73569e-12 -8.4139e-12)
(8.64483e-12 5.64507e-12 -8.08298e-12)
(7.79898e-12 7.19915e-12 -7.77205e-12)
(5.36573e-12 7.6267e-12 -9.14512e-12)
(4.18039e-12 7.21218e-12 -9.09337e-12)
(5.61399e-12 6.91632e-12 -8.65998e-12)
(6.94081e-12 8.24004e-12 -8.73296e-12)
(5.31116e-12 9.86987e-12 -8.49768e-12)
(1.40854e-12 1.1133e-11 -9.75899e-12)
(-1.31608e-12 1.06451e-11 -1.07404e-11)
(-2.83186e-12 8.46175e-12 -1.24348e-11)
(-4.85633e-12 5.81116e-12 -1.08092e-11)
(-4.28665e-12 3.10426e-12 -9.93718e-12)
(-2.52031e-12 3.55022e-12 -9.59547e-12)
(-4.78391e-13 4.11095e-12 -1.10664e-11)
(1.29221e-12 4.25474e-12 -1.11562e-11)
(-1.19569e-13 5.31774e-12 -9.79897e-12)
(-2.35781e-12 3.73734e-12 -9.29095e-12)
(-1.94918e-12 2.7295e-12 -9.16994e-12)
(-3.75898e-12 2.80625e-12 -8.81466e-12)
(-4.93957e-12 1.23525e-12 -8.70565e-12)
(-3.62226e-12 4.82317e-13 -8.82744e-12)
(-1.80792e-12 9.21496e-13 -8.47134e-12)
(-2.09539e-12 1.00576e-12 -6.70889e-12)
(-2.79625e-12 1.2239e-12 -1.1389e-12)
(-2.31607e-12 2.46344e-12 1.04193e-13)
(-2.41231e-12 2.36458e-12 -3.29812e-13)
(-1.44613e-12 1.79317e-12 4.81622e-13)
(9.06993e-13 1.41117e-12 8.82074e-14)
(1.25005e-12 1.48356e-12 -2.18142e-13)
(1.48698e-12 1.22186e-12 -2.55179e-13)
(1.68945e-12 2.2345e-12 -2.78981e-14)
(7.38683e-13 3.22508e-12 7.71573e-13)
(1.88482e-12 5.09075e-12 -2.63912e-13)
(1.13636e-12 6.47037e-12 -2.84424e-12)
(-7.16651e-13 6.91913e-12 -3.47878e-12)
(-1.37272e-12 7.52349e-12 -3.34687e-12)
(-2.11462e-12 7.0564e-12 -4.87636e-12)
(-2.53477e-12 5.81885e-12 -6.64606e-12)
(-7.83642e-13 3.86584e-12 -7.38619e-12)
(1.34755e-12 3.17033e-12 -5.12175e-12)
(3.79847e-12 2.09929e-12 -3.95122e-12)
(4.4485e-12 2.59905e-12 -2.7946e-12)
(3.63878e-12 1.6933e-12 -5.3368e-12)
(4.18507e-12 5.04938e-13 -6.69868e-12)
(6.68289e-12 -1.26352e-14 -6.85277e-12)
(9.34148e-12 -1.35432e-13 -5.99723e-12)
(1.10719e-11 2.03561e-12 -4.59226e-12)
(1.20061e-11 4.53191e-12 -3.41769e-12)
(1.09008e-11 6.32851e-12 -3.85735e-12)
(1.13244e-11 6.75839e-12 -3.69e-12)
(1.02457e-11 8.5687e-12 -2.85601e-12)
(5.88537e-12 9.17177e-12 -2.87196e-12)
(3.45748e-12 9.2212e-12 -2.76033e-12)
(4.02015e-12 1.08645e-11 -2.14621e-12)
(1.4427e-12 1.36408e-11 -1.70768e-12)
(-2.41114e-12 1.2167e-11 -3.1914e-13)
(-4.38424e-12 1.15944e-11 3.16875e-12)
(-5.77078e-12 1.05645e-11 6.27035e-12)
(-4.96632e-12 9.63587e-12 7.83934e-12)
(-4.68868e-12 9.01479e-12 5.79613e-12)
(-6.42572e-12 7.39876e-12 2.721e-12)
(-8.88571e-12 6.23158e-12 2.43352e-12)
(-8.85836e-12 4.56855e-12 1.44561e-12)
(-7.07982e-12 3.57691e-12 1.31578e-12)
(-6.06002e-12 2.78238e-12 8.96032e-13)
(-4.53532e-12 3.02137e-12 1.00445e-12)
(-5.09575e-12 4.5881e-12 1.57147e-12)
(-7.02538e-12 4.5487e-12 2.727e-12)
(-7.28434e-12 3.89453e-12 2.30273e-13)
(-7.31858e-12 3.34658e-12 -2.23999e-12)
(-5.97476e-12 3.70287e-12 -3.47854e-12)
(-5.086e-12 3.74761e-12 -3.7742e-12)
(-4.76663e-12 2.76626e-12 -3.26273e-12)
(-3.04022e-12 1.99436e-12 -2.34886e-12)
(-1.13222e-12 1.50218e-12 -1.68776e-12)
(-1.31696e-12 2.24888e-12 -1.72091e-12)
(-1.49013e-12 1.99214e-12 -1.74703e-12)
(-1.89333e-12 2.41456e-12 -2.29605e-12)
(-2.65999e-12 6.7835e-13 -5.19923e-12)
(4.7205e-13 8.94722e-13 -9.96123e-12)
(6.86112e-13 2.68857e-12 -1.32114e-11)
(-5.00265e-13 3.10357e-12 -1.32079e-11)
(-8.91504e-13 2.21847e-12 -1.18795e-11)
(-5.3711e-13 3.7291e-12 -1.0264e-11)
(4.5129e-13 4.50994e-12 -9.02576e-12)
(1.18119e-12 3.62053e-12 -8.24692e-12)
(1.03535e-12 3.23797e-12 -6.37975e-12)
(6.08601e-13 3.3894e-12 -6.98912e-12)
(8.88277e-13 2.24985e-12 -5.95317e-12)
(2.71636e-12 2.39967e-12 -5.88272e-12)
(2.92684e-12 3.09587e-12 -6.72972e-12)
(3.67669e-12 4.31487e-12 -6.71613e-12)
(4.04108e-12 5.1163e-12 -6.19165e-12)
(3.74802e-12 5.11742e-12 -5.96478e-12)
(3.16781e-12 5.65414e-12 -4.97442e-12)
(3.2001e-12 5.62097e-12 -5.34717e-12)
(4.25198e-12 5.43814e-12 -4.12284e-12)
(5.88773e-12 6.64233e-12 -2.33278e-12)
(5.39565e-12 6.64271e-12 7.20211e-13)
(4.69585e-12 5.80078e-12 2.2382e-12)
(4.3296e-12 6.86735e-12 3.99884e-12)
(8.00514e-13 6.71252e-12 5.45486e-12)
(-1.3138e-12 3.06849e-12 5.43506e-12)
(1.71885e-12 8.31699e-12 -3.50519e-12)
(1.8555e-12 8.37903e-12 -2.14568e-12)
(1.40296e-12 9.21767e-12 -1.35395e-12)
(-9.25207e-13 8.81226e-12 -1.25183e-12)
(-2.4681e-12 8.88694e-12 -1.4527e-12)
(-2.59429e-12 9.64924e-12 -1.71354e-12)
(-2.86626e-12 9.39254e-12 -1.51084e-12)
(-3.64619e-12 9.14983e-12 -3.94846e-12)
(-4.69802e-12 7.50406e-12 -3.62444e-12)
(-3.81051e-12 6.74607e-12 -4.90573e-12)
(-2.4329e-12 6.65462e-12 -4.87049e-12)
(-3.39588e-12 5.70355e-12 -4.28979e-12)
(-3.3466e-12 4.06115e-12 -3.99535e-12)
(-1.58956e-12 3.31835e-12 -4.79898e-12)
(-1.99305e-12 2.80627e-12 -5.80207e-12)
(-3.35737e-12 2.77725e-12 -6.09552e-12)
(-3.21732e-12 2.95751e-12 -6.31691e-12)
(-2.14073e-12 2.67995e-12 -5.79016e-12)
(-1.64677e-12 2.00528e-12 -5.71495e-12)
(-2.83464e-12 2.55675e-12 -5.4935e-12)
(-3.84664e-12 2.06666e-12 -4.13633e-12)
(-3.19069e-12 1.92166e-13 -1.36678e-12)
(-3.23096e-12 -1.22128e-12 2.30486e-12)
(-3.80752e-12 -2.51464e-12 1.52992e-12)
(-4.88771e-12 -2.55666e-12 -1.58327e-12)
(-3.09646e-12 -2.75266e-12 -4.90605e-12)
(-3.92052e-13 -3.39256e-12 -7.45393e-12)
(-9.23797e-13 -1.94682e-12 -9.37569e-12)
(2.54072e-13 -1.11644e-12 -1.07469e-11)
(-4.60822e-14 5.11892e-14 -1.14617e-11)
(-3.97189e-13 1.1256e-12 -1.15691e-11)
(9.16086e-13 1.58857e-12 -1.1841e-11)
(1.07434e-12 1.64468e-12 -1.1651e-11)
(-3.77374e-13 2.29619e-12 -1.13754e-11)
(-6.90477e-13 4.23261e-12 -9.64922e-12)
(-1.45073e-12 2.90075e-12 -7.82406e-12)
(-1.52488e-12 3.38442e-12 -5.76308e-12)
(-4.0092e-13 4.20319e-12 -4.46229e-12)
(-5.57566e-13 3.19935e-12 -1.20883e-12)
(-5.9183e-13 3.39839e-12 2.46201e-13)
(-4.91944e-13 4.59506e-12 2.69151e-13)
(-7.75911e-13 3.89569e-12 6.23938e-14)
(-7.46603e-13 4.52043e-12 -1.30398e-12)
(4.83356e-13 4.44503e-12 -1.95675e-12)
(3.29653e-13 3.98357e-12 -3.29735e-12)
(-1.23719e-14 3.42612e-12 -3.19758e-12)
(-1.29932e-12 3.6098e-12 -2.67477e-12)
(-2.45932e-12 1.86941e-12 -1.30937e-12)
(-1.70861e-12 5.07062e-13 -6.30864e-14)
(-1.57725e-12 8.92554e-13 -1.35188e-13)
(-9.48513e-13 1.92157e-12 6.12638e-13)
(3.8175e-13 1.42707e-12 1.49615e-12)
(6.28972e-13 2.09241e-12 8.62332e-13)
(1.05171e-12 2.16889e-12 4.38537e-13)
(8.57833e-13 2.48018e-12 -3.32339e-14)
(4.7407e-13 3.38638e-12 4.4991e-13)
(-6.74863e-13 3.83974e-12 1.22411e-12)
(-1.84637e-12 4.31805e-12 1.63643e-12)
(-1.93468e-12 4.5493e-12 1.30368e-13)
(-2.23803e-12 4.19435e-12 -4.2725e-13)
(-2.12584e-12 3.08897e-12 -6.77251e-13)
(-3.37703e-12 2.122e-12 2.55845e-13)
(-3.30313e-12 2.21694e-12 1.26776e-12)
(-1.75757e-12 1.06244e-12 9.63069e-13)
(2.86781e-13 9.61431e-14 -4.15734e-13)
(2.20002e-12 1.41386e-12 -1.30135e-12)
(2.47614e-12 2.3698e-12 -2.32938e-12)
(2.73155e-12 3.5925e-12 -3.93005e-13)
(2.40602e-12 4.85378e-12 2.4621e-12)
(2.72909e-12 4.64207e-12 4.68423e-12)
(2.7336e-12 4.49909e-12 4.22124e-12)
(2.94144e-12 4.58843e-12 4.58808e-12)
(4.23664e-12 5.24445e-12 5.30133e-12)
(3.12972e-12 5.26829e-12 7.84156e-12)
(4.33699e-12 5.1492e-12 1.25835e-11)
(5.5609e-12 6.79057e-12 1.6317e-11)
(5.43307e-12 7.81711e-12 1.78519e-11)
(6.32398e-12 8.25908e-12 1.57923e-11)
(5.55011e-12 1.01558e-11 1.28652e-11)
(4.32105e-12 1.02675e-11 1.08154e-11)
(4.30024e-12 1.07941e-11 9.20198e-12)
(1.93765e-12 1.05593e-11 9.13231e-12)
(7.36322e-13 8.64189e-12 5.69447e-12)
(2.41566e-13 9.7878e-12 1.214e-12)
(-3.19094e-12 9.40388e-12 -1.15656e-12)
(-4.19002e-12 7.92715e-12 -1.60364e-12)
(-5.14624e-12 6.88071e-12 -8.29979e-13)
(-5.281e-12 6.26502e-12 -1.95802e-13)
(-4.27291e-12 5.82623e-12 -7.73309e-13)
(-2.65987e-12 5.29744e-12 1.09274e-12)
(-1.04932e-12 5.3943e-12 2.87945e-12)
(-1.42313e-12 4.0973e-12 3.4587e-12)
(-8.31974e-13 3.99253e-12 6.00529e-12)
(-3.1458e-13 4.47371e-12 6.67474e-12)
(1.94892e-13 4.44465e-12 6.76984e-12)
(1.0626e-13 3.94683e-12 5.33605e-12)
(1.7912e-12 4.72126e-12 3.89201e-12)
(2.87948e-12 5.2217e-12 3.20628e-12)
(1.53549e-12 6.29794e-12 3.41258e-12)
(3.92853e-13 7.1045e-12 3.34823e-12)
(-9.56032e-13 7.58313e-12 1.67711e-12)
(-3.03007e-12 6.42894e-12 2.74279e-13)
(-3.50841e-12 6.51857e-12 -1.38214e-12)
(-2.80624e-12 7.0831e-12 -2.22767e-12)
(-3.91118e-12 6.89345e-12 -2.38261e-12)
(-5.06596e-12 5.99952e-12 -2.57831e-12)
(-5.3001e-12 5.03215e-12 -2.23561e-12)
(-5.15377e-12 3.16903e-12 -2.11043e-12)
(-5.27134e-12 2.50432e-12 -2.60335e-12)
(-4.34119e-12 2.39931e-12 -3.01236e-12)
(-3.52758e-12 3.17005e-12 -3.50453e-12)
(-2.27143e-12 3.71328e-12 -4.87241e-12)
(-6.81575e-13 4.39621e-12 -5.49282e-12)
(-9.60692e-13 4.15311e-12 -6.55702e-12)
(2.43776e-13 3.71905e-12 -6.56342e-12)
(1.59086e-12 3.5947e-12 -6.63841e-12)
(1.469e-12 3.57045e-12 -6.05772e-12)
(1.75487e-12 4.22132e-12 -5.46441e-12)
(2.08429e-12 4.3227e-12 -3.7022e-12)
(2.02811e-12 4.25554e-12 -3.70891e-12)
(2.24178e-12 3.84263e-12 -2.55501e-12)
(3.75568e-12 3.61032e-12 -1.71549e-12)
(5.17934e-12 4.4851e-12 -2.04461e-12)
(5.42867e-12 4.58577e-12 -3.54002e-12)
(5.53169e-12 6.05752e-12 -4.29749e-12)
(7.66449e-12 5.36653e-12 -6.39084e-12)
(7.67799e-12 5.82181e-12 -8.40328e-12)
(6.6005e-12 5.61727e-12 -8.13181e-12)
(7.5568e-12 6.49514e-12 -7.18499e-12)
(7.20087e-12 8.30363e-12 -7.03478e-12)
(5.59864e-12 8.6869e-12 -7.57359e-12)
(5.71572e-12 7.95024e-12 -8.13271e-12)
(5.47728e-12 7.48092e-12 -8.16036e-12)
(6.11542e-12 8.72806e-12 -8.45626e-12)
(4.5396e-12 9.95997e-12 -1.03992e-11)
(7.76086e-13 1.13485e-11 -1.01849e-11)
(-1.46803e-12 1.08486e-11 -1.0505e-11)
(-2.38049e-12 8.57466e-12 -1.0106e-11)
(-3.12626e-12 6.55737e-12 -8.6357e-12)
(-3.40307e-12 4.32103e-12 -9.38212e-12)
(-2.82228e-12 4.33333e-12 -9.70692e-12)
(-2.8181e-13 4.29819e-12 -1.0083e-11)
(5.59166e-13 5.4312e-12 -1.0307e-11)
(-5.74818e-14 6.27627e-12 -9.51758e-12)
(-7.5807e-13 5.14315e-12 -8.81994e-12)
(-2.02878e-12 3.57388e-12 -8.68163e-12)
(-3.07278e-12 2.92709e-12 -8.62573e-12)
(-3.72664e-12 2.05122e-12 -8.36566e-12)
(-4.13329e-12 1.80205e-12 -7.49866e-12)
(-2.90025e-12 1.66493e-12 -7.29257e-12)
(-2.07297e-12 2.33394e-12 -5.461e-12)
(-3.51746e-12 2.46089e-12 -2.24155e-12)
(-3.07068e-12 2.96412e-12 -7.52771e-13)
(-2.01926e-12 2.56751e-12 -8.3078e-13)
(-5.99127e-13 2.39938e-12 -2.25264e-13)
(1.31113e-12 2.13337e-12 -3.22379e-13)
(1.40711e-12 2.8938e-12 -4.26527e-13)
(1.18874e-12 2.90349e-12 -6.59966e-13)
(9.13306e-13 4.1576e-12 -5.35053e-13)
(9.9677e-14 4.88967e-12 1.35416e-13)
(1.04647e-12 6.32175e-12 -4.9405e-13)
(1.00667e-12 7.57477e-12 -3.49975e-12)
(-5.74894e-13 7.58895e-12 -3.1174e-12)
(-1.30506e-12 7.69043e-12 -2.12544e-12)
(-2.32604e-12 7.22642e-12 -3.82131e-12)
(-1.87534e-12 6.20498e-12 -5.15623e-12)
(-2.38549e-13 4.24377e-12 -6.00323e-12)
(1.77202e-12 3.61917e-12 -4.91079e-12)
(3.54212e-12 2.75531e-12 -4.41107e-12)
(4.47055e-12 3.29236e-12 -3.2054e-12)
(4.6848e-12 2.69236e-12 -5.17062e-12)
(4.26433e-12 1.72444e-12 -6.74813e-12)
(7.01428e-12 1.25744e-12 -6.37845e-12)
(9.25958e-12 1.57376e-12 -5.38536e-12)
(9.96534e-12 2.86104e-12 -4.59588e-12)
(1.0724e-11 5.13107e-12 -3.72458e-12)
(1.09055e-11 6.94927e-12 -3.88871e-12)
(1.16226e-11 7.99955e-12 -3.5765e-12)
(9.89711e-12 9.96359e-12 -3.28683e-12)
(6.1254e-12 1.04753e-11 -3.13522e-12)
(3.32889e-12 9.97869e-12 -2.60597e-12)
(2.19359e-12 1.18916e-11 -2.05256e-12)
(1.5217e-12 1.38779e-11 -1.61607e-12)
(-9.60995e-13 1.27084e-11 -2.56247e-13)
(-4.59677e-12 1.24119e-11 2.76553e-12)
(-5.64338e-12 1.10493e-11 6.14286e-12)
(-4.77938e-12 1.01551e-11 8.56381e-12)
(-4.50096e-12 9.97908e-12 5.96579e-12)
(-5.99685e-12 8.50576e-12 2.91053e-12)
(-8.46651e-12 7.35468e-12 2.07195e-12)
(-7.85159e-12 5.57874e-12 2.01048e-12)
(-6.39958e-12 4.17415e-12 1.08504e-12)
(-6.03723e-12 4.4577e-12 7.97804e-13)
(-5.74942e-12 4.65817e-12 9.99045e-13)
(-5.91832e-12 5.72009e-12 1.32906e-12)
(-6.44016e-12 5.6545e-12 1.38164e-12)
(-6.19876e-12 4.44556e-12 -4.4364e-13)
(-7.16675e-12 3.75688e-12 -2.61583e-12)
(-6.8018e-12 3.91182e-12 -3.39809e-12)
(-5.31939e-12 4.09846e-12 -3.70131e-12)
(-4.71686e-12 3.39302e-12 -3.22268e-12)
(-2.88043e-12 2.98204e-12 -2.43338e-12)
(-1.55574e-12 2.60941e-12 -2.1584e-12)
(-1.8157e-12 3.47066e-12 -2.15796e-12)
(-1.7932e-12 3.11406e-12 -2.60543e-12)
(-1.57933e-12 3.39052e-12 -2.75421e-12)
(-1.25941e-12 2.06768e-12 -5.15505e-12)
(-7.77653e-13 1.58359e-12 -8.97764e-12)
(-1.20844e-13 3.11014e-12 -1.09947e-11)
(4.34032e-13 4.24316e-12 -1.1878e-11)
(-5.22396e-13 3.52452e-12 -1.14709e-11)
(-1.20241e-12 4.64485e-12 -9.94631e-12)
(1.03055e-12 4.92737e-12 -8.44166e-12)
(1.88949e-12 4.99773e-12 -7.10066e-12)
(9.22941e-13 4.68053e-12 -6.37047e-12)
(9.59406e-13 4.45078e-12 -6.37602e-12)
(1.73463e-12 3.38064e-12 -5.84213e-12)
(2.57505e-12 3.51432e-12 -5.64057e-12)
(2.92256e-12 4.01637e-12 -6.3595e-12)
(3.38212e-12 4.79808e-12 -6.66321e-12)
(3.79505e-12 5.46609e-12 -5.76214e-12)
(3.41868e-12 5.43667e-12 -6.11539e-12)
(2.98245e-12 5.91189e-12 -5.45728e-12)
(3.87955e-12 5.29813e-12 -6.01233e-12)
(4.09962e-12 6.02129e-12 -4.57615e-12)
(5.72642e-12 6.85518e-12 -2.3034e-12)
(5.97721e-12 7.78404e-12 -1.10921e-13)
(4.21176e-12 7.21845e-12 1.38523e-12)
(2.60935e-12 7.82196e-12 3.93414e-12)
(-3.52637e-14 7.13436e-12 5.28968e-12)
(-9.33367e-13 4.34884e-12 5.05582e-12)
(2.16093e-12 7.85634e-12 -1.86668e-12)
(2.06279e-12 7.48921e-12 -1.47414e-12)
(1.43965e-12 8.24555e-12 -1.40119e-12)
(-8.4133e-13 8.0872e-12 -2.16924e-12)
(-2.01613e-12 7.89426e-12 -9.99925e-13)
(-2.18954e-12 7.91169e-12 -1.625e-12)
(-2.8951e-12 7.55481e-12 -2.34581e-12)
(-3.35854e-12 6.49529e-12 -4.17444e-12)
(-4.47839e-12 5.57288e-12 -4.64847e-12)
(-4.23739e-12 5.06552e-12 -5.04411e-12)
(-3.30714e-12 5.25477e-12 -4.67869e-12)
(-2.72526e-12 5.57743e-12 -3.78102e-12)
(-2.23137e-12 4.36151e-12 -3.13801e-12)
(-1.8525e-12 3.94605e-12 -5.00243e-12)
(-1.59975e-12 3.89524e-12 -5.50431e-12)
(-2.4764e-12 3.28409e-12 -6.43065e-12)
(-3.17668e-12 2.18026e-12 -7.156e-12)
(-2.2914e-12 2.12593e-12 -6.2304e-12)
(-2.34161e-12 2.01361e-12 -5.33836e-12)
(-3.15888e-12 2.23427e-12 -4.92106e-12)
(-2.7167e-12 1.51147e-12 -3.93908e-12)
(-1.62413e-12 1.05074e-12 -2.66062e-12)
(-2.16645e-12 6.72197e-13 -1.53954e-12)
(-3.43196e-12 3.24883e-13 -1.99155e-12)
(-4.43746e-12 2.82507e-14 -3.78091e-12)
(-2.50933e-12 -9.64802e-13 -5.8063e-12)
(-5.20153e-13 -8.26187e-13 -8.02175e-12)
(-1.22426e-12 2.04046e-13 -9.47691e-12)
(-6.18704e-13 2.80939e-13 -1.12603e-11)
(-1.47034e-12 1.00894e-12 -1.06985e-11)
(-1.24051e-12 1.9728e-12 -1.03814e-11)
(9.06196e-13 2.30149e-12 -1.03203e-11)
(8.35466e-13 3.24022e-12 -9.98016e-12)
(-1.13592e-12 3.16748e-12 -9.48466e-12)
(-1.15635e-12 3.59764e-12 -8.30631e-12)
(-1.32261e-12 3.82541e-12 -6.42212e-12)
(-2.41574e-12 3.91748e-12 -4.57475e-12)
(-5.8769e-13 3.9814e-12 -2.36552e-12)
(-2.1164e-13 3.83211e-12 7.64294e-13)
(-1.22511e-12 3.63174e-12 1.39049e-12)
(-7.50422e-13 3.70869e-12 1.6381e-12)
(-2.08489e-13 3.31079e-12 2.06923e-12)
(-7.63789e-13 2.94078e-12 1.17074e-12)
(-1.29622e-13 3.45018e-12 -1.79893e-13)
(9.23343e-13 3.37215e-12 -1.82733e-12)
(2.54544e-13 3.66849e-12 -2.33304e-12)
(-1.21851e-12 4.24607e-12 -2.96283e-13)
(-1.31666e-12 3.1259e-12 4.38346e-13)
(-1.22068e-12 2.271e-12 3.23098e-13)
(-1.9441e-12 2.07037e-12 4.71652e-13)
(-1.24935e-12 2.40039e-12 1.3483e-12)
(-1.4011e-13 2.49693e-12 2.37387e-12)
(2.12785e-13 3.29245e-12 2.32242e-12)
(5.46186e-13 3.4449e-12 1.91074e-12)
(8.42434e-14 3.92819e-12 1.47106e-12)
(1.27009e-13 4.258e-12 1.7217e-12)
(-7.87316e-13 4.50105e-12 3.56549e-13)
(-1.82092e-12 4.04511e-12 -1.67664e-13)
(-1.86705e-12 4.20191e-12 -2.56617e-13)
(-2.16931e-12 4.08378e-12 -1.21516e-12)
(-1.47563e-12 4.00892e-12 -3.91808e-13)
(-2.15434e-12 3.17343e-12 5.97147e-13)
(-3.20207e-12 2.24048e-12 8.20375e-13)
(-1.26117e-12 2.3078e-12 2.58724e-13)
(-6.88697e-14 1.55748e-12 -4.98981e-13)
(1.21048e-12 2.50427e-12 -1.83055e-12)
(1.89693e-12 2.65113e-12 -3.37238e-12)
(1.61202e-12 3.39369e-12 -7.37659e-13)
(2.36708e-12 3.7948e-12 2.01278e-12)
(2.54577e-12 3.67158e-12 3.56433e-12)
(2.58119e-12 4.33566e-12 3.5729e-12)
(3.42882e-12 4.17716e-12 4.30445e-12)
(4.572e-12 4.8703e-12 4.96079e-12)
(3.93956e-12 5.46707e-12 6.99064e-12)
(4.75209e-12 5.73622e-12 1.00673e-11)
(4.57344e-12 6.89806e-12 1.24096e-11)
(5.4743e-12 7.18271e-12 1.29972e-11)
(6.21017e-12 7.26881e-12 1.24679e-11)
(5.37636e-12 7.63013e-12 1.13044e-11)
(4.35626e-12 7.22651e-12 1.00826e-11)
(3.80359e-12 8.27274e-12 8.02103e-12)
(2.0906e-12 8.56398e-12 7.09839e-12)
(1.6008e-12 7.23053e-12 3.93533e-12)
(-3.45851e-13 8.02614e-12 5.60964e-13)
(-4.04261e-12 7.86731e-12 -1.39366e-13)
(-5.28781e-12 6.71732e-12 -9.0898e-13)
(-5.37424e-12 6.11045e-12 -9.76435e-13)
(-4.9735e-12 5.16903e-12 -5.31613e-13)
(-3.57966e-12 5.1667e-12 1.98956e-13)
(-2.79587e-12 4.71646e-12 1.80994e-12)
(-1.46362e-12 5.20049e-12 2.57861e-12)
(-1.5902e-12 4.76359e-12 3.56675e-12)
(-1.23326e-12 4.34426e-12 4.9147e-12)
(5.32302e-13 4.2911e-12 5.05832e-12)
(4.96763e-13 3.78365e-12 4.26106e-12)
(-8.37426e-14 4.15729e-12 4.255e-12)
(1.58758e-12 4.24864e-12 3.57158e-12)
(2.13094e-12 5.35377e-12 2.77337e-12)
(1.1303e-12 6.06595e-12 3.5822e-12)
(3.86124e-13 6.79692e-12 4.74754e-12)
(-6.07287e-13 7.48955e-12 3.08733e-12)
(-1.87165e-12 6.7004e-12 8.12002e-13)
(-3.1394e-12 6.29473e-12 -9.33813e-13)
(-3.54988e-12 6.56648e-12 -1.81938e-12)
(-3.70294e-12 6.80393e-12 -2.01245e-12)
(-4.35177e-12 5.92847e-12 -1.67379e-12)
(-4.46774e-12 5.16329e-12 -3.00341e-13)
(-4.58646e-12 4.27661e-12 -8.21547e-13)
(-5.7305e-12 4.09847e-12 -2.15583e-12)
(-5.23503e-12 3.24217e-12 -2.70965e-12)
(-3.84296e-12 3.58773e-12 -4.39286e-12)
(-2.59308e-12 2.95797e-12 -4.39309e-12)
(-1.32273e-12 3.28684e-12 -5.12511e-12)
(-8.91782e-13 3.32745e-12 -6.99933e-12)
(6.41896e-14 2.94611e-12 -7.25416e-12)
(1.22213e-12 4.04173e-12 -7.09498e-12)
(1.2742e-12 4.46926e-12 -5.86795e-12)
(1.85706e-12 4.34511e-12 -4.84195e-12)
(2.41803e-12 4.54491e-12 -3.7652e-12)
(1.59378e-12 4.64401e-12 -2.80331e-12)
(2.2764e-12 4.43676e-12 -1.85558e-12)
(3.79092e-12 4.87191e-12 -1.01317e-12)
(5.25099e-12 4.90349e-12 -1.10721e-12)
(5.81449e-12 5.45129e-12 -2.45605e-12)
(6.29954e-12 5.13215e-12 -3.75617e-12)
(7.33741e-12 5.02234e-12 -6.38375e-12)
(7.32761e-12 6.19182e-12 -7.86151e-12)
(6.79175e-12 6.16102e-12 -7.75871e-12)
(6.4531e-12 6.19913e-12 -7.1072e-12)
(6.46026e-12 7.35921e-12 -6.44285e-12)
(6.51652e-12 7.36851e-12 -5.49438e-12)
(6.36628e-12 7.10661e-12 -5.83948e-12)
(5.43124e-12 7.7218e-12 -7.25489e-12)
(5.64507e-12 8.59239e-12 -8.156e-12)
(3.90435e-12 8.94957e-12 -1.16378e-11)
(2.04361e-13 8.97081e-12 -1.04097e-11)
(-5.11109e-13 7.85154e-12 -9.48179e-12)
(-1.89418e-12 6.49274e-12 -9.7729e-12)
(-2.47134e-12 5.75684e-12 -9.03342e-12)
(-2.42755e-12 5.23965e-12 -9.85505e-12)
(-2.10952e-12 4.00317e-12 -9.41283e-12)
(-1.11197e-12 4.1803e-12 -9.54244e-12)
(-6.85317e-13 5.24871e-12 -9.19114e-12)
(-1.51348e-13 5.17579e-12 -8.6447e-12)
(1.73188e-13 4.93476e-12 -8.22069e-12)
(-1.98211e-13 4.36898e-12 -8.05867e-12)
(-2.65768e-12 3.80753e-12 -7.99122e-12)
(-4.07575e-12 3.79444e-12 -6.64024e-12)
(-3.86959e-12 3.41113e-12 -5.01587e-12)
(-3.4856e-12 2.69168e-12 -5.42621e-12)
(-3.54222e-12 3.27419e-12 -4.74212e-12)
(-3.42373e-12 3.24593e-12 -2.74594e-12)
(-2.04135e-12 3.07876e-12 -1.15138e-12)
(-1.6496e-12 2.26238e-12 -9.96736e-13)
(-9.0881e-13 2.35018e-12 8.82819e-14)
(2.24944e-13 2.34746e-12 -1.07278e-12)
(5.42011e-13 3.34506e-12 -7.92974e-13)
(7.74072e-13 4.18519e-12 -1.19199e-12)
(1.43983e-13 4.82403e-12 -1.38486e-12)
(4.12808e-13 5.33275e-12 -1.33797e-12)
(2.16645e-13 5.50417e-12 -1.6965e-12)
(3.50534e-13 6.07835e-12 -2.80059e-12)
(1.83862e-13 6.53904e-12 -2.87209e-12)
(-2.31304e-13 6.41967e-12 -2.95969e-12)
(-1.47119e-12 5.96672e-12 -3.52103e-12)
(-1.22834e-12 4.24217e-12 -4.18914e-12)
(3.68199e-13 3.1154e-12 -4.09514e-12)
(1.71653e-12 2.13641e-12 -4.04387e-12)
(3.21897e-12 2.754e-12 -3.67967e-12)
(4.26262e-12 2.26426e-12 -3.81758e-12)
(5.03537e-12 2.44252e-12 -4.85859e-12)
(5.14205e-12 2.06615e-12 -5.76971e-12)
(7.15505e-12 2.061e-12 -5.36154e-12)
(8.79384e-12 2.92193e-12 -3.99781e-12)
(9.12976e-12 3.60221e-12 -4.55914e-12)
(9.9678e-12 4.36319e-12 -4.11835e-12)
(1.01247e-11 5.70628e-12 -3.83906e-12)
(1.0129e-11 7.2981e-12 -4.12165e-12)
(9.135e-12 8.92411e-12 -4.18973e-12)
(6.52136e-12 9.59107e-12 -2.97465e-12)
(3.71453e-12 9.54678e-12 -2.90884e-12)
(2.3418e-12 1.05389e-11 -2.23207e-12)
(1.41626e-12 1.13886e-11 -2.16013e-12)
(-1.4157e-12 1.17122e-11 -7.27455e-13)
(-3.52985e-12 1.11985e-11 1.80559e-12)
(-4.43959e-12 9.40596e-12 4.60059e-12)
(-4.82271e-12 8.63457e-12 6.12613e-12)
(-4.66443e-12 8.40728e-12 4.65388e-12)
(-5.45198e-12 7.78571e-12 2.36875e-12)
(-7.17435e-12 6.95421e-12 1.42888e-12)
(-6.58099e-12 5.49669e-12 8.89673e-13)
(-6.46427e-12 4.97091e-12 3.38971e-13)
(-6.9733e-12 5.20628e-12 5.94805e-13)
(-6.18159e-12 5.23237e-12 1.05898e-12)
(-5.99211e-12 5.52637e-12 1.77059e-12)
(-5.73291e-12 5.7275e-12 9.15348e-13)
(-5.52031e-12 4.89949e-12 -9.3722e-13)
(-6.76039e-12 4.56861e-12 -2.63344e-12)
(-7.10356e-12 3.74626e-12 -2.56637e-12)
(-6.05979e-12 3.64037e-12 -3.03019e-12)
(-5.07354e-12 3.5514e-12 -2.80178e-12)
(-3.41273e-12 3.07393e-12 -2.45856e-12)
(-2.25296e-12 3.61066e-12 -2.24419e-12)
(-1.94762e-12 3.89605e-12 -2.32312e-12)
(-1.43937e-12 3.66454e-12 -2.33551e-12)
(-1.53171e-12 3.07902e-12 -3.53493e-12)
(-7.49822e-13 3.12529e-12 -5.64739e-12)
(-2.61882e-13 2.77871e-12 -8.39902e-12)
(-1.34452e-12 2.88209e-12 -9.94495e-12)
(-7.89803e-13 3.53521e-12 -9.98451e-12)
(-6.45943e-13 4.62055e-12 -1.00679e-11)
(-9.13067e-13 4.4978e-12 -8.58749e-12)
(5.05346e-13 4.36162e-12 -7.1083e-12)
(1.00677e-12 5.11008e-12 -6.05261e-12)
(1.58727e-12 4.76489e-12 -5.98195e-12)
(2.17739e-12 4.35592e-12 -5.96988e-12)
(2.38085e-12 3.65777e-12 -5.23058e-12)
(2.7016e-12 3.33608e-12 -4.30432e-12)
(3.00694e-12 3.8537e-12 -4.55216e-12)
(3.2144e-12 4.18932e-12 -5.60234e-12)
(3.88517e-12 4.30619e-12 -5.82229e-12)
(3.44761e-12 4.28876e-12 -5.80791e-12)
(3.35117e-12 4.62766e-12 -5.56951e-12)
(3.71678e-12 4.632e-12 -5.46577e-12)
(3.63681e-12 5.46393e-12 -4.52119e-12)
(4.87001e-12 5.52427e-12 -2.85823e-12)
(5.02165e-12 7.52762e-12 -1.44695e-12)
(4.27744e-12 7.62766e-12 -6.28317e-16)
(1.92109e-12 7.3925e-12 3.25015e-12)
(-2.37623e-13 6.08172e-12 6.18781e-12)
(-1.52398e-12 4.71076e-12 4.57702e-12)
(2.74428e-12 5.29021e-12 -8.55577e-13)
(2.24057e-12 5.21016e-12 -9.43837e-13)
(1.18563e-12 5.67285e-12 -8.28075e-13)
(-4.16106e-13 5.55681e-12 -1.35192e-12)
(-2.19783e-12 5.49529e-12 -1.30277e-12)
(-2.89262e-12 5.79407e-12 -1.83372e-12)
(-2.68946e-12 5.51559e-12 -2.93199e-12)
(-3.05896e-12 4.46034e-12 -4.24065e-12)
(-4.2145e-12 3.96475e-12 -4.81711e-12)
(-4.20616e-12 3.28633e-12 -5.08323e-12)
(-3.43989e-12 2.96112e-12 -4.60891e-12)
(-2.852e-12 3.53711e-12 -3.98426e-12)
(-2.43723e-12 3.50225e-12 -4.44886e-12)
(-1.98617e-12 3.9427e-12 -4.96193e-12)
(-1.92153e-12 3.47721e-12 -5.26213e-12)
(-2.04103e-12 3.82677e-12 -5.95027e-12)
(-2.33948e-12 3.26433e-12 -6.61952e-12)
(-2.36366e-12 2.7202e-12 -6.178e-12)
(-2.47299e-12 2.83387e-12 -5.34617e-12)
(-2.64912e-12 2.32081e-12 -4.5195e-12)
(-2.1839e-12 2.01422e-12 -3.71555e-12)
(-2.32303e-12 2.42002e-12 -2.89938e-12)
(-2.53623e-12 2.91575e-12 -2.38493e-12)
(-2.89467e-12 2.6395e-12 -3.00163e-12)
(-2.6947e-12 1.59487e-12 -5.27687e-12)
(-1.8816e-12 4.15133e-13 -7.25782e-12)
(-1.43963e-12 8.79291e-13 -7.18092e-12)
(-1.36092e-12 1.73092e-12 -7.42495e-12)
(-5.12266e-13 2.05158e-12 -8.47738e-12)
(-7.7289e-13 2.34699e-12 -8.71593e-12)
(-9.89479e-13 1.62497e-12 -8.55875e-12)
(-4.08856e-13 2.36337e-12 -8.25483e-12)
(1.20823e-13 2.97023e-12 -7.46685e-12)
(-1.08476e-12 2.97838e-12 -6.59094e-12)
(-2.06564e-12 1.94778e-12 -5.98704e-12)
(-2.40197e-12 2.62395e-12 -5.34169e-12)
(-2.13569e-12 2.33151e-12 -3.89859e-12)
(-9.05278e-13 1.72288e-12 -2.25452e-12)
(-4.86103e-13 2.89208e-12 7.08993e-15)
(-8.57409e-13 2.8528e-12 2.30989e-12)
(-1.58605e-13 2.33783e-12 2.43711e-12)
(1.61477e-13 1.81627e-12 1.73017e-12)
(-7.07907e-13 1.72508e-12 1.681e-12)
(2.12502e-13 1.44887e-12 8.47977e-13)
(6.74063e-14 2.18827e-12 -5.33692e-13)
(-1.21351e-12 3.24461e-12 -9.35933e-13)
(-9.55953e-13 3.81085e-12 -9.91189e-14)
(-6.19338e-13 3.18452e-12 5.47291e-13)
(-7.1637e-13 2.94009e-12 6.19788e-13)
(-1.69336e-12 3.15938e-12 8.21142e-13)
(-1.48069e-12 2.85383e-12 1.3843e-12)
(-6.21833e-13 2.91904e-12 2.30629e-12)
(-2.53858e-13 3.61376e-12 2.12894e-12)