/*--------------------------------*- C++ -*----------------------------------*\
| =========                 |                                                 |
| \\      /  F ield         | OpenFOAM: The Open Source CFD Toolbox           |
|  \\    /   O peration     | Version:  2406                                  |
|   \\  /    A nd           | Website:  www.openfoam.com                      |
|    \\/     M anipulation  |                                                 |
\*---------------------------------------------------------------------------*/
FoamFile
{
    version     2.0;
    format      ascii;
    arch        "LSB;label=32;scalar=64";
    class       volScalarField;
    location    "0.005";
    object      Ma;
}
// * * * * * * * * * * * * * * * * * * * * * * * * * * * * * * * * * * * * * //

dimensions      [0 0 0 0 0 0 0];

internalField   nonuniform List<scalar> 
81000
(
0.000804939
0.000804922
0.000804862
0.000804745
0.000804594
0.000804465
0.000804382
0.000804351
0.000804346
0.000804353
0.000804378
0.000804434
0.000804525
0.000804659
0.000804833
0.000805048
0.00080529
0.000805553
0.000805813
0.00080606
0.000806274
0.000806451
0.000806585
0.000806682
0.000806747
0.00080679
0.000806817
0.000806833
0.000806844
0.00080685
0.000806854
0.000806855
0.000806856
0.000806853
0.000806847
0.000806836
0.000806824
0.000806813
0.000806802
0.000806791
0.00080678
0.000806768
0.000806754
0.000806741
0.000806726
0.000806707
0.000806684
0.000806655
0.000806622
0.000806585
0.000806543
0.000806498
0.000806448
0.000806396
0.000806343
0.00080629
0.000806238
0.000806189
0.000806144
0.000806103
0.000806068
0.000806038
0.000806014
0.000805996
0.000805984
0.000805976
0.000805972
0.000805969
0.000805965
0.000805955
0.000805933
0.000805893
0.000805829
0.000805738
0.000805614
0.000805451
0.000805244
0.00080499
0.000804686
0.000804335
0.000803943
0.000803522
0.000803087
0.000802657
0.000802254
0.000801896
0.000801598
0.000801367
0.000801204
0.0008011
0.000801043
0.000801017
0.000801009
0.000801015
0.000801032
0.000801059
0.000801094
0.000801133
0.000801075
0.000791265
0.00283059
0.00283004
0.0028288
0.00282687
0.00282452
0.00282207
0.00281983
0.00281799
0.00281664
0.00281575
0.00281525
0.00281501
0.00281493
0.00281492
0.00281496
0.00281514
0.00281559
0.00281636
0.00281742
0.00281868
0.00282003
0.00282134
0.00282254
0.00282357
0.00282441
0.00282506
0.00282553
0.00282584
0.00282603
0.00282613
0.00282617
0.00282618
0.00282617
0.00282616
0.00282613
0.0028261
0.00282605
0.00282599
0.00282592
0.00282584
0.00282574
0.00282564
0.00282552
0.00282539
0.00282525
0.00282509
0.00282491
0.00282471
0.00282448
0.00282424
0.00282398
0.0028237
0.00282342
0.00282315
0.00282288
0.00282264
0.00282242
0.00282223
0.00282208
0.00282197
0.00282188
0.00282182
0.00282178
0.00282174
0.00282171
0.0028217
0.00282169
0.00282171
0.00282176
0.00282188
0.00282207
0.00282231
0.0028226
0.00282292
0.00282326
0.00282359
0.00282393
0.00282426
0.00282459
0.00282493
0.00282527
0.00282565
0.00282606
0.00282651
0.00282702
0.00282757
0.00282818
0.00282884
0.00282956
0.00283036
0.00283127
0.00283229
0.00283345
0.00283475
0.00283617
0.00283763
0.00283902
0.00284015
0.00284088
0.0028412
0.00444057
0.00443863
0.00443495
0.00442971
0.00442353
0.00441695
0.00441031
0.00440383
0.00439771
0.00439216
0.00438734
0.00438338
0.00438033
0.00437819
0.00437688
0.00437623
0.00437604
0.00437626
0.00437748
0.00438013
0.00438396
0.00438828
0.0043925
0.00439628
0.00439947
0.00440205
0.00440402
0.00440544
0.00440635
0.00440687
0.0044071
0.00440715
0.0044071
0.00440697
0.00440681
0.00440662
0.0044064
0.00440616
0.00440589
0.00440559
0.00440524
0.00440485
0.0044044
0.00440389
0.00440332
0.00440267
0.00440195
0.00440116
0.00440033
0.00439949
0.00439867
0.0043979
0.00439722
0.00439663
0.00439613
0.00439571
0.00439539
0.00439518
0.00439511
0.00439516
0.0043953
0.00439551
0.00439577
0.00439609
0.00439653
0.00439716
0.00439804
0.00439919
0.00440065
0.00440249
0.00440475
0.00440748
0.00441074
0.00441452
0.00441884
0.00442368
0.00442901
0.00443481
0.00444103
0.00444762
0.00445454
0.00446173
0.00446914
0.00447669
0.00448428
0.00449181
0.00449916
0.00450614
0.00451254
0.00451824
0.00452321
0.00452747
0.00453111
0.00453422
0.00453699
0.00453945
0.00454145
0.00454277
0.00454333
0.00454365
0.0103583
0.0103571
0.0103554
0.010353
0.0103503
0.0103476
0.010345
0.0103424
0.0103399
0.0103374
0.0103348
0.0103321
0.0103293
0.0103265
0.0103235
0.0103205
0.0103174
0.0103142
0.0103111
0.0103079
0.0103046
0.0103014
0.0102981
0.0102949
0.0102918
0.0102888
0.010286
0.0102834
0.0102811
0.0102791
0.0102774
0.010276
0.0102749
0.010274
0.0102733
0.0102728
0.0102724
0.0102722
0.0102721
0.0102721
0.010272
0.010272
0.0102721
0.0102721
0.0102723
0.0102725
0.0102727
0.0102731
0.0102734
0.0102738
0.0102742
0.0102746
0.0102749
0.0102752
0.0102755
0.0102757
0.0102759
0.010276
0.010276
0.0102757
0.0102751
0.0102741
0.0102726
0.0102705
0.0102678
0.0102644
0.0102603
0.0102555
0.0102499
0.0102437
0.010237
0.0102298
0.0102223
0.0102146
0.0102069
0.0101994
0.0101922
0.0101853
0.010179
0.0101733
0.0101683
0.010164
0.0101605
0.0101577
0.0101556
0.0101541
0.0101531
0.0101525
0.0101523
0.0101523
0.0101524
0.0101527
0.0101531
0.0101535
0.0101538
0.010154
0.0101541
0.0101541
0.0101541
0.0101465
0.0161846
0.0161834
0.0161821
0.0161803
0.0161781
0.016176
0.0161742
0.0161729
0.0161721
0.0161718
0.0161717
0.0161718
0.016172
0.0161722
0.0161726
0.0161731
0.0161737
0.0161743
0.0161748
0.0161753
0.0161757
0.0161759
0.016176
0.0161759
0.0161757
0.0161753
0.0161748
0.0161742
0.0161736
0.0161731
0.0161725
0.0161721
0.0161716
0.0161713
0.016171
0.0161708
0.0161707
0.0161705
0.0161704
0.0161703
0.0161703
0.0161702
0.0161702
0.0161702
0.0161702
0.0161702
0.0161703
0.0161704
0.0161707
0.0161709
0.0161713
0.0161716
0.0161719
0.0161723
0.0161727
0.0161731
0.0161735
0.016174
0.0161746
0.0161751
0.0161756
0.0161761
0.0161764
0.0161767
0.0161767
0.0161764
0.0161758
0.0161748
0.0161733
0.0161712
0.0161687
0.0161656
0.0161622
0.0161582
0.016154
0.0161495
0.0161447
0.0161399
0.0161351
0.0161304
0.0161258
0.0161215
0.0161175
0.0161139
0.0161106
0.0161078
0.0161053
0.0161033
0.0161016
0.0161003
0.0160993
0.0160986
0.0160981
0.0160978
0.0160976
0.0160975
0.0160974
0.0160974
0.0160974
0.0160683
0.01229
0.0122937
0.0122936
0.0122936
0.0122937
0.0122937
0.0122938
0.0122939
0.012294
0.0122941
0.0122943
0.0122945
0.0122948
0.012295
0.0122953
0.0122956
0.0122959
0.0122962
0.0122965
0.0122968
0.012297
0.0122973
0.0122975
0.0122977
0.0122979
0.0122981
0.0122983
0.0122984
0.0122986
0.0122987
0.0122988
0.0122989
0.012299
0.012299
0.0122991
0.0122991
0.0122991
0.0122992
0.0122992
0.0122992
0.0122992
0.0122992
0.0122992
0.0122992
0.0122992
0.0122992
0.0122992
0.0122992
0.0122992
0.0122992
0.0122992
0.0122992
0.0122992
0.0122992
0.0122992
0.0122992
0.0122992
0.0122992
0.0122992
0.0122992
0.0122992
0.0122992
0.0122993
0.0122993
0.0122994
0.0122994
0.0122994
0.0122995
0.0122995
0.0122996
0.0122997
0.0122998
0.0122998
0.0123
0.0123001
0.0123002
0.0123003
0.0123005
0.0123006
0.0123008
0.012301
0.0123011
0.0123013
0.0123014
0.0123015
0.0123016
0.0123016
0.0123016
0.0123017
0.0123017
0.0123017
0.0123017
0.0123017
0.0123016
0.0123016
0.0123015
0.0123014
0.0123013
0.0123027
0.0122927
0.0402881
0.0402956
0.0402953
0.0402951
0.0402949
0.0402945
0.0402942
0.0402937
0.0402934
0.040293
0.0402927
0.0402925
0.0402924
0.0402923
0.0402923
0.0402923
0.0402923
0.0402922
0.0402921
0.0402919
0.0402918
0.0402916
0.0402914
0.0402912
0.040291
0.0402909
0.0402907
0.0402906
0.0402905
0.0402904
0.0402903
0.0402902
0.0402902
0.0402902
0.0402902
0.0402902
0.0402902
0.0402902
0.0402902
0.0402903
0.0402903
0.0402903
0.0402904
0.0402904
0.0402905
0.0402905
0.0402906
0.0402907
0.0402907
0.0402908
0.0402909
0.040291
0.0402911
0.0402912
0.0402913
0.0402915
0.0402916
0.0402917
0.0402919
0.040292
0.0402922
0.0402923
0.0402924
0.0402925
0.0402925
0.0402926
0.0402926
0.0402925
0.0402925
0.0402924
0.0402922
0.040292
0.0402918
0.0402915
0.0402912
0.0402909
0.0402905
0.0402902
0.0402898
0.0402894
0.040289
0.0402886
0.0402882
0.0402879
0.0402876
0.0402873
0.0402871
0.0402869
0.0402868
0.0402868
0.0402869
0.0402871
0.0402874
0.0402878
0.0402883
0.0402889
0.0402895
0.0402902
0.0402908
0.0402852
0.0440568
0.0441328
0.0441329
0.0441329
0.0441329
0.0441329
0.0441329
0.044133
0.044133
0.0441331
0.0441332
0.0441333
0.0441335
0.0441337
0.0441339
0.0441341
0.0441343
0.0441345
0.0441347
0.0441349
0.0441351
0.0441353
0.0441355
0.0441356
0.0441357
0.0441358
0.0441359
0.0441359
0.044136
0.044136
0.044136
0.044136
0.044136
0.044136
0.044136
0.044136
0.0441359
0.0441359
0.0441359
0.0441359
0.0441359
0.0441359
0.0441359
0.0441358
0.0441358
0.0441358
0.0441358
0.0441357
0.0441357
0.0441356
0.0441356
0.0441355
0.0441355
0.0441354
0.0441354
0.0441353
0.0441352
0.0441352
0.0441351
0.0441351
0.044135
0.044135
0.0441349
0.0441349
0.0441349
0.0441349
0.0441349
0.044135
0.044135
0.0441351
0.0441352
0.0441352
0.0441353
0.0441354
0.0441355
0.0441356
0.0441357
0.0441358
0.0441359
0.044136
0.0441361
0.0441362
0.0441362
0.0441363
0.0441363
0.0441364
0.0441364
0.0441365
0.0441365
0.0441365
0.0441366
0.0441366
0.0441366
0.0441366
0.0441367
0.0441367
0.0441367
0.0441367
0.0441367
0.0440368
0.0136149
0.0136499
0.01365
0.01365
0.01365
0.0136501
0.0136501
0.0136501
0.0136502
0.0136502
0.0136503
0.0136503
0.0136504
0.0136505
0.0136505
0.0136506
0.0136507
0.0136508
0.0136508
0.0136509
0.013651
0.013651
0.0136511
0.0136511
0.0136512
0.0136512
0.0136512
0.0136513
0.0136513
0.0136513
0.0136513
0.0136513
0.0136513
0.0136513
0.0136513
0.0136513
0.0136513
0.0136513
0.0136513
0.0136513
0.0136512
0.0136512
0.0136512
0.0136512
0.0136512
0.0136511
0.0136511
0.0136511
0.0136511
0.013651
0.013651
0.013651
0.0136509
0.0136509
0.0136509
0.0136508
0.0136508
0.0136507
0.0136507
0.0136507
0.0136506
0.0136506
0.0136506
0.0136505
0.0136505
0.0136505
0.0136505
0.0136505
0.0136505
0.0136505
0.0136505
0.0136505
0.0136505
0.0136505
0.0136505
0.0136506
0.0136506
0.0136506
0.0136507
0.0136507
0.0136508
0.0136508
0.0136508
0.0136509
0.0136509
0.0136509
0.0136509
0.0136509
0.0136509
0.013651
0.013651
0.013651
0.013651
0.013651
0.013651
0.013651
0.013651
0.013651
0.0136508
0.0136015
0.000629389
0.000632783
0.000632767
0.000632753
0.000632745
0.000632736
0.000632726
0.000632715
0.000632706
0.000632697
0.000632689
0.000632684
0.000632682
0.000632683
0.000632687
0.000632694
0.000632702
0.000632711
0.000632721
0.00063273
0.000632739
0.000632747
0.000632755
0.000632761
0.000632767
0.000632771
0.000632775
0.000632778
0.000632781
0.000632783
0.000632784
0.000632785
0.000632786
0.000632786
0.000632787
0.000632787
0.000632787
0.000632787
0.000632786
0.000632786
0.000632785
0.000632784
0.000632783
0.000632781
0.000632779
0.000632778
0.000632776
0.000632774
0.000632771
0.000632769
0.000632767
0.000632765
0.000632763
0.000632761
0.000632758
0.000632756
0.000632754
0.000632752
0.000632749
0.000632747
0.000632744
0.000632742
0.000632739
0.000632736
0.000632734
0.000632731
0.000632729
0.000632727
0.000632725
0.000632722
0.00063272
0.000632718
0.000632716
0.000632714
0.000632712
0.00063271
0.000632708
0.000632705
0.000632703
0.000632701
0.000632699
0.000632698
0.000632696
0.000632695
0.000632694
0.000632694
0.000632696
0.000632699
0.000632703
0.000632707
0.000632713
0.000632718
0.000632724
0.00063273
0.000632736
0.00063274
0.000632743
0.000632744
0.000632728
0.000628483
0.000815102
0.000814979
0.000814796
0.000814568
0.000814352
0.000814157
0.00081402
0.000813935
0.0008139
0.000813892
0.0008139
0.000813934
0.000814015
0.000814152
0.00081435
0.000814597
0.000814881
0.000815178
0.000815473
0.000815744
0.000815983
0.00081618
0.000816336
0.000816455
0.000816544
0.000816609
0.000816658
0.000816697
0.000816727
0.000816753
0.000816775
0.000816795
0.000816811
0.000816825
0.000816835
0.000816844
0.00081685
0.000816853
0.000816855
0.000816854
0.000816851
0.000816845
0.000816837
0.000816826
0.000816812
0.000816794
0.000816771
0.000816742
0.000816708
0.000816668
0.000816623
0.000816572
0.000816518
0.00081646
0.000816401
0.000816341
0.000816283
0.000816228
0.000816176
0.000816131
0.000816092
0.00081606
0.000816037
0.000816023
0.000816019
0.000816025
0.00081604
0.000816063
0.000816092
0.000816125
0.000816156
0.000816181
0.000816193
0.000816184
0.000816149
0.000816085
0.000815988
0.000815853
0.000815674
0.000815452
0.000815187
0.00081489
0.000814571
0.000814248
0.000813939
0.000813666
0.000813444
0.000813287
0.000813193
0.000813151
0.00081314
0.00081314
0.00081315
0.00081318
0.000813234
0.000813314
0.000813405
0.000813499
0.00081354
0.000810078
0.00285939
0.00285862
0.00285724
0.00285516
0.00285266
0.00285007
0.0028477
0.00284576
0.00284435
0.00284344
0.00284294
0.00284272
0.00284266
0.00284265
0.0028427
0.00284287
0.00284327
0.00284394
0.00284486
0.00284594
0.00284707
0.00284816
0.00284912
0.00284993
0.00285056
0.00285101
0.00285131
0.00285147
0.00285154
0.00285157
0.00285156
0.00285154
0.00285151
0.00285146
0.00285139
0.00285133
0.00285126
0.0028512
0.00285113
0.00285107
0.00285101
0.00285094
0.00285088
0.00285081
0.00285073
0.00285065
0.00285056
0.00285046
0.00285035
0.00285022
0.00285008
0.00284992
0.00284976
0.00284959
0.00284943
0.00284928
0.00284915
0.00284903
0.00284893
0.00284885
0.00284878
0.00284872
0.00284865
0.00284858
0.0028485
0.00284841
0.00284831
0.00284819
0.00284806
0.00284792
0.00284775
0.00284756
0.00284733
0.00284705
0.00284672
0.00284632
0.00284586
0.00284534
0.00284477
0.00284416
0.00284357
0.00284302
0.00284255
0.00284221
0.002842
0.00284191
0.00284189
0.00284192
0.00284207
0.00284242
0.002843
0.00284382
0.00284484
0.00284601
0.00284727
0.00284849
0.00284955
0.00285034
0.0028508
0.00285112
0.00454156
0.00453941
0.0045362
0.00453161
0.00452612
0.00452013
0.00451393
0.00450777
0.00450187
0.00449641
0.0044915
0.00448726
0.00448375
0.00448099
0.004479
0.00447776
0.00447713
0.0044769
0.00447688
0.00447717
0.00447799
0.00447927
0.00448071
0.0044819
0.00448263
0.00448291
0.00448287
0.0044826
0.00448214
0.00448154
0.00448086
0.00448016
0.0044795
0.00447891
0.00447839
0.00447794
0.00447756
0.00447722
0.00447693
0.00447667
0.0044764
0.00447612
0.00447583
0.00447555
0.00447533
0.00447521
0.00447519
0.00447523
0.00447536
0.00447561
0.004476
0.00447652
0.00447712
0.00447778
0.00447845
0.0044791
0.00447971
0.00448025
0.00448072
0.00448115
0.00448157
0.004482
0.00448244
0.00448285
0.0044832
0.00448347
0.00448361
0.00448359
0.00448338
0.00448297
0.00448237
0.00448161
0.00448076
0.0044799
0.0044791
0.00447841
0.00447777
0.00447722
0.00447683
0.00447664
0.00447673
0.00447713
0.00447786
0.00447894
0.00448033
0.00448195
0.00448379
0.00448582
0.00448804
0.0044904
0.00449281
0.00449518
0.00449741
0.0044994
0.004501
0.0045021
0.00450267
0.00450284
0.00450276
0.00446892
0.0102656
0.0102644
0.0102635
0.010262
0.0102601
0.010258
0.0102559
0.0102539
0.0102521
0.0102504
0.0102488
0.0102474
0.0102461
0.010245
0.0102441
0.0102434
0.0102429
0.0102426
0.0102425
0.0102426
0.0102427
0.0102428
0.0102429
0.0102427
0.0102424
0.010242
0.0102415
0.0102409
0.0102402
0.0102395
0.0102388
0.0102381
0.0102375
0.010237
0.0102366
0.0102362
0.0102359
0.0102357
0.0102355
0.0102354
0.0102353
0.0102352
0.0102351
0.0102351
0.0102351
0.0102351
0.0102351
0.0102352
0.0102353
0.0102354
0.0102356
0.0102359
0.0102362
0.0102365
0.0102368
0.0102371
0.0102375
0.0102379
0.0102383
0.0102387
0.0102392
0.0102395
0.0102398
0.01024
0.0102401
0.0102401
0.0102398
0.0102394
0.0102387
0.0102378
0.0102367
0.0102352
0.0102335
0.0102316
0.0102294
0.010227
0.0102246
0.0102221
0.0102197
0.0102173
0.0102151
0.010213
0.0102112
0.0102096
0.0102083
0.0102074
0.0102067
0.0102062
0.010206
0.0102059
0.0102059
0.010206
0.0102062
0.0102063
0.0102066
0.0102067
0.0102068
0.0102069
0.0102068
0.0101862
0.0160838
0.0160816
0.0160809
0.0160797
0.0160779
0.0160757
0.0160736
0.0160717
0.0160703
0.0160694
0.0160689
0.0160688
0.0160688
0.0160689
0.0160691
0.0160695
0.0160701
0.0160709
0.0160718
0.0160728
0.0160738
0.0160746
0.0160752
0.0160756
0.0160759
0.016076
0.016076
0.016076
0.0160759
0.0160757
0.0160755
0.0160752
0.016075
0.0160748
0.0160746
0.0160744
0.0160743
0.0160742
0.0160741
0.016074
0.0160739
0.0160739
0.0160738
0.0160738
0.0160738
0.0160738
0.0160738
0.0160738
0.0160739
0.016074
0.0160742
0.0160744
0.0160747
0.0160749
0.0160752
0.0160755
0.0160758
0.0160762
0.0160766
0.016077
0.0160776
0.0160781
0.0160787
0.0160792
0.0160798
0.0160803
0.0160808
0.0160812
0.0160816
0.0160818
0.0160819
0.016082
0.016082
0.0160819
0.0160819
0.0160818
0.0160818
0.0160817
0.0160816
0.0160816
0.0160815
0.0160814
0.0160813
0.0160812
0.0160811
0.016081
0.016081
0.0160809
0.0160808
0.0160807
0.0160807
0.0160806
0.0160806
0.0160806
0.0160805
0.0160805
0.0160805
0.0160805
0.0160805
0.0160647
0.0123079
0.0123115
0.0123114
0.0123114
0.0123115
0.0123115
0.0123116
0.0123117
0.0123118
0.0123119
0.012312
0.0123122
0.0123124
0.0123126
0.0123128
0.012313
0.0123133
0.0123135
0.0123137
0.012314
0.0123142
0.0123143
0.0123145
0.0123147
0.0123148
0.012315
0.0123151
0.0123152
0.0123153
0.0123154
0.0123155
0.0123156
0.0123157
0.0123157
0.0123158
0.0123158
0.0123159
0.0123159
0.0123159
0.0123159
0.012316
0.012316
0.012316
0.012316
0.012316
0.012316
0.012316
0.012316
0.012316
0.012316
0.012316
0.012316
0.012316
0.012316
0.012316
0.0123161
0.0123161
0.0123161
0.0123161
0.0123161
0.0123161
0.0123162
0.0123162
0.0123162
0.0123162
0.0123163
0.0123163
0.0123163
0.0123163
0.0123164
0.0123164
0.0123165
0.0123166
0.0123167
0.0123168
0.0123169
0.0123171
0.0123173
0.0123175
0.0123178
0.012318
0.0123183
0.0123185
0.0123187
0.0123189
0.0123191
0.0123192
0.0123193
0.0123193
0.0123194
0.0123194
0.0123194
0.0123194
0.0123194
0.0123194
0.0123194
0.0123193
0.0123192
0.0123206
0.0123104
0.0405692
0.0405689
0.0405686
0.0405682
0.0405678
0.0405674
0.040567
0.0405667
0.0405664
0.0405662
0.0405662
0.0405662
0.0405664
0.0405665
0.0405668
0.040567
0.0405672
0.0405674
0.0405676
0.0405678
0.040568
0.0405681
0.0405683
0.0405684
0.0405686
0.0405687
0.0405688
0.0405689
0.040569
0.0405691
0.0405691
0.0405692
0.0405692
0.0405692
0.0405693
0.0405693
0.0405693
0.0405693
0.0405693
0.0405693
0.0405693
0.0405693
0.0405693
0.0405693
0.0405693
0.0405693
0.0405693
0.0405694
0.0405694
0.0405694
0.0405694
0.0405695
0.0405695
0.0405695
0.0405696
0.0405696
0.0405697
0.0405698
0.0405699
0.04057
0.0405701
0.0405703
0.0405704
0.0405706
0.0405709
0.0405711
0.0405714
0.0405717
0.0405721
0.0405724
0.0405727
0.040573
0.0405733
0.0405736
0.0405739
0.0405741
0.0405742
0.0405744
0.0405744
0.0405745
0.0405745
0.0405745
0.0405745
0.0405744
0.0405743
0.0405742
0.040574
0.0405739
0.0405738
0.0405738
0.0405739
0.0405742
0.0405746
0.0405751
0.0405757
0.0405764
0.040577
0.0405776
0.0405783
0.0405836
0.0439899
0.044049
0.0440492
0.0440492
0.0440492
0.0440492
0.0440492
0.0440492
0.0440493
0.0440494
0.0440495
0.0440496
0.0440498
0.0440499
0.0440501
0.0440504
0.0440506
0.0440508
0.044051
0.0440513
0.0440515
0.0440517
0.0440518
0.044052
0.0440521
0.0440522
0.0440523
0.0440524
0.0440524
0.0440524
0.0440525
0.0440525
0.0440525
0.0440525
0.0440525
0.0440525
0.0440525
0.0440525
0.0440525
0.0440525
0.0440524
0.0440524
0.0440524
0.0440524
0.0440524
0.0440523
0.0440523
0.0440523
0.0440522
0.0440522
0.0440521
0.0440521
0.044052
0.0440519
0.0440519
0.0440518
0.0440517
0.0440517
0.0440516
0.0440515
0.0440515
0.0440514
0.0440514
0.0440513
0.0440513
0.0440513
0.0440513
0.0440513
0.0440514
0.0440514
0.0440515
0.0440516
0.0440517
0.0440518
0.0440519
0.044052
0.0440522
0.0440523
0.0440524
0.0440525
0.0440526
0.0440527
0.0440528
0.0440529
0.044053
0.044053
0.0440531
0.0440531
0.0440532
0.0440532
0.0440533
0.0440533
0.0440533
0.0440534
0.0440534
0.0440534
0.0440534
0.0440535
0.0440534
0.0439708
0.0134621
0.0134974
0.0134975
0.0134975
0.0134975
0.0134976
0.0134976
0.0134976
0.0134977
0.0134977
0.0134978
0.0134978
0.0134979
0.013498
0.013498
0.0134981
0.0134982
0.0134982
0.0134983
0.0134984
0.0134984
0.0134985
0.0134986
0.0134986
0.0134987
0.0134987
0.0134987
0.0134987
0.0134988
0.0134988
0.0134988
0.0134988
0.0134988
0.0134988
0.0134988
0.0134988
0.0134988
0.0134987
0.0134987
0.0134987
0.0134987
0.0134987
0.0134987
0.0134987
0.0134986
0.0134986
0.0134986
0.0134986
0.0134985
0.0134985
0.0134985
0.0134984
0.0134984
0.0134984
0.0134983
0.0134983
0.0134982
0.0134982
0.0134982
0.0134981
0.0134981
0.0134981
0.013498
0.013498
0.013498
0.0134979
0.0134979
0.0134979
0.0134979
0.0134979
0.0134979
0.0134979
0.0134979
0.0134979
0.013498
0.013498
0.013498
0.013498
0.0134981
0.0134981
0.0134982
0.0134982
0.0134982
0.0134982
0.0134983
0.0134983
0.0134983
0.0134983
0.0134983
0.0134983
0.0134983
0.0134983
0.0134983
0.0134983
0.0134983
0.0134983
0.0134983
0.0134983
0.0134982
0.0134487
0.000619341
0.000622902
0.000622882
0.000622884
0.000622879
0.000622874
0.000622867
0.000622859
0.000622849
0.00062284
0.000622832
0.000622827
0.000622824
0.000622825
0.000622829
0.000622836
0.000622844
0.000622853
0.000622863
0.000622872
0.000622882
0.00062289
0.000622897
0.000622903
0.000622909
0.000622913
0.000622917
0.00062292
0.000622922
0.000622924
0.000622926
0.000622927
0.000622927
0.000622928
0.000622928
0.000622928
0.000622928
0.000622928
0.000622927
0.000622927
0.000622926
0.000622925
0.000622924
0.000622922
0.000622921
0.000622919
0.000622917
0.000622915
0.000622913
0.00062291
0.000622908
0.000622906
0.000622904
0.000622902
0.0006229
0.000622898
0.000622895
0.000622893
0.000622891
0.000622888
0.000622886
0.000622883
0.000622881
0.000622878
0.000622876
0.000622873
0.000622871
0.000622869
0.000622867
0.000622864
0.000622862
0.00062286
0.000622858
0.000622856
0.000622855
0.000622852
0.00062285
0.000622848
0.000622846
0.000622844
0.000622842
0.000622839
0.000622837
0.000622836
0.000622835
0.000622835
0.000622837
0.000622841
0.000622846
0.000622852
0.000622858
0.000622863
0.000622868
0.00062287
0.000622871
0.00062287
0.000622869
0.000622866
0.000622856
0.000618422
0.000827694
0.0008275
0.000827194
0.000826804
0.000826413
0.000826089
0.000825851
0.000825705
0.00082563
0.000825603
0.000825598
0.000825609
0.000825652
0.000825754
0.000825927
0.000826171
0.000826466
0.000826789
0.000827109
0.000827408
0.000827668
0.000827887
0.000828063
0.000828202
0.00082831
0.000828394
0.000828459
0.000828512
0.000828557
0.000828595
0.00082863
0.000828661
0.000828689
0.000828714
0.000828735
0.000828752
0.000828766
0.000828776
0.000828782
0.000828785
0.000828783
0.000828778
0.000828769
0.000828758
0.000828743
0.000828723
0.000828699
0.000828668
0.000828631
0.000828587
0.000828537
0.00082848
0.000828418
0.000828353
0.000828284
0.000828214
0.000828145
0.000828079
0.000828017
0.000827961
0.000827912
0.000827872
0.000827842
0.000827823
0.000827817
0.000827826
0.00082785
0.000827888
0.000827939
0.000828003
0.000828074
0.000828147
0.000828215
0.00082827
0.000828307
0.000828326
0.000828322
0.000828292
0.000828232
0.000828137
0.000828004
0.000827835
0.000827642
0.000827441
0.000827251
0.000827091
0.000826971
0.000826893
0.00082685
0.000826832
0.000826826
0.000826834
0.000826867
0.000826932
0.000827046
0.000827189
0.000827354
0.000827485
0.000827555
0.00082761
0.00289164
0.00289076
0.00288937
0.0028872
0.00288454
0.0028818
0.00287937
0.00287751
0.0028763
0.00287567
0.00287543
0.00287539
0.00287541
0.00287552
0.00287577
0.0028762
0.00287685
0.00287769
0.0028787
0.00287982
0.00288095
0.00288203
0.00288299
0.00288377
0.00288436
0.00288478
0.00288504
0.00288519
0.00288526
0.00288528
0.00288528
0.00288527
0.00288523
0.00288516
0.00288508
0.00288499
0.0028849
0.00288483
0.00288476
0.0028847
0.00288465
0.0028846
0.00288455
0.0028845
0.00288444
0.00288438
0.00288431
0.00288423
0.00288415
0.00288405
0.00288393
0.00288381
0.00288368
0.00288355
0.00288343
0.00288331
0.00288321
0.00288312
0.00288305
0.00288299
0.00288293
0.00288288
0.00288282
0.00288277
0.00288271
0.00288263
0.00288253
0.00288241
0.00288225
0.00288204
0.00288176
0.00288141
0.00288095
0.00288038
0.00287967
0.00287882
0.00287783
0.0028767
0.00287547
0.00287414
0.00287277
0.00287139
0.00287006
0.00286886
0.00286785
0.00286711
0.00286664
0.00286642
0.00286636
0.00286637
0.00286647
0.00286677
0.00286734
0.00286821
0.00286931
0.00287053
0.00287172
0.00287272
0.00287339
0.00287395
0.0046414
0.00463981
0.0046379
0.00463437
0.00462943
0.00462361
0.00461751
0.00461164
0.00460635
0.00460181
0.0045981
0.00459523
0.00459319
0.00459198
0.00459145
0.00459133
0.00459148
0.00459194
0.00459273
0.00459376
0.0045949
0.00459594
0.00459673
0.00459715
0.0045972
0.00459687
0.00459616
0.00459508
0.00459375
0.00459234
0.00459097
0.00458971
0.0045886
0.00458765
0.00458686
0.00458623
0.00458573
0.00458536
0.00458508
0.00458489
0.00458474
0.00458463
0.00458455
0.0045845
0.00458449
0.00458451
0.00458466
0.00458501
0.00458563
0.0045865
0.00458757
0.00458877
0.00459004
0.00459133
0.00459259
0.00459379
0.00459491
0.00459593
0.00459682
0.00459756
0.00459819
0.00459873
0.00459923
0.00459968
0.00460005
0.00460024
0.00460014
0.00459959
0.00459849
0.00459674
0.0045942
0.0045907
0.00458609
0.00458029
0.00457336
0.00456547
0.00455693
0.00454802
0.00453901
0.00453013
0.0045216
0.00451363
0.0045064
0.00450005
0.00449466
0.00449026
0.00448681
0.00448427
0.00448257
0.00448159
0.00448116
0.00448111
0.00448132
0.00448172
0.00448223
0.00448272
0.00448306
0.00448321
0.00448323
0.00447435
0.0101644
0.0101905
0.0101904
0.0101902
0.0101896
0.0101888
0.0101877
0.0101865
0.0101854
0.0101845
0.0101839
0.0101836
0.0101837
0.0101842
0.0101851
0.0101865
0.0101885
0.010191
0.010194
0.0101973
0.0102009
0.0102045
0.0102079
0.010211
0.0102138
0.0102161
0.0102178
0.0102192
0.0102201
0.0102207
0.010221
0.0102212
0.0102212
0.0102211
0.010221
0.0102208
0.0102206
0.0102204
0.0102202
0.0102199
0.0102197
0.0102195
0.0102193
0.0102191
0.0102189
0.0102187
0.0102185
0.0102184
0.0102184
0.0102184
0.0102184
0.0102186
0.0102188
0.0102191
0.0102195
0.01022
0.0102206
0.0102213
0.0102223
0.0102236
0.0102251
0.010227
0.0102292
0.0102317
0.0102346
0.0102378
0.0102413
0.010245
0.0102488
0.0102527
0.0102566
0.0102604
0.0102641
0.0102676
0.0102709
0.0102738
0.0102765
0.010279
0.0102811
0.010283
0.0102846
0.0102861
0.0102874
0.0102886
0.0102898
0.0102909
0.0102919
0.0102929
0.0102939
0.0102947
0.0102954
0.010296
0.0102965
0.0102969
0.0102972
0.0102974
0.0102975
0.0102977
0.0102979
0.0102879
0.0160138
0.0160105
0.0160094
0.0160076
0.0160054
0.016003
0.0160006
0.0159984
0.0159965
0.0159949
0.0159937
0.0159929
0.0159924
0.0159922
0.0159922
0.0159922
0.0159925
0.0159931
0.0159943
0.0159957
0.0159973
0.0159988
0.0160001
0.0160012
0.0160021
0.0160028
0.0160033
0.0160037
0.0160038
0.0160039
0.0160039
0.0160039
0.0160038
0.0160038
0.0160038
0.0160037
0.0160037
0.0160036
0.0160036
0.0160035
0.0160034
0.0160033
0.0160033
0.0160032
0.0160032
0.0160032
0.0160031
0.0160031
0.0160031
0.0160032
0.0160032
0.0160032
0.0160033
0.0160034
0.0160035
0.0160037
0.0160039
0.0160041
0.0160043
0.0160046
0.0160049
0.0160054
0.0160059
0.0160066
0.0160075
0.0160087
0.0160101
0.0160118
0.0160139
0.0160164
0.0160193
0.0160227
0.0160263
0.0160301
0.016034
0.016038
0.016042
0.0160459
0.0160497
0.0160534
0.0160569
0.0160601
0.0160631
0.0160658
0.0160681
0.0160701
0.0160719
0.0160733
0.0160744
0.0160753
0.016076
0.0160764
0.0160767
0.0160769
0.016077
0.0160771
0.0160771
0.0160771
0.0160772
0.0160571
0.0128538
0.01286
0.01286
0.01286
0.01286
0.0128601
0.0128601
0.0128602
0.0128602
0.0128603
0.0128604
0.0128606
0.0128607
0.0128609
0.0128611
0.0128613
0.0128615
0.0128617
0.0128619
0.0128622
0.0128624
0.0128626
0.0128628
0.012863
0.0128631
0.0128633
0.0128634
0.0128636
0.0128637
0.0128638
0.0128639
0.012864
0.0128641
0.0128642
0.0128642
0.0128643
0.0128643
0.0128644
0.0128644
0.0128644
0.0128644
0.0128644
0.0128645
0.0128645
0.0128645
0.0128645
0.0128645
0.0128645
0.0128644
0.0128644
0.0128644
0.0128644
0.0128644
0.0128644
0.0128645
0.0128645
0.0128645
0.0128644
0.0128644
0.0128644
0.0128644
0.0128643
0.0128643
0.0128643
0.0128642
0.0128642
0.0128642
0.0128642
0.0128642
0.0128642
0.0128642
0.0128642
0.0128643
0.0128643
0.0128644
0.0128645
0.0128646
0.0128646
0.0128647
0.0128648
0.0128648
0.0128649
0.0128649
0.0128649
0.012865
0.012865
0.012865
0.012865
0.0128649
0.0128649
0.0128649
0.0128649
0.0128649
0.0128648
0.0128648
0.0128647
0.0128647
0.0128646
0.0128657
0.0128537
0.0419772
0.0419786
0.0419786
0.0419785
0.0419784
0.0419783
0.0419781
0.041978
0.0419778
0.0419777
0.0419777
0.0419776
0.0419776
0.0419775
0.0419774
0.0419774
0.0419773
0.0419772
0.0419772
0.0419771
0.041977
0.0419769
0.0419767
0.0419766
0.0419765
0.0419764
0.0419763
0.0419762
0.0419762
0.0419761
0.0419761
0.041976
0.041976
0.041976
0.041976
0.041976
0.041976
0.041976
0.041976
0.041976
0.041976
0.0419761
0.0419761
0.0419761
0.0419761
0.0419762
0.0419762
0.0419763
0.0419763
0.0419764
0.0419764
0.0419765
0.0419766
0.0419767
0.0419768
0.0419769
0.041977
0.0419772
0.0419774
0.0419776
0.0419778
0.041978
0.0419782
0.0419785
0.0419788
0.0419791
0.0419794
0.0419797
0.0419801
0.0419804
0.0419808
0.0419811
0.0419815
0.0419819
0.0419822
0.0419825
0.0419828
0.0419831
0.0419834
0.0419836
0.0419838
0.0419839
0.0419841
0.0419842
0.0419842
0.0419843
0.0419843
0.0419843
0.0419842
0.0419841
0.0419841
0.0419841
0.0419843
0.0419845
0.0419848
0.0419851
0.0419854
0.0419857
0.0419861
0.0419932
0.0447818
0.0448481
0.0448482
0.0448482
0.0448482
0.0448482
0.0448482
0.0448483
0.0448483
0.0448484
0.0448485
0.0448486
0.0448488
0.0448489
0.0448491
0.0448493
0.0448495
0.0448497
0.0448499
0.0448501
0.0448502
0.0448504
0.0448505
0.0448507
0.0448508
0.0448508
0.0448509
0.0448509
0.0448509
0.044851
0.044851
0.044851
0.044851
0.044851
0.044851
0.044851
0.044851
0.0448509
0.0448509
0.0448509
0.0448509
0.0448509
0.0448509
0.0448509
0.0448509
0.0448508
0.0448508
0.0448508
0.0448507
0.0448507
0.0448506
0.0448506
0.0448505
0.0448505
0.0448504
0.0448504
0.0448503
0.0448502
0.0448502
0.0448501
0.0448501
0.04485
0.04485
0.0448499
0.0448499
0.0448499
0.0448499
0.0448499
0.0448499
0.0448499
0.04485
0.04485
0.04485
0.0448501
0.0448502
0.0448502
0.0448503
0.0448504
0.0448505
0.0448505
0.0448506