/*--------------------------------*- C++ -*----------------------------------*\
| =========                 |                                                 |
| \\      /  F ield         | OpenFOAM: The Open Source CFD Toolbox           |
|  \\    /   O peration     | Version:  2406                                  |
|   \\  /    A nd           | Website:  www.openfoam.com                      |
|    \\/     M anipulation  |                                                 |
\*---------------------------------------------------------------------------*/
FoamFile
{
    version     2.0;
    format      ascii;
    arch        "LSB;label=32;scalar=64";
    class       volVectorField;
    location    "0.005";
    object      U;
}
// * * * * * * * * * * * * * * * * * * * * * * * * * * * * * * * * * * * * * //

dimensions      [0 1 -1 0 0 0 0];

internalField   nonuniform List<vector> 
81000
(
(-0.0302267 0.274977 0)
(-0.0302272 0.27497 0)
(-0.0302298 0.274949 0)
(-0.030235 0.274908 0)
(-0.0302425 0.274855 0)
(-0.0302498 0.274809 0)
(-0.0302559 0.27478 0)
(-0.0302596 0.274769 0)
(-0.0302615 0.274767 0)
(-0.0302628 0.274769 0)
(-0.0302648 0.274778 0)
(-0.0302675 0.274796 0)
(-0.0302702 0.274828 0)
(-0.0302727 0.274874 0)
(-0.0302746 0.274934 0)
(-0.0302759 0.275008 0)
(-0.0302766 0.275092 0)
(-0.0302765 0.275183 0)
(-0.0302757 0.275272 0)
(-0.0302742 0.275358 0)
(-0.0302722 0.275432 0)
(-0.0302699 0.275494 0)
(-0.0302677 0.27554 0)
(-0.0302658 0.275574 0)
(-0.0302642 0.275597 0)
(-0.0302631 0.275612 0)
(-0.0302624 0.275621 0)
(-0.030262 0.275627 0)
(-0.0302618 0.27563 0)
(-0.0302617 0.275633 0)
(-0.0302617 0.275634 0)
(-0.0302617 0.275634 0)
(-0.0302617 0.275634 0)
(-0.0302618 0.275634 0)
(-0.0302621 0.275631 0)
(-0.0302627 0.275628 0)
(-0.0302636 0.275624 0)
(-0.0302648 0.275619 0)
(-0.0302662 0.275615 0)
(-0.0302677 0.275611 0)
(-0.0302696 0.275607 0)
(-0.0302719 0.275603 0)
(-0.0302746 0.275598 0)
(-0.0302785 0.275593 0)
(-0.0302832 0.275587 0)
(-0.0302879 0.27558 0)
(-0.030292 0.275572 0)
(-0.0302961 0.275561 0)
(-0.0303002 0.27555 0)
(-0.0303045 0.275536 0)
(-0.0303091 0.275521 0)
(-0.030314 0.275505 0)
(-0.0303195 0.275487 0)
(-0.0303256 0.275469 0)
(-0.0303323 0.27545 0)
(-0.0303398 0.27543 0)
(-0.030348 0.275412 0)
(-0.030357 0.275394 0)
(-0.0303666 0.275377 0)
(-0.030377 0.275362 0)
(-0.030388 0.275348 0)
(-0.0303997 0.275337 0)
(-0.030412 0.275327 0)
(-0.0304251 0.275319 0)
(-0.0304387 0.275313 0)
(-0.0304531 0.275309 0)
(-0.0304681 0.275306 0)
(-0.0304838 0.275303 0)
(-0.0305001 0.2753 0)
(-0.0305168 0.275295 0)
(-0.0305332 0.275286 0)
(-0.0305487 0.27527 0)
(-0.0305629 0.275246 0)
(-0.0305763 0.275213 0)
(-0.0305894 0.275169 0)
(-0.0306025 0.275111 0)
(-0.0306159 0.275038 0)
(-0.0306296 0.274948 0)
(-0.0306436 0.274842 0)
(-0.0306576 0.274719 0)
(-0.0306715 0.274582 0)
(-0.030685 0.274435 0)
(-0.0306976 0.274283 0)
(-0.0307089 0.274133 0)
(-0.0307184 0.273993 0)
(-0.030726 0.273868 0)
(-0.0307314 0.273764 0)
(-0.0307346 0.273684 0)
(-0.0307356 0.273627 0)
(-0.0307346 0.273592 0)
(-0.0307323 0.273572 0)
(-0.0307292 0.273564 0)
(-0.0307253 0.273561 0)
(-0.0307214 0.273564 0)
(-0.0307167 0.27357 0)
(-0.0307112 0.27358 0)
(-0.0307049 0.273593 0)
(-0.0306978 0.273607 0)
(-0.0306333 0.273594 0)
(-0.0302273 0.270249 0)
(-0.0640114 0.970694 0)
(-0.0640117 0.970494 0)
(-0.0640163 0.970066 0)
(-0.0640226 0.969401 0)
(-0.0640289 0.96859 0)
(-0.0640339 0.967747 0)
(-0.0640372 0.966974 0)
(-0.0640384 0.966342 0)
(-0.0640376 0.965877 0)
(-0.0640354 0.965573 0)
(-0.0640322 0.9654 0)
(-0.0640286 0.965318 0)
(-0.0640249 0.96529 0)
(-0.0640213 0.965285 0)
(-0.0640157 0.965299 0)
(-0.0640036 0.965364 0)
(-0.0639833 0.965519 0)
(-0.0639554 0.965786 0)
(-0.0639212 0.966155 0)
(-0.0638824 0.966593 0)
(-0.0638406 0.967059 0)
(-0.0637979 0.967513 0)
(-0.0637564 0.967929 0)
(-0.0637183 0.968287 0)
(-0.0636847 0.968579 0)
(-0.0636563 0.968804 0)
(-0.063633 0.968967 0)
(-0.0636145 0.969077 0)
(-0.0636001 0.969142 0)
(-0.0635896 0.969177 0)
(-0.0635822 0.969191 0)
(-0.0635769 0.969195 0)
(-0.0635727 0.969193 0)
(-0.0635695 0.969187 0)
(-0.0635663 0.969179 0)
(-0.0635631 0.969167 0)
(-0.0635598 0.969151 0)
(-0.0635568 0.969131 0)
(-0.0635541 0.969107 0)
(-0.0635522 0.969079 0)
(-0.0635516 0.969046 0)
(-0.0635534 0.96901 0)
(-0.0635585 0.968969 0)
(-0.0635672 0.968925 0)
(-0.0635747 0.968875 0)
(-0.0635841 0.968819 0)
(-0.0635941 0.968757 0)
(-0.0636045 0.968686 0)
(-0.0636148 0.968608 0)
(-0.063625 0.968524 0)
(-0.0636349 0.968433 0)
(-0.0636442 0.968338 0)
(-0.0636531 0.968241 0)
(-0.0636614 0.968145 0)
(-0.0636693 0.968053 0)
(-0.0636768 0.967968 0)
(-0.0636843 0.967893 0)
(-0.0636917 0.967829 0)
(-0.0636992 0.967776 0)
(-0.0637064 0.967736 0)
(-0.0637135 0.967706 0)
(-0.0637205 0.967685 0)
(-0.0637269 0.967669 0)
(-0.0637323 0.967656 0)
(-0.0637369 0.967647 0)
(-0.0637412 0.96764 0)
(-0.063746 0.967638 0)
(-0.0637511 0.967643 0)
(-0.0637565 0.967662 0)
(-0.0637618 0.967702 0)
(-0.063766 0.967766 0)
(-0.0637685 0.96785 0)
(-0.0637691 0.96795 0)
(-0.063768 0.96806 0)
(-0.0637656 0.968176 0)
(-0.0637622 0.968293 0)
(-0.0637579 0.968409 0)
(-0.0637532 0.968524 0)
(-0.0637481 0.968638 0)
(-0.0637427 0.968753 0)
(-0.0637393 0.968873 0)
(-0.0637343 0.969001 0)
(-0.0637448 0.969142 0)
(-0.063745 0.969299 0)
(-0.0637385 0.969473 0)
(-0.0637307 0.969664 0)
(-0.0637229 0.969874 0)
(-0.0637148 0.970102 0)
(-0.063709 0.970351 0)
(-0.0637092 0.970628 0)
(-0.063717 0.970938 0)
(-0.0637297 0.971289 0)
(-0.0637448 0.971687 0)
(-0.063758 0.972135 0)
(-0.0637662 0.972623 0)
(-0.0637686 0.973128 0)
(-0.0637663 0.973604 0)
(-0.0637612 0.973993 0)
(-0.0637558 0.974246 0)
(-0.0637539 0.974364 0)
(0.1213 1.52134 0)
(0.121283 1.52062 0)
(0.12127 1.51935 0)
(0.121248 1.51755 0)
(0.121221 1.51542 0)
(0.121198 1.51315 0)
(0.121182 1.51086 0)
(0.12117 1.50863 0)
(0.121156 1.50652 0)
(0.12114 1.50461 0)
(0.121119 1.50295 0)
(0.121095 1.50159 0)
(0.121067 1.50054 0)
(0.121035 1.49981 0)
(0.121003 1.49936 0)
(0.12097 1.49914 0)
(0.120941 1.49907 0)
(0.120894 1.49916 0)
(0.120817 1.49958 0)
(0.12071 1.50051 0)
(0.120583 1.50184 0)
(0.120449 1.50334 0)
(0.120315 1.50481 0)
(0.120189 1.50612 0)
(0.120076 1.50723 0)
(0.119975 1.50812 0)
(0.119887 1.50881 0)
(0.119811 1.50931 0)
(0.119747 1.50963 0)
(0.119694 1.50981 0)
(0.119649 1.50989 0)
(0.119609 1.50991 0)
(0.119573 1.5099 0)
(0.119541 1.50986 0)
(0.119508 1.5098 0)
(0.119473 1.50974 0)
(0.119434 1.50967 0)
(0.119392 1.50959 0)
(0.119349 1.5095 0)
(0.119308 1.5094 0)
(0.119284 1.50928 0)
(0.119271 1.50915 0)
(0.119274 1.50899 0)
(0.119279 1.50882 0)
(0.119286 1.50862 0)
(0.119296 1.50839 0)
(0.119309 1.50814 0)
(0.119325 1.50787 0)
(0.119345 1.50758 0)
(0.119371 1.50729 0)
(0.119402 1.50701 0)
(0.11944 1.50674 0)
(0.119485 1.5065 0)
(0.119541 1.50629 0)
(0.119608 1.50611 0)
(0.119693 1.50596 0)
(0.119803 1.50584 0)
(0.119947 1.50576 0)
(0.120129 1.50572 0)
(0.120348 1.50572 0)
(0.120605 1.50575 0)
(0.1209 1.5058 0)
(0.12123 1.50586 0)
(0.121588 1.50594 0)
(0.12196 1.50606 0)
(0.122333 1.50625 0)
(0.122694 1.50653 0)
(0.12304 1.50689 0)
(0.123375 1.50737 0)
(0.123705 1.50798 0)
(0.124036 1.50873 0)
(0.124375 1.50965 0)
(0.124724 1.51074 0)
(0.125086 1.51202 0)
(0.125465 1.51348 0)
(0.12586 1.51511 0)
(0.12627 1.51692 0)
(0.126693 1.51888 0)
(0.127126 1.52099 0)
(0.127561 1.52323 0)
(0.127989 1.52558 0)
(0.1284 1.52803 0)
(0.128789 1.53055 0)
(0.129145 1.53312 0)
(0.129443 1.53571 0)
(0.129671 1.53829 0)
(0.129848 1.54081 0)
(0.129982 1.54321 0)
(0.130083 1.5454 0)
(0.130164 1.54736 0)
(0.130229 1.54907 0)
(0.130284 1.55054 0)
(0.13037 1.55179 0)
(0.130326 1.55286 0)
(0.130496 1.5538 0)
(0.130513 1.55465 0)
(0.13052 1.55534 0)
(0.130522 1.55579 0)
(0.130521 1.55599 0)
(0.130527 1.55612 0)
(0.437954 3.53284 0)
(0.437939 3.53237 0)
(0.437958 3.53177 0)
(0.437983 3.53094 0)
(0.438004 3.53 0)
(0.437991 3.52906 0)
(0.43793 3.52816 0)
(0.437851 3.52729 0)
(0.437765 3.52644 0)
(0.437669 3.52558 0)
(0.43756 3.52469 0)
(0.437436 3.52378 0)
(0.4373 3.52283 0)
(0.437153 3.52185 0)
(0.436999 3.52084 0)
(0.436837 3.51981 0)
(0.436667 3.51876 0)
(0.43649 3.5177 0)
(0.436303 3.51663 0)
(0.436106 3.51554 0)
(0.435902 3.51444 0)
(0.435699 3.51334 0)
(0.435507 3.51223 0)
(0.435331 3.51114 0)
(0.435175 3.51008 0)
(0.435041 3.50907 0)
(0.434928 3.50811 0)
(0.434835 3.50724 0)
(0.434758 3.50646 0)
(0.434693 3.50577 0)
(0.434638 3.50519 0)
(0.43459 3.5047 0)
(0.434546 3.50431 0)
(0.434503 3.504 0)
(0.434458 3.50377 0)
(0.434414 3.50361 0)
(0.434379 3.50349 0)
(0.434355 3.50342 0)
(0.434342 3.50338 0)
(0.434336 3.50337 0)
(0.434334 3.50336 0)
(0.434332 3.50336 0)
(0.434331 3.50337 0)
(0.434331 3.50339 0)
(0.434334 3.50344 0)
(0.434342 3.50351 0)
(0.434356 3.5036 0)
(0.434377 3.50371 0)
(0.434406 3.50383 0)
(0.434445 3.50396 0)
(0.434499 3.50408 0)
(0.434574 3.5042 0)
(0.434673 3.5043 0)
(0.434793 3.50439 0)
(0.434935 3.50447 0)
(0.435098 3.50453 0)
(0.435286 3.50458 0)
(0.435501 3.50459 0)
(0.435743 3.50454 0)
(0.436008 3.50441 0)
(0.436287 3.50416 0)
(0.436575 3.50378 0)
(0.436871 3.50322 0)
(0.437174 3.50247 0)
(0.437483 3.5015 0)
(0.437796 3.50029 0)
(0.438114 3.49883 0)
(0.438436 3.49711 0)
(0.438768 3.49515 0)
(0.439117 3.49297 0)
(0.439488 3.49058 0)
(0.43988 3.48803 0)
(0.44029 3.48538 0)
(0.440712 3.48268 0)
(0.441141 3.47998 0)
(0.441574 3.47732 0)
(0.442007 3.47476 0)
(0.442435 3.47233 0)
(0.442851 3.47009 0)
(0.443248 3.46807 0)
(0.443619 3.46629 0)
(0.443956 3.46476 0)
(0.444252 3.46351 0)
(0.444505 3.4625 0)
(0.444712 3.46175 0)
(0.444873 3.4612 0)
(0.444994 3.46085 0)
(0.44508 3.46065 0)
(0.445138 3.46056 0)
(0.445184 3.46054 0)
(0.445212 3.46058 0)
(0.445231 3.46068 0)
(0.445235 3.46082 0)
(0.445228 3.46095 0)
(0.445216 3.46106 0)
(0.445205 3.46113 0)
(0.445199 3.46117 0)
(0.445195 3.46118 0)
(0.445193 3.46118 0)
(0.444727 3.45866 0)
(1.36735 5.39197 0)
(1.36724 5.39132 0)
(1.36726 5.39087 0)
(1.36729 5.39021 0)
(1.36731 5.38944 0)
(1.36733 5.38869 0)
(1.36735 5.38805 0)
(1.36736 5.38758 0)
(1.36735 5.3873 0)
(1.36734 5.38719 0)
(1.36732 5.38717 0)
(1.36731 5.38719 0)
(1.36729 5.38726 0)
(1.36726 5.38737 0)
(1.36723 5.38752 0)
(1.36721 5.3877 0)
(1.36718 5.3879 0)
(1.36715 5.38811 0)
(1.36711 5.38832 0)
(1.36707 5.3885 0)
(1.36703 5.38864 0)
(1.36698 5.38874 0)
(1.36693 5.38877 0)
(1.36688 5.38876 0)
(1.36684 5.38868 0)
(1.3668 5.38855 0)
(1.36677 5.38838 0)
(1.36674 5.38818 0)
(1.36672 5.38798 0)
(1.36671 5.38779 0)
(1.3667 5.3876 0)
(1.36669 5.38744 0)
(1.36668 5.38729 0)
(1.36668 5.38718 0)
(1.36667 5.38708 0)
(1.36667 5.38701 0)
(1.36667 5.38695 0)
(1.36667 5.3869 0)
(1.36668 5.38686 0)
(1.36668 5.38683 0)
(1.36668 5.38681 0)
(1.36668 5.38679 0)
(1.36669 5.38677 0)
(1.36669 5.38677 0)
(1.36669 5.38677 0)
(1.3667 5.38677 0)
(1.36671 5.3868 0)
(1.36672 5.38685 0)
(1.36674 5.38693 0)
(1.36675 5.38703 0)
(1.36678 5.38713 0)
(1.3668 5.38725 0)
(1.36684 5.38736 0)
(1.36689 5.38747 0)
(1.36695 5.38759 0)
(1.36701 5.38772 0)
(1.36707 5.38787 0)
(1.36713 5.38802 0)
(1.3672 5.38819 0)
(1.36728 5.38836 0)
(1.36735 5.38853 0)
(1.36744 5.38867 0)
(1.36753 5.38878 0)
(1.36762 5.38883 0)
(1.36773 5.38881 0)
(1.36784 5.38869 0)
(1.36795 5.38845 0)
(1.36808 5.38805 0)
(1.36822 5.38747 0)
(1.36836 5.38671 0)
(1.36851 5.38577 0)
(1.36866 5.38466 0)
(1.36882 5.38338 0)
(1.36899 5.38195 0)
(1.36916 5.3804 0)
(1.36933 5.37875 0)
(1.3695 5.37703 0)
(1.36967 5.37528 0)
(1.36984 5.37353 0)
(1.37001 5.37181 0)
(1.37016 5.37016 0)
(1.3703 5.36859 0)
(1.37044 5.36714 0)
(1.37055 5.36582 0)
(1.37065 5.36464 0)
(1.37074 5.36361 0)
(1.37081 5.36272 0)
(1.37086 5.36198 0)
(1.37091 5.36138 0)
(1.37094 5.36091 0)
(1.37096 5.36055 0)
(1.37098 5.36029 0)
(1.37099 5.36011 0)
(1.371 5.36 0)
(1.371 5.35993 0)
(1.371 5.35989 0)
(1.371 5.35988 0)
(1.37101 5.35988 0)
(1.37099 5.35987 0)
(1.36972 5.35009 0)
(4.15302 0.783506 0)
(4.15197 0.790115 0)
(4.15195 0.790137 0)
(4.15195 0.790142 0)
(4.15196 0.790158 0)
(4.15197 0.79019 0)
(4.15198 0.790244 0)
(4.152 0.790327 0)
(4.15202 0.790442 0)
(4.15205 0.790591 0)
(4.15208 0.790774 0)
(4.15211 0.790989 0)
(4.15215 0.791233 0)
(4.15219 0.791504 0)
(4.15223 0.791797 0)
(4.15227 0.792107 0)
(4.15232 0.792431 0)
(4.15236 0.792762 0)
(4.1524 0.793095 0)
(4.15243 0.793425 0)
(4.15246 0.793746 0)
(4.15249 0.794053 0)
(4.15252 0.794342 0)
(4.15254 0.794609 0)
(4.15257 0.794852 0)
(4.15259 0.795068 0)
(4.15261 0.795256 0)
(4.15264 0.795416 0)
(4.15266 0.79555 0)
(4.15268 0.795659 0)
(4.1527 0.795744 0)
(4.15272 0.795809 0)
(4.15274 0.795856 0)
(4.15275 0.795889 0)
(4.15277 0.79591 0)
(4.15278 0.795922 0)
(4.15279 0.795927 0)
(4.1528 0.795926 0)
(4.15281 0.795919 0)
(4.15282 0.795908 0)
(4.15283 0.795893 0)
(4.15284 0.795873 0)
(4.15284 0.795848 0)
(4.15285 0.795819 0)
(4.15285 0.795784 0)
(4.15286 0.795745 0)
(4.15286 0.7957 0)
(4.15287 0.79565 0)
(4.15288 0.795596 0)
(4.15288 0.795537 0)
(4.15289 0.795473 0)
(4.1529 0.795405 0)
(4.15291 0.795334 0)
(4.15293 0.795258 0)
(4.15295 0.795177 0)
(4.15296 0.795091 0)
(4.15298 0.795 0)
(4.153 0.794907 0)
(4.15302 0.794811 0)
(4.15305 0.794714 0)
(4.15307 0.794616 0)
(4.1531 0.794518 0)
(4.15313 0.794421 0)
(4.15316 0.794332 0)
(4.15319 0.794261 0)
(4.15321 0.794216 0)
(4.15323 0.794199 0)
(4.15324 0.794203 0)
(4.15326 0.794226 0)
(4.15327 0.794272 0)
(4.15327 0.794349 0)
(4.15328 0.794462 0)
(4.15328 0.794618 0)
(4.15328 0.794817 0)
(4.15327 0.795058 0)
(4.15326 0.795337 0)
(4.15325 0.795646 0)
(4.15324 0.795975 0)
(4.15323 0.796311 0)
(4.15322 0.796641 0)
(4.15321 0.796952 0)
(4.15321 0.797232 0)
(4.15321 0.797473 0)
(4.15322 0.797669 0)
(4.15322 0.797821 0)
(4.15322 0.797928 0)
(4.15323 0.797998 0)
(4.15323 0.798037 0)
(4.15324 0.798053 0)
(4.15324 0.798057 0)
(4.15324 0.798054 0)
(4.15324 0.798037 0)
(4.15325 0.797998 0)
(4.15325 0.797934 0)
(4.15325 0.797849 0)
(4.15323 0.797746 0)
(4.15323 0.797619 0)
(4.15322 0.797463 0)
(4.15377 0.797218 0)
(4.15516 0.777277 0)
(6.6974 -12.1359 0)
(6.701 -12.1293 0)
(6.70108 -12.1291 0)
(6.70105 -12.129 0)
(6.70109 -12.1289 0)
(6.70113 -12.1288 0)
(6.70117 -12.1286 0)
(6.70123 -12.1284 0)
(6.70128 -12.1282 0)
(6.70133 -12.1281 0)
(6.70138 -12.1279 0)
(6.70143 -12.1278 0)
(6.70148 -12.1277 0)
(6.70152 -12.1277 0)
(6.70158 -12.1277 0)
(6.70163 -12.1276 0)
(6.70167 -12.1276 0)
(6.70171 -12.1276 0)
(6.70174 -12.1275 0)
(6.70177 -12.1274 0)
(6.7018 -12.1274 0)
(6.70184 -12.1273 0)
(6.70187 -12.1272 0)
(6.70191 -12.1271 0)
(6.70194 -12.127 0)
(6.70198 -12.1269 0)
(6.70201 -12.1269 0)
(6.70204 -12.1268 0)
(6.70207 -12.1267 0)
(6.70209 -12.1267 0)
(6.70212 -12.1266 0)
(6.70214 -12.1266 0)
(6.70215 -12.1266 0)
(6.70217 -12.1266 0)
(6.70218 -12.1266 0)
(6.70219 -12.1266 0)
(6.7022 -12.1266 0)
(6.7022 -12.1266 0)
(6.70221 -12.1266 0)
(6.70221 -12.1266 0)
(6.70222 -12.1266 0)
(6.70222 -12.1266 0)
(6.70222 -12.1266 0)
(6.70222 -12.1266 0)
(6.70223 -12.1267 0)
(6.70223 -12.1267 0)
(6.70223 -12.1267 0)
(6.70223 -12.1267 0)
(6.70224 -12.1268 0)
(6.70224 -12.1268 0)
(6.70225 -12.1268 0)
(6.70225 -12.1269 0)
(6.70226 -12.1269 0)
(6.70227 -12.1269 0)
(6.70228 -12.127 0)
(6.70229 -12.127 0)
(6.7023 -12.1271 0)
(6.70232 -12.1271 0)
(6.70233 -12.1272 0)
(6.70235 -12.1272 0)
(6.70237 -12.1272 0)
(6.70239 -12.1273 0)
(6.70241 -12.1273 0)
(6.70243 -12.1273 0)
(6.70245 -12.1273 0)
(6.70248 -12.1273 0)
(6.7025 -12.1273 0)
(6.70252 -12.1273 0)
(6.70255 -12.1273 0)
(6.70257 -12.1272 0)
(6.7026 -12.1271 0)
(6.70262 -12.127 0)
(6.70265 -12.1269 0)
(6.70267 -12.1268 0)
(6.70269 -12.1267 0)
(6.70271 -12.1265 0)
(6.70273 -12.1264 0)
(6.70275 -12.1262 0)
(6.70276 -12.126 0)
(6.70276 -12.1259 0)
(6.70277 -12.1257 0)
(6.70277 -12.1256 0)
(6.70276 -12.1254 0)
(6.70274 -12.1253 0)
(6.70272 -12.1252 0)
(6.7027 -12.1251 0)
(6.70267 -12.125 0)
(6.70264 -12.1249 0)
(6.7026 -12.1249 0)
(6.70256 -12.1249 0)
(6.70251 -12.125 0)
(6.70246 -12.1251 0)
(6.70239 -12.1252 0)
(6.70231 -12.1254 0)
(6.70222 -12.1257 0)
(6.70211 -12.126 0)
(6.70201 -12.1263 0)
(6.70191 -12.1266 0)
(6.70182 -12.1269 0)
(6.69616 -12.1359 0)
(4.00244 -14.6137 0)
(4.03276 -14.628 0)
(4.03284 -14.628 0)
(4.03284 -14.628 0)
(4.03284 -14.628 0)
(4.03284 -14.628 0)
(4.03285 -14.628 0)
(4.03285 -14.6281 0)
(4.03285 -14.6281 0)
(4.03286 -14.6281 0)
(4.03287 -14.6281 0)
(4.03287 -14.6282 0)
(4.03288 -14.6282 0)
(4.03289 -14.6283 0)
(4.0329 -14.6284 0)
(4.03291 -14.6284 0)
(4.03292 -14.6285 0)
(4.03292 -14.6286 0)
(4.03293 -14.6287 0)
(4.03293 -14.6288 0)
(4.03293 -14.6288 0)
(4.03293 -14.6289 0)
(4.03292 -14.6289 0)
(4.03292 -14.629 0)
(4.03291 -14.629 0)
(4.0329 -14.6291 0)
(4.03289 -14.6291 0)
(4.03288 -14.6291 0)
(4.03287 -14.6291 0)
(4.03286 -14.6292 0)
(4.03285 -14.6292 0)
(4.03284 -14.6292 0)
(4.03283 -14.6292 0)
(4.03282 -14.6292 0)
(4.03281 -14.6292 0)
(4.0328 -14.6292 0)
(4.03279 -14.6292 0)
(4.03279 -14.6292 0)
(4.03278 -14.6292 0)
(4.03277 -14.6292 0)
(4.03277 -14.6292 0)
(4.03276 -14.6292 0)
(4.03276 -14.6292 0)
(4.03276 -14.6292 0)
(4.03276 -14.6291 0)
(4.03276 -14.6291 0)
(4.03276 -14.6291 0)
(4.03276 -14.6291 0)
(4.03276 -14.6291 0)
(4.03276 -14.6291 0)
(4.03276 -14.6291 0)
(4.03277 -14.629 0)
(4.03277 -14.629 0)
(4.03278 -14.629 0)
(4.03279 -14.629 0)
(4.0328 -14.6289 0)
(4.03281 -14.6289 0)
(4.03282 -14.6289 0)
(4.03283 -14.6289 0)
(4.03284 -14.6288 0)
(4.03286 -14.6288 0)
(4.03288 -14.6288 0)
(4.0329 -14.6288 0)
(4.03292 -14.6288 0)
(4.03294 -14.6288 0)
(4.03296 -14.6288 0)
(4.03299 -14.6288 0)
(4.03301 -14.6288 0)
(4.03304 -14.6288 0)
(4.03307 -14.6288 0)
(4.0331 -14.6288 0)
(4.03312 -14.6288 0)
(4.03315 -14.6288 0)
(4.03318 -14.6289 0)
(4.03321 -14.6289 0)
(4.03323 -14.6289 0)
(4.03326 -14.629 0)
(4.03328 -14.629 0)
(4.0333 -14.629 0)
(4.03332 -14.629 0)
(4.03334 -14.629 0)
(4.03335 -14.6291 0)
(4.03337 -14.6291 0)
(4.03338 -14.6291 0)
(4.03339 -14.6291 0)
(4.03339 -14.6291 0)
(4.03339 -14.6291 0)
(4.03339 -14.6292 0)
(4.03339 -14.6292 0)
(4.03338 -14.6292 0)
(4.03338 -14.6292 0)
(4.03337 -14.6292 0)
(4.03337 -14.6292 0)
(4.03337 -14.6292 0)
(4.03337 -14.6292 0)
(4.03337 -14.6292 0)
(4.03337 -14.6292 0)
(4.03337 -14.6293 0)
(4.03323 -14.6293 0)
(3.99842 -14.6078 0)
(1.35259 -4.48015 0)
(1.36061 -4.49011 0)
(1.36057 -4.49017 0)
(1.36058 -4.49017 0)
(1.36058 -4.49018 0)
(1.36058 -4.49019 0)
(1.36058 -4.4902 0)
(1.36058 -4.49021 0)
(1.36058 -4.49023 0)
(1.36059 -4.49024 0)
(1.36059 -4.49026 0)
(1.36059 -4.49028 0)
(1.36059 -4.49031 0)
(1.36059 -4.49033 0)
(1.36059 -4.49036 0)
(1.36058 -4.49038 0)
(1.36058 -4.49041 0)
(1.36058 -4.49044 0)
(1.36058 -4.49046 0)
(1.36058 -4.49049 0)
(1.36058 -4.49051 0)
(1.36058 -4.49054 0)
(1.36057 -4.49056 0)
(1.36057 -4.49058 0)
(1.36057 -4.49059 0)
(1.36057 -4.4906 0)
(1.36056 -4.49062 0)
(1.36056 -4.49062 0)
(1.36056 -4.49063 0)
(1.36056 -4.49064 0)
(1.36055 -4.49064 0)
(1.36055 -4.49064 0)
(1.36055 -4.49064 0)
(1.36054 -4.49064 0)
(1.36054 -4.49064 0)
(1.36054 -4.49064 0)
(1.36054 -4.49064 0)
(1.36053 -4.49064 0)
(1.36053 -4.49063 0)
(1.36053 -4.49063 0)
(1.36053 -4.49063 0)
(1.36053 -4.49062 0)
(1.36053 -4.49061 0)
(1.36052 -4.49061 0)
(1.36052 -4.4906 0)
(1.36052 -4.49059 0)
(1.36052 -4.49058 0)
(1.36052 -4.49057 0)
(1.36052 -4.49056 0)
(1.36052 -4.49055 0)
(1.36052 -4.49054 0)
(1.36052 -4.49053 0)
(1.36052 -4.49052 0)
(1.36052 -4.49051 0)
(1.36052 -4.49049 0)
(1.36052 -4.49048 0)
(1.36052 -4.49046 0)
(1.36052 -4.49045 0)
(1.36053 -4.49043 0)
(1.36053 -4.49042 0)
(1.36053 -4.4904 0)
(1.36053 -4.49039 0)
(1.36053 -4.49038 0)
(1.36054 -4.49037 0)
(1.36054 -4.49036 0)
(1.36054 -4.49035 0)
(1.36055 -4.49034 0)
(1.36055 -4.49034 0)
(1.36056 -4.49033 0)
(1.36057 -4.49033 0)
(1.36057 -4.49033 0)
(1.36058 -4.49033 0)
(1.36059 -4.49034 0)
(1.3606 -4.49034 0)
(1.36061 -4.49035 0)
(1.36061 -4.49036 0)
(1.36062 -4.49037 0)
(1.36063 -4.49038 0)
(1.36064 -4.49039 0)
(1.36065 -4.4904 0)
(1.36066 -4.49041 0)
(1.36066 -4.49042 0)
(1.36067 -4.49043 0)
(1.36068 -4.49044 0)
(1.36068 -4.49045 0)
(1.36069 -4.49046 0)
(1.36069 -4.49046 0)
(1.36069 -4.49047 0)
(1.3607 -4.49047 0)
(1.3607 -4.49047 0)
(1.3607 -4.49047 0)
(1.3607 -4.49047 0)
(1.3607 -4.49047 0)
(1.3607 -4.49047 0)
(1.3607 -4.49047 0)
(1.3607 -4.49047 0)
(1.3607 -4.49047 0)
(1.36071 -4.49047 0)
(1.36077 -4.49038 0)
(1.35041 -4.476 0)
(0.105869 -0.188622 0)
(0.10694 -0.189358 0)
(0.106956 -0.189342 0)
(0.106954 -0.189338 0)
(0.106956 -0.189334 0)
(0.106957 -0.18933 0)
(0.106958 -0.189325 0)
(0.106959 -0.18932 0)
(0.106961 -0.189315 0)
(0.106963 -0.18931 0)
(0.106966 -0.189306 0)
(0.106968 -0.189303 0)
(0.106971 -0.1893 0)
(0.106974 -0.189299 0)
(0.106977 -0.189299 0)
(0.10698 -0.1893 0)
(0.106983 -0.189301 0)
(0.106986 -0.189303 0)
(0.106989 -0.189306 0)
(0.106991 -0.189308 0)
(0.106993 -0.18931 0)
(0.106995 -0.189312 0)
(0.106996 -0.189315 0)
(0.106997 -0.189317 0)
(0.106998 -0.189318 0)
(0.106999 -0.18932 0)
(0.107 -0.189321 0)
(0.107 -0.189322 0)
(0.107 -0.189323 0)
(0.107 -0.189323 0)
(0.107 -0.189324 0)
(0.107 -0.189324 0)
(0.107 -0.189325 0)
(0.107 -0.189325 0)
(0.107 -0.189325 0)
(0.107 -0.189325 0)
(0.107 -0.189325 0)
(0.107 -0.189325 0)
(0.107 -0.189325 0)
(0.107 -0.189325 0)
(0.106999 -0.189325 0)
(0.106999 -0.189324 0)
(0.106999 -0.189324 0)
(0.106999 -0.189324 0)
(0.106999 -0.189323 0)
(0.106998 -0.189323 0)
(0.106998 -0.189322 0)
(0.106998 -0.189321 0)
(0.106997 -0.189321 0)
(0.106997 -0.18932 0)
(0.106997 -0.189319 0)
(0.106997 -0.189318 0)
(0.106997 -0.189317 0)
(0.106997 -0.189316 0)
(0.106998 -0.189315 0)
(0.106998 -0.189314 0)
(0.106998 -0.189313 0)
(0.106998 -0.189312 0)
(0.106998 -0.189311 0)
(0.106998 -0.18931 0)
(0.106999 -0.189309 0)
(0.106999 -0.189308 0)
(0.106999 -0.189307 0)
(0.106999 -0.189306 0)
(0.106999 -0.189305 0)
(0.106999 -0.189304 0)
(0.106999 -0.189303 0)
(0.107 -0.189302 0)
(0.107 -0.189301 0)
(0.107 -0.1893 0)
(0.107 -0.189299 0)
(0.106999 -0.189299 0)
(0.106999 -0.189298 0)
(0.106999 -0.189297 0)
(0.106998 -0.189297 0)
(0.106997 -0.189296 0)
(0.106997 -0.189296 0)
(0.106996 -0.189295 0)
(0.106995 -0.189295 0)
(0.106994 -0.189295 0)
(0.106993 -0.189295 0)
(0.106991 -0.189295 0)
(0.10699 -0.189295 0)
(0.106988 -0.189296 0)
(0.106986 -0.189297 0)
(0.106984 -0.189298 0)
(0.106981 -0.1893 0)
(0.106979 -0.189302 0)
(0.106977 -0.189305 0)
(0.106976 -0.189308 0)
(0.106974 -0.189311 0)
(0.106972 -0.189314 0)
(0.106971 -0.189317 0)
(0.10697 -0.18932 0)
(0.10697 -0.189322 0)
(0.106969 -0.189324 0)
(0.106969 -0.189326 0)
(0.106969 -0.189326 0)
(0.106961 -0.189324 0)
(0.105515 -0.188464 0)
(-0.0298588 0.278539 0)
(-0.0298594 0.278488 0)
(-0.0298683 0.278424 0)
(-0.0298878 0.278343 0)
(-0.0299067 0.278267 0)
(-0.0299199 0.278198 0)
(-0.0299275 0.27815 0)
(-0.029932 0.27812 0)
(-0.0299341 0.278108 0)
(-0.029935 0.278105 0)
(-0.0299357 0.278107 0)
(-0.0299365 0.278119 0)
(-0.0299377 0.278147 0)
(-0.0299393 0.278194 0)
(-0.0299409 0.278263 0)
(-0.0299418 0.278348 0)
(-0.029942 0.278446 0)
(-0.0299415 0.278549 0)
(-0.0299405 0.278651 0)
(-0.0299392 0.278745 0)
(-0.0299375 0.278827 0)
(-0.0299357 0.278895 0)
(-0.0299338 0.27895 0)
(-0.0299321 0.278991 0)
(-0.0299305 0.279022 0)
(-0.0299293 0.279045 0)
(-0.0299282 0.279062 0)
(-0.0299283 0.279075 0)
(-0.0299281 0.279086 0)
(-0.0299281 0.279095 0)
(-0.0299281 0.279102 0)
(-0.0299282 0.279109 0)
(-0.0299284 0.279115 0)
(-0.0299287 0.279119 0)
(-0.0299292 0.279123 0)
(-0.0299298 0.279126 0)
(-0.0299305 0.279128 0)
(-0.0299315 0.279129 0)
(-0.0299327 0.279129 0)
(-0.0299342 0.279129 0)
(-0.0299359 0.279128 0)
(-0.0299381 0.279125 0)
(-0.0299409 0.279122 0)
(-0.0299445 0.279118 0)
(-0.0299486 0.279113 0)
(-0.0299527 0.279106 0)
(-0.0299566 0.279098 0)
(-0.0299604 0.279087 0)
(-0.0299643 0.279075 0)
(-0.0299684 0.279061 0)
(-0.0299728 0.279045 0)
(-0.0299777 0.279027 0)
(-0.0299831 0.279007 0)
(-0.0299892 0.278987 0)
(-0.0299959 0.278966 0)
(-0.0300034 0.278944 0)
(-0.0300117 0.278923 0)
(-0.0300208 0.278903 0)
(-0.0300306 0.278884 0)
(-0.0300412 0.278867 0)
(-0.0300526 0.278853 0)
(-0.0300648 0.27884 0)
(-0.0300778 0.278831 0)
(-0.0300917 0.278825 0)
(-0.0301065 0.278822 0)
(-0.0301219 0.278822 0)
(-0.0301379 0.278825 0)
(-0.0301542 0.278832 0)
(-0.0301707 0.27884 0)
(-0.0301874 0.278849 0)
(-0.0302039 0.278858 0)
(-0.0302205 0.278865 0)
(-0.030237 0.278868 0)
(-0.0302534 0.278863 0)
(-0.0302688 0.278849 0)
(-0.0302836 0.278825 0)
(-0.0302987 0.27879 0)
(-0.0303142 0.278741 0)
(-0.0303302 0.278678 0)
(-0.0303464 0.278599 0)
(-0.0303626 0.278506 0)
(-0.0303784 0.278401 0)
(-0.0303932 0.278289 0)
(-0.0304065 0.278176 0)
(-0.0304175 0.278068 0)
(-0.0304258 0.277973 0)
(-0.0304314 0.277896 0)
(-0.0304345 0.277841 0)
(-0.0304361 0.277808 0)
(-0.0304365 0.277794 0)
(-0.0304364 0.27779 0)
(-0.030436 0.27779 0)
(-0.0304352 0.277793 0)
(-0.0304329 0.277804 0)
(-0.0304285 0.277823 0)
(-0.0304206 0.277852 0)
(-0.0304091 0.277885 0)
(-0.0303896 0.277919 0)
(-0.0303433 0.277938 0)
(-0.0297743 0.276811 0)
(-0.0644086 0.98063 0)
(-0.0644074 0.980325 0)
(-0.0644167 0.979848 0)
(-0.0644242 0.979131 0)
(-0.0644288 0.978268 0)
(-0.0644334 0.977377 0)
(-0.06444 0.976561 0)
(-0.0644485 0.975893 0)
(-0.0644581 0.975406 0)
(-0.0644681 0.975092 0)
(-0.0644776 0.97492 0)
(-0.0644853 0.974845 0)
(-0.0644901 0.974823 0)
(-0.0644934 0.974821 0)
(-0.0644959 0.974836 0)
(-0.0644969 0.974897 0)
(-0.0644929 0.975035 0)
(-0.0644813 0.975267 0)
(-0.0644615 0.975584 0)
(-0.0644344 0.975957 0)
(-0.0644025 0.976349 0)
(-0.0643682 0.976727 0)
(-0.0643342 0.977062 0)
(-0.0643027 0.977343 0)
(-0.0642755 0.977561 0)
(-0.0642533 0.977719 0)
(-0.0642363 0.977821 0)
(-0.0642242 0.977879 0)
(-0.0642163 0.977905 0)
(-0.0642116 0.977913 0)
(-0.0642073 0.977912 0)
(-0.0642044 0.977906 0)
(-0.0642012 0.977893 0)
(-0.0641976 0.977876 0)
(-0.0641937 0.977855 0)
(-0.0641897 0.977832 0)
(-0.0641859 0.977809 0)
(-0.0641827 0.977787 0)
(-0.0641803 0.977765 0)
(-0.0641788 0.977744 0)
(-0.0641792 0.977722 0)
(-0.0641824 0.977699 0)
(-0.0641876 0.977676 0)
(-0.064196 0.977653 0)
(-0.0642025 0.977626 0)
(-0.0642109 0.977598 0)
(-0.0642198 0.977566 0)
(-0.0642287 0.977531 0)
(-0.0642372 0.977491 0)
(-0.0642449 0.977446 0)
(-0.0642517 0.977396 0)
(-0.064258 0.977343 0)
(-0.0642639 0.977286 0)
(-0.0642693 0.977229 0)
(-0.0642745 0.977173 0)
(-0.0642796 0.977121 0)
(-0.0642846 0.977074 0)
(-0.06429 0.977034 0)
(-0.0642957 0.976999 0)
(-0.0643025 0.97697 0)
(-0.0643106 0.976946 0)
(-0.0643208 0.976924 0)
(-0.0643268 0.9769 0)
(-0.0643332 0.976875 0)
(-0.0643383 0.976847 0)
(-0.0643439 0.976816 0)
(-0.0643499 0.97678 0)
(-0.0643565 0.97674 0)
(-0.0643636 0.976696 0)
(-0.064372 0.976646 0)
(-0.0643796 0.976589 0)
(-0.0643871 0.976522 0)
(-0.0643924 0.976442 0)
(-0.0643976 0.976346 0)
(-0.0644016 0.976231 0)
(-0.0644044 0.976095 0)
(-0.064406 0.975936 0)
(-0.0644063 0.975756 0)
(-0.0644054 0.975559 0)
(-0.0644037 0.975352 0)
(-0.0644012 0.975148 0)
(-0.0643976 0.974958 0)
(-0.0643932 0.974799 0)
(-0.0643882 0.974681 0)
(-0.0643841 0.97461 0)
(-0.0643812 0.974579 0)
(-0.0643789 0.974571 0)
(-0.0643765 0.974582 0)
(-0.064372 0.974634 0)
(-0.064367 0.974754 0)
(-0.0643672 0.974955 0)
(-0.0643753 0.975235 0)
(-0.0643862 0.975586 0)
(-0.0643963 0.97599 0)
(-0.0644046 0.976421 0)
(-0.0644114 0.976841 0)
(-0.0644185 0.977207 0)
(-0.0644267 0.977478 0)
(-0.0644342 0.977638 0)
(-0.0644438 0.977785 0)
(0.122088 1.55618 0)
(0.122058 1.55532 0)
(0.12204 1.55421 0)
(0.12199 1.55263 0)
(0.121928 1.55075 0)
(0.121886 1.54868 0)
(0.121865 1.54655 0)
(0.121856 1.54443 0)
(0.121851 1.5424 0)
(0.121841 1.54051 0)
(0.121823 1.53883 0)
(0.121797 1.53737 0)
(0.121765 1.53616 0)
(0.121728 1.53522 0)
(0.121688 1.53454 0)
(0.121646 1.53412 0)
(0.121608 1.5339 0)
(0.121582 1.53383 0)
(0.121544 1.53383 0)
(0.121488 1.53394 0)
(0.121395 1.53423 0)
(0.121267 1.53468 0)
(0.121122 1.53519 0)
(0.12098 1.53562 0)
(0.12086 1.53588 0)
(0.120769 1.53599 0)
(0.120686 1.53598 0)
(0.120629 1.53589 0)
(0.120575 1.53574 0)
(0.120524 1.53554 0)
(0.120477 1.53531 0)
(0.120434 1.53507 0)
(0.120392 1.53485 0)
(0.120351 1.53465 0)
(0.12031 1.53447 0)
(0.120265 1.53432 0)
(0.120218 1.53419 0)
(0.12017 1.53408 0)
(0.120126 1.53398 0)
(0.120083 1.5339 0)
(0.120074 1.5338 0)
(0.120066 1.53371 0)
(0.120072 1.53361 0)
(0.120079 1.53351 0)
(0.120089 1.53343 0)
(0.1201 1.53339 0)
(0.120111 1.53338 0)
(0.120122 1.53339 0)
(0.120138 1.53344 0)
(0.120159 1.53352 0)
(0.120186 1.53365 0)
(0.120221 1.53383 0)
(0.120264 1.53403 0)
(0.120318 1.53425 0)
(0.120384 1.53448 0)
(0.120468 1.5347 0)
(0.12058 1.5349 0)
(0.12073 1.53507 0)
(0.12092 1.53522 0)
(0.121147 1.53535 0)
(0.121407 1.53547 0)
(0.121698 1.5356 0)
(0.122017 1.53572 0)
(0.122359 1.53584 0)
(0.122716 1.53593 0)
(0.123078 1.536 0)
(0.123438 1.53602 0)
(0.123792 1.53598 0)
(0.124139 1.53588 0)
(0.124479 1.53572 0)
(0.124813 1.53548 0)
(0.125149 1.5352 0)
(0.125496 1.53488 0)
(0.125859 1.53456 0)
(0.126249 1.53425 0)
(0.126661 1.53398 0)
(0.127089 1.53373 0)
(0.127536 1.53351 0)
(0.128 1.53334 0)
(0.128473 1.53323 0)
(0.128946 1.53323 0)
(0.129402 1.53333 0)
(0.129826 1.53355 0)
(0.130197 1.53389 0)
(0.130504 1.53434 0)
(0.130769 1.53488 0)
(0.130976 1.5355 0)
(0.131135 1.53619 0)
(0.131237 1.53695 0)
(0.131323 1.53775 0)
(0.131398 1.53858 0)
(0.131468 1.53939 0)
(0.131529 1.54015 0)
(0.131572 1.54083 0)
(0.131611 1.54138 0)
(0.131625 1.54176 0)
(0.131627 1.54196 0)
(0.131627 1.54202 0)
(0.131609 1.54199 0)
(0.131014 1.53046 0)
(0.440139 3.50077 0)
(0.440028 3.50015 0)
(0.439946 3.49984 0)
(0.43987 3.49933 0)
(0.439819 3.49868 0)
(0.439781 3.49796 0)
(0.439741 3.49724 0)
(0.439693 3.49656 0)
(0.439631 3.49593 0)
(0.439554 3.49536 0)
(0.439468 3.49483 0)
(0.439374 3.49434 0)
(0.439278 3.4939 0)
(0.439184 3.49353 0)
(0.439096 3.49322 0)
(0.43901 3.493 0)
(0.438925 3.49284 0)
(0.438832 3.49276 0)
(0.438726 3.49274 0)
(0.438617 3.49277 0)
(0.43851 3.49283 0)
(0.438409 3.49288 0)
(0.438317 3.4929 0)
(0.43824 3.49286 0)
(0.438188 3.49277 0)
(0.43815 3.49263 0)
(0.438121 3.49245 0)
(0.438099 3.49224 0)
(0.438081 3.492 0)
(0.438064 3.49175 0)
(0.438047 3.49151 0)
(0.438028 3.49129 0)
(0.438005 3.49109 0)
(0.437977 3.49091 0)
(0.437942 3.49077 0)
(0.437905 3.49065 0)
(0.437869 3.49056 0)
(0.437839 3.49048 0)
(0.437817 3.49043 0)