/*--------------------------------*- C++ -*----------------------------------*\
| =========                 |                                                 |
| \\      /  F ield         | OpenFOAM: The Open Source CFD Toolbox           |
|  \\    /   O peration     | Version:  2406                                  |
|   \\  /    A nd           | Website:  www.openfoam.com                      |
|    \\/     M anipulation  |                                                 |
\*---------------------------------------------------------------------------*/
FoamFile
{
    version     2.0;
    format      ascii;
    arch        "LSB;label=32;scalar=64";
    class       volScalarField;
    location    "0.1";
    object      Ma;
}
// * * * * * * * * * * * * * * * * * * * * * * * * * * * * * * * * * * * * * //

dimensions      [0 0 0 0 0 0 0];

internalField   nonuniform List<scalar> 
13818
(
2.30159e-13
2.20111e-13
2.27101e-13
2.20637e-13
2.19277e-13
2.09774e-13
1.95343e-13
1.80397e-13
1.69094e-13
1.57202e-13
1.32527e-13
1.20382e-13
1.17915e-13
9.63716e-14
9.66619e-14
9.45664e-14
8.17949e-14
7.65694e-14
8.41271e-14
7.38757e-14
6.10019e-14
6.16619e-14
6.97435e-14
7.42692e-14
7.47288e-14
7.3214e-14
7.87877e-14
8.63621e-14
8.82327e-14
8.97879e-14
9.0184e-14
9.73837e-14
9.59214e-14
9.65182e-14
9.5826e-14
8.90641e-14
8.79834e-14
8.56163e-14
8.51556e-14
8.56934e-14
8.49691e-14
8.14904e-14
8.46737e-14
7.82599e-14
8.37867e-14
8.78957e-14
8.52712e-14
7.75206e-14
7.63186e-14
6.7695e-14
6.64946e-14
7.98368e-14
8.29709e-14
7.94789e-14
8.38792e-14
8.65575e-14
9.02621e-14
8.91937e-14
8.80741e-14
8.76454e-14
8.79231e-14
8.32568e-14
8.35945e-14
9.00043e-14
9.37373e-14
9.10897e-14
9.19614e-14
8.98237e-14
8.50083e-14
7.88701e-14
7.89135e-14
6.66092e-14
6.83229e-14
7.7454e-14
8.50002e-14
8.52564e-14
7.90107e-14
7.78355e-14
7.25587e-14
7.06991e-14
7.02418e-14
6.90691e-14
7.1166e-14
7.55035e-14
7.70929e-14
6.7526e-14
7.04164e-14
6.60815e-14
6.79818e-14
6.92391e-14
6.90428e-14
6.49372e-14
6.59344e-14
6.01515e-14
6.17763e-14
6.2441e-14
7.09761e-14
6.52658e-14
5.75223e-14
5.07197e-14
5.26522e-14
5.63517e-14
5.78425e-14
4.87411e-14
6.07621e-14
7.1331e-14
2.32479e-13
2.21649e-13
2.2706e-13
2.14002e-13
2.12263e-13
2.08156e-13
1.95862e-13
1.82723e-13
1.67484e-13
1.50874e-13
1.3806e-13
1.2178e-13
1.15475e-13
1.0126e-13
9.97341e-14
9.52139e-14
8.9776e-14
8.46477e-14
8.934e-14
8.08913e-14
7.0614e-14
6.78275e-14
8.31661e-14
8.91343e-14
8.97505e-14
8.95085e-14
9.74633e-14
1.0336e-13
1.05212e-13
1.04607e-13
1.02256e-13
1.03865e-13
1.05989e-13
1.0093e-13
1.05115e-13
1.06968e-13
1.01661e-13
9.79229e-14
9.63652e-14
9.68164e-14
9.43126e-14
9.44029e-14
9.78126e-14
9.17841e-14
1.05665e-13
1.07648e-13
1.07709e-13
9.81506e-14
9.24147e-14
7.18561e-14
7.39247e-14
8.39059e-14
9.17876e-14
9.00191e-14
8.82105e-14
9.56299e-14
1.08783e-13
1.17393e-13
1.12725e-13
1.0854e-13
1.06043e-13
1.04293e-13
1.12517e-13
1.15249e-13
1.19833e-13
1.15922e-13
1.16227e-13
1.12274e-13
1.04712e-13
9.39556e-14
8.90082e-14
8.07839e-14
7.36132e-14
8.35352e-14
9.26231e-14
9.47789e-14
8.52104e-14
8.71727e-14
8.11483e-14
7.69491e-14
7.13282e-14
7.92864e-14
7.70226e-14
8.45259e-14
8.52433e-14
7.58511e-14
7.54248e-14
7.62355e-14
7.71942e-14
7.61067e-14
7.44523e-14
7.33652e-14
7.56675e-14
6.76719e-14
6.76121e-14
7.09582e-14
6.72657e-14
6.9239e-14
6.13365e-14
5.33961e-14
6.01394e-14
7.1706e-14
7.14008e-14
5.56015e-14
7.04545e-14
8.12187e-14
2.28657e-13
2.20932e-13
2.26816e-13
2.16431e-13
2.095e-13
2.01146e-13
1.92599e-13
1.88348e-13
1.70475e-13
1.50374e-13
1.37377e-13
1.2277e-13
1.07558e-13
9.65369e-14
9.45089e-14
1.00408e-13
9.3636e-14
9.63175e-14
9.74088e-14
9.2107e-14
8.29146e-14
8.39936e-14
8.74728e-14
9.8444e-14
9.92854e-14
1.04508e-13
1.08887e-13
1.18998e-13
1.20362e-13
1.21324e-13
1.18244e-13
1.16618e-13
1.16564e-13
1.169e-13
1.16576e-13
1.15352e-13
1.13388e-13
1.05844e-13
1.00656e-13
1.01176e-13
1.04908e-13
1.05137e-13
1.04926e-13
9.78794e-14
1.0924e-13
1.15862e-13
1.13801e-13
1.02491e-13
9.14688e-14
8.13797e-14
7.73849e-14
8.69766e-14
1.01985e-13
1.01257e-13
1.04271e-13
1.14654e-13
1.2792e-13
1.3707e-13
1.30563e-13
1.2096e-13
1.2477e-13
1.35948e-13
1.46784e-13
1.46134e-13
1.46525e-13
1.37744e-13
1.29433e-13
1.30597e-13
1.22018e-13
1.11046e-13
1.02869e-13
9.08908e-14
8.80069e-14
9.17969e-14
9.86001e-14
9.81009e-14
1.02194e-13
1.02768e-13
9.54459e-14
8.96385e-14
9.27359e-14
9.14994e-14
8.74569e-14
8.77503e-14
8.54107e-14
8.45628e-14
8.33169e-14
8.56111e-14
8.98584e-14
8.64271e-14
8.49662e-14
8.39506e-14
8.16431e-14
7.91621e-14
7.88507e-14
7.45967e-14
7.62131e-14
7.50699e-14
7.31003e-14
7.27552e-14
8.23292e-14
7.99043e-14
8.01222e-14
7.51171e-14
7.98091e-14
8.71358e-14
2.25787e-13
2.15979e-13
2.2308e-13
2.12923e-13
2.11221e-13
2.05709e-13
1.88871e-13
1.7766e-13
1.68588e-13
1.55116e-13
1.42572e-13
1.21114e-13
1.04239e-13
9.2288e-14
8.06399e-14
8.81962e-14
8.88851e-14
8.87811e-14
9.68694e-14
9.58852e-14
8.9677e-14
8.57293e-14
8.58352e-14
9.8334e-14
1.03621e-13
1.05257e-13
1.07393e-13
1.15818e-13
1.19293e-13
1.27363e-13
1.24304e-13
1.24022e-13
1.15491e-13
1.18311e-13
1.21737e-13
1.15641e-13
1.18178e-13
1.1129e-13
1.0709e-13
1.12591e-13
1.12465e-13
1.07154e-13
1.00528e-13
9.84927e-14
9.54956e-14
1.06087e-13
9.80585e-14
8.89237e-14
7.45748e-14
7.36278e-14
6.75762e-14
7.60274e-14
9.52915e-14
1.02194e-13
1.12587e-13
1.21418e-13
1.2812e-13
1.3193e-13
1.32134e-13
1.41495e-13
1.5457e-13
1.66754e-13
1.72659e-13
1.7148e-13
1.603e-13
1.45905e-13
1.3635e-13
1.358e-13
1.30033e-13
1.12396e-13
8.7657e-14
7.45365e-14
8.87555e-14
9.33031e-14
9.52676e-14
8.43364e-14
9.21482e-14
9.50582e-14
9.80015e-14
9.26475e-14
9.90076e-14
9.48558e-14
8.46973e-14
7.61814e-14
6.89902e-14
7.88221e-14
7.88013e-14
7.97593e-14
8.28028e-14
8.60596e-14
9.09771e-14
8.69976e-14
8.14722e-14
7.81318e-14
7.12534e-14
6.7067e-14
7.33358e-14
7.19037e-14
7.6205e-14
8.42989e-14
8.13559e-14
7.14545e-14
7.47445e-14
7.80232e-14
7.23424e-14
2.34731e-13
2.14739e-13
2.14564e-13
2.10194e-13
2.09452e-13
2.02005e-13
1.86616e-13
1.76438e-13
1.67218e-13
1.49929e-13
1.36096e-13
1.15445e-13
1.01554e-13
9.58686e-14
8.25033e-14
8.21853e-14
8.08367e-14
7.68169e-14
8.52652e-14
8.80238e-14
9.34277e-14
8.30874e-14
8.84568e-14
9.71093e-14
1.00389e-13
1.0132e-13
1.07941e-13
1.04419e-13
1.08147e-13
1.13745e-13
1.20277e-13
1.19491e-13
1.14539e-13
1.11461e-13
1.08802e-13
1.07544e-13
1.0867e-13
1.07378e-13
1.00892e-13
1.11083e-13
1.05727e-13
1.05194e-13
1.02137e-13
1.01678e-13
1.00146e-13
1.03768e-13
9.72416e-14
8.71257e-14
7.08478e-14
6.79294e-14
6.27611e-14
7.44549e-14
8.56784e-14
9.98275e-14
1.08016e-13
1.171e-13
1.29406e-13
1.36782e-13
1.5126e-13
1.74635e-13
1.85015e-13
1.79776e-13
1.8206e-13
1.83556e-13
1.7791e-13
1.66077e-13
1.54345e-13
1.30823e-13
1.17768e-13
9.82399e-14
7.05357e-14
6.20325e-14
7.5499e-14
7.8675e-14
8.05221e-14
7.61404e-14
7.92258e-14
7.75936e-14
8.0633e-14
8.25522e-14
8.86377e-14
7.98979e-14
6.75175e-14
6.43682e-14
5.74236e-14
6.41841e-14
7.18516e-14
7.14676e-14
7.3957e-14
7.90696e-14
8.32122e-14
8.20693e-14
8.43258e-14
7.79012e-14
7.56725e-14
7.07532e-14
7.33017e-14
6.81924e-14
7.63166e-14
8.97043e-14
8.36079e-14
7.93738e-14
8.35805e-14
8.14871e-14
5.76107e-14
2.26901e-13
2.10437e-13
2.18568e-13
2.11353e-13
2.03113e-13
2.01517e-13
1.94189e-13
1.80738e-13
1.62294e-13
1.42493e-13
1.30798e-13
1.13881e-13
9.58134e-14
8.91672e-14
7.96233e-14
8.74614e-14
8.546e-14
7.9336e-14
8.25484e-14
8.5797e-14
8.10136e-14
8.86802e-14
9.93243e-14
1.06225e-13
1.00175e-13
1.05737e-13
1.11003e-13
1.12385e-13
1.06532e-13
1.00484e-13
1.07735e-13
1.13859e-13
1.13181e-13
1.12705e-13
1.03421e-13
1.02343e-13
9.94021e-14
9.60426e-14
9.92598e-14
9.99703e-14
1.14873e-13
1.31845e-13
1.28996e-13
1.23831e-13
1.23459e-13
1.16351e-13
1.18179e-13
1.10544e-13
8.28187e-14
7.58997e-14
6.67404e-14
8.13012e-14
8.10725e-14
9.7128e-14
1.02383e-13
1.12766e-13
1.2764e-13
1.45398e-13
1.81409e-13
2.11774e-13
2.25026e-13
2.25394e-13
2.24664e-13
2.18197e-13
2.10084e-13
1.9146e-13
1.67904e-13
1.31804e-13
1.03808e-13
8.46059e-14
7.11298e-14
6.74441e-14
6.6106e-14
7.11079e-14
7.50866e-14
7.58051e-14
8.05084e-14
7.0365e-14
6.97444e-14
7.99375e-14
7.86457e-14
7.22466e-14
6.36245e-14
7.01386e-14
6.06014e-14
6.14941e-14
7.68215e-14
7.5588e-14
7.75445e-14
8.17291e-14
8.22189e-14
8.69458e-14
9.22595e-14
8.49048e-14
8.91138e-14
8.49442e-14
9.31948e-14
8.50475e-14
9.12718e-14
1.02447e-13
9.84464e-14
9.62914e-14
9.6882e-14
9.34941e-14
6.78529e-14
2.19471e-13
2.10555e-13
2.18239e-13
2.07276e-13
1.94545e-13
1.9529e-13
1.98787e-13
1.87883e-13
1.65914e-13
1.44792e-13
1.24637e-13
1.14695e-13
9.69309e-14
9.01719e-14
8.02767e-14
7.99243e-14
8.54471e-14
8.48964e-14
8.75305e-14
8.47139e-14
7.38455e-14
8.24505e-14
8.3755e-14
9.52601e-14
9.61622e-14
9.12515e-14
9.8655e-14
1.14321e-13
1.00597e-13
8.65701e-14
8.3828e-14
9.49513e-14
1.03517e-13
9.9436e-14
9.9472e-14
9.53204e-14
9.75335e-14
9.20155e-14
8.85063e-14
8.73442e-14
1.11318e-13
1.36489e-13
1.45864e-13
1.41036e-13
1.33828e-13
1.27232e-13
1.34739e-13
1.27979e-13
1.01247e-13
7.87679e-14
6.89838e-14
7.07874e-14
8.20803e-14
9.93773e-14
1.10399e-13
1.12523e-13
1.17339e-13
1.47194e-13
1.97672e-13
2.34104e-13
2.49306e-13
2.53156e-13
2.53631e-13
2.35204e-13
2.22375e-13
2.02049e-13
1.72615e-13
1.3703e-13
1.01511e-13
7.05091e-14
6.87473e-14
6.23199e-14
6.84147e-14
6.8367e-14
7.32143e-14
7.44213e-14
7.39164e-14
7.23152e-14
6.94447e-14
7.36751e-14
7.21277e-14
7.28317e-14
6.97124e-14
6.83967e-14
7.65473e-14
7.23671e-14
7.47966e-14
8.95256e-14
9.57782e-14
9.59059e-14
9.52296e-14
9.09689e-14
8.71984e-14
8.4682e-14
9.15698e-14
9.69656e-14
1.07989e-13
1.01656e-13
1.02109e-13
1.02698e-13
9.85364e-14
1.07557e-13
1.03376e-13
9.16473e-14
8.17041e-14
2.24861e-13
2.13039e-13
2.11673e-13
2.067e-13
1.9979e-13
1.91892e-13
1.88518e-13
1.81502e-13
1.64168e-13
1.45585e-13
1.23651e-13
1.14077e-13
1.04274e-13
9.99922e-14
9.81517e-14
9.22705e-14
9.15445e-14
8.76058e-14
8.37411e-14
8.94001e-14
8.17933e-14
8.4187e-14
7.65539e-14
7.95348e-14
9.23323e-14
8.57426e-14
9.39149e-14
1.08673e-13
1.07928e-13
9.39194e-14
8.38026e-14
8.50727e-14
9.51383e-14
9.40541e-14
9.46521e-14
9.679e-14
9.82964e-14
9.54729e-14
8.17456e-14
7.46757e-14
9.28582e-14
1.09898e-13
1.32463e-13
1.35466e-13
1.36081e-13
1.41945e-13
1.44179e-13
1.34619e-13
1.24285e-13
9.61424e-14
7.90488e-14
6.92736e-14
9.62e-14
1.10717e-13
1.18116e-13
1.14841e-13
1.1827e-13
1.40631e-13
1.74786e-13
2.04899e-13
2.2258e-13
2.21892e-13
2.25123e-13
2.10805e-13
1.98305e-13
1.87042e-13
1.56438e-13
1.26491e-13
9.5813e-14
6.69652e-14
6.34001e-14
6.17804e-14
7.35176e-14
7.63435e-14
7.51204e-14
7.67876e-14
7.47069e-14
8.19868e-14
7.83801e-14
8.15493e-14
9.38531e-14
9.388e-14
8.99031e-14
8.0659e-14
8.86038e-14
8.34522e-14
8.07532e-14
1.06312e-13
1.15135e-13
1.07798e-13
1.01994e-13
9.23607e-14
8.71148e-14
9.20923e-14
8.64968e-14
9.83832e-14
1.09937e-13
1.10229e-13
1.08161e-13
1.00611e-13
9.71418e-14
1.11069e-13
1.12846e-13
8.65023e-14
8.17473e-14
2.26083e-13
2.06875e-13
1.98913e-13
2.034e-13
1.98276e-13
1.98884e-13
1.85205e-13
1.73756e-13
1.69812e-13
1.44723e-13
1.1992e-13
1.08633e-13
1.09184e-13
9.78837e-14
9.59753e-14
9.86329e-14
1.0263e-13
9.69212e-14
8.61941e-14
8.68974e-14
8.44399e-14
7.80577e-14
7.86018e-14
7.23236e-14
8.02373e-14
7.75676e-14
8.48379e-14
9.33453e-14
9.77612e-14
9.61318e-14
8.93458e-14
8.12098e-14
7.967e-14
8.32076e-14
8.15398e-14
8.16892e-14
8.10817e-14
7.25283e-14
6.61235e-14
6.39214e-14
7.7193e-14
8.64204e-14
1.05127e-13
1.15317e-13
1.22056e-13
1.31849e-13
1.3623e-13
1.4148e-13
1.34466e-13
1.12269e-13
9.79297e-14
9.28176e-14
8.99863e-14
8.99173e-14
9.48798e-14
9.73705e-14
9.40535e-14
1.04732e-13
1.22016e-13
1.36546e-13
1.46713e-13
1.50105e-13
1.5081e-13
1.47968e-13
1.41545e-13
1.33489e-13
1.164e-13
9.32594e-14
6.77885e-14
7.16273e-14
7.37388e-14
7.96129e-14
8.82377e-14
9.25347e-14
9.39769e-14
9.2493e-14
8.9066e-14
8.92278e-14
9.13694e-14
9.48478e-14
9.56533e-14
9.70443e-14
9.80063e-14
9.84059e-14
9.29696e-14
9.83227e-14
1.01386e-13
1.12616e-13
1.17799e-13
1.14796e-13
1.07997e-13
1.00661e-13
9.14999e-14
9.60092e-14
9.44553e-14
1.03207e-13
1.07907e-13
1.07377e-13
1.06189e-13
1.03551e-13
9.7032e-14
9.91135e-14
9.72305e-14
8.19635e-14
2.12585e-13
2.11947e-13
1.99947e-13
1.96973e-13
1.94999e-13
1.98543e-13
1.85945e-13
1.64862e-13
1.53674e-13
1.3438e-13
1.12367e-13
9.15309e-14
8.7654e-14
7.94368e-14
7.7397e-14
7.79227e-14
7.81164e-14
7.93861e-14
6.80493e-14
6.07185e-14
6.19257e-14
5.61337e-14
6.10049e-14
5.45824e-14
6.13885e-14
5.90502e-14
6.05046e-14
6.63921e-14
7.29468e-14
7.56246e-14
7.14416e-14
6.24715e-14
6.17111e-14
6.28516e-14
6.13921e-14
5.62384e-14
5.06908e-14
4.27087e-14
4.05321e-14
4.51915e-14
5.60833e-14
6.54229e-14
8.20814e-14
9.90581e-14
1.0956e-13
1.16942e-13
1.2194e-13
1.22749e-13
1.1698e-13
1.07558e-13
9.01158e-14
8.5181e-14
7.41364e-14
6.84603e-14
6.25064e-14
6.26455e-14
5.52815e-14
5.58917e-14
6.43552e-14
6.3713e-14
6.2482e-14
6.45837e-14
6.45539e-14
6.7713e-14
6.39627e-14
6.18534e-14
6.00017e-14
4.73532e-14
3.86565e-14
4.99607e-14
6.20187e-14
6.67459e-14
7.42542e-14
7.52254e-14
7.64602e-14
7.71559e-14
7.04486e-14
6.332e-14
6.84049e-14
7.16438e-14
7.14769e-14
7.61807e-14
7.75024e-14
7.9982e-14
7.54006e-14
8.10286e-14
8.637e-14
8.67716e-14
9.01073e-14
9.11009e-14
8.30757e-14
8.20191e-14
7.50599e-14
7.56507e-14
7.98433e-14
8.16561e-14
7.94757e-14
7.67778e-14
7.88776e-14
7.77484e-14
7.08799e-14
6.8169e-14
6.58091e-14
6.8391e-14
2.15535e-13
2.10734e-13
1.9813e-13
1.96465e-13
1.94368e-13
2.00156e-13
1.92474e-13
1.67861e-13
1.4722e-13
1.22558e-13
1.05807e-13
8.47873e-14
6.84932e-14
5.67263e-14
5.23556e-14
5.69644e-14
4.96395e-14
5.16869e-14
4.92382e-14
4.33469e-14
4.48553e-14
3.61418e-14
3.97021e-14
3.79054e-14
4.29877e-14
4.73729e-14
4.21862e-14
4.5894e-14
5.52173e-14
6.40819e-14
6.69631e-14
5.59985e-14
5.26852e-14
5.53685e-14
5.22315e-14
4.22346e-14
3.67875e-14
3.67415e-14
3.51678e-14
3.25632e-14
4.03498e-14
4.79888e-14
6.29418e-14
8.36308e-14
9.98564e-14
1.08826e-13
1.14893e-13
1.16736e-13
1.12384e-13
1.02502e-13
8.6264e-14
8.37443e-14
7.8937e-14
7.3481e-14
5.92054e-14
4.34966e-14
2.72382e-14
1.90867e-14
1.43172e-14
1.30484e-14
1.46512e-14
2.16477e-14
1.70268e-14
1.4991e-14
1.15763e-14
8.25207e-15
1.14054e-14
1.45315e-14
1.74195e-14
2.50632e-14
3.41974e-14
3.92467e-14
4.07546e-14
4.26195e-14
4.27913e-14
4.2987e-14
4.09289e-14
3.48246e-14
4.26052e-14
4.24116e-14
4.01443e-14
4.2549e-14
4.04047e-14
4.20654e-14
4.02403e-14
4.59651e-14
5.05014e-14
4.97278e-14
4.75088e-14
4.7229e-14
4.2828e-14
4.13064e-14
3.45852e-14
3.90003e-14
3.98342e-14
3.80088e-14
3.61762e-14
3.69632e-14
4.16012e-14
4.1246e-14
2.26267e-13
2.14748e-13
2.07715e-13
1.9877e-13
1.90818e-13
1.92171e-13
1.85838e-13
1.64076e-13
1.49892e-13
1.24551e-13
1.00674e-13
7.934e-14
6.16887e-14
5.3688e-14
4.50367e-14
4.08003e-14
4.31224e-14
3.90735e-14
4.29887e-14
4.04313e-14
4.38082e-14
4.00966e-14
4.0547e-14
4.55066e-14
4.1793e-14
4.02356e-14
4.0493e-14
4.1451e-14
4.20163e-14
5.39029e-14
6.55229e-14
6.88777e-14
6.00847e-14
6.19016e-14
6.41598e-14
5.35933e-14
4.42522e-14
4.2011e-14
4.0666e-14
4.31575e-14
3.9735e-14
3.0114e-14
4.78888e-14
7.16351e-14
8.61731e-14
1.05638e-13
1.20145e-13
1.25139e-13
1.27507e-13
1.27453e-13
1.20367e-13
1.14313e-13
1.11941e-13
9.96125e-14
8.47984e-14
6.30064e-14
4.19812e-14
2.98756e-14
2.93642e-14
3.35357e-14
3.77956e-14
4.18817e-14
4.22577e-14
4.25739e-14
4.41065e-14
4.34158e-14
4.32739e-14
4.07997e-14
3.86295e-14
3.80177e-14
3.54402e-14
3.16911e-14
2.90941e-14
2.68961e-14
2.5109e-14
2.07837e-14
2.02778e-14
2.41829e-14
2.58153e-14
1.73376e-14
1.704e-14
1.77985e-14
1.93892e-14
2.27224e-14
2.65239e-14
2.8641e-14
2.61158e-14
2.19521e-14
2.16385e-14
2.49908e-14
2.68506e-14
2.53384e-14
2.35656e-14
2.73894e-14
2.94706e-14
2.81508e-14
1.75552e-14
2.37814e-14
2.16928e-14
2.16656e-14
2.30267e-13
2.21084e-13
2.08006e-13
2.04509e-13
1.95417e-13
1.88293e-13
1.76919e-13
1.53569e-13
1.45305e-13
1.2762e-13
9.80051e-14
7.59139e-14
6.06115e-14
4.88636e-14
4.62923e-14
3.90958e-14
2.80614e-14
2.6425e-14
3.16631e-14
3.61787e-14
3.57385e-14
3.72206e-14
4.23188e-14
4.47075e-14
4.20901e-14
3.80076e-14
3.62251e-14
3.86871e-14
4.16106e-14
5.51956e-14
6.73052e-14
7.75504e-14
7.02836e-14
7.23309e-14
6.42576e-14
5.2619e-14
5.76132e-14
5.49534e-14
4.84379e-14
4.29901e-14
3.10176e-14
4.11281e-14
5.22247e-14
7.42222e-14
9.25049e-14
1.11144e-13
1.27968e-13
1.3297e-13
1.34682e-13
1.39386e-13
1.34052e-13
1.32397e-13
1.31297e-13
1.14053e-13
1.01742e-13
7.40471e-14
5.16761e-14
3.68931e-14
4.11814e-14
4.4002e-14
4.4819e-14
5.36899e-14
5.26461e-14
5.44075e-14
5.39702e-14
5.75862e-14
5.98504e-14
5.20004e-14
4.85202e-14
4.48463e-14
4.21257e-14
4.00865e-14
3.84403e-14
3.42498e-14
3.2707e-14
1.75422e-14
1.11062e-14
1.10244e-14
9.63973e-15
8.32451e-15
1.62436e-14
1.42876e-14
2.11583e-14
2.02356e-14
1.95517e-14
1.72541e-14
1.33274e-14
7.13299e-15
9.36105e-15
1.79761e-14
1.84291e-14
2.19783e-14
2.27527e-14
2.31439e-14
2.6004e-14
2.27405e-14
1.35505e-14
1.17918e-14
1.54574e-14
1.33648e-14
2.43308e-13
2.27299e-13
2.21417e-13
2.07666e-13
1.89842e-13
1.84754e-13
1.73787e-13
1.51366e-13
1.31592e-13
1.10397e-13
8.71667e-14
7.15319e-14
5.61226e-14
4.11366e-14
4.04744e-14
4.42706e-14
3.52038e-14
3.3942e-14
3.36731e-14
4.27654e-14
5.14776e-14
5.30885e-14
5.99206e-14
5.01307e-14
4.33445e-14
3.43857e-14
3.74532e-14
5.41028e-14
5.36096e-14
6.01031e-14
7.15073e-14
7.01002e-14
7.94487e-14
8.33309e-14
6.88465e-14
5.70521e-14
4.99951e-14
4.48714e-14
3.7856e-14
3.08237e-14
3.24422e-14
4.23061e-14
5.64415e-14
7.78229e-14
7.95516e-14
1.0699e-13
1.27694e-13
1.33387e-13
1.31738e-13
1.36048e-13
1.3053e-13
1.3772e-13
1.40527e-13
1.24973e-13
1.01046e-13
6.98738e-14
4.69278e-14
3.38111e-14
4.21489e-14
4.45582e-14
5.07254e-14
5.218e-14
5.29165e-14
5.32861e-14
5.1342e-14
5.57672e-14
5.58618e-14
5.00453e-14
4.70299e-14
4.27091e-14
3.98346e-14
3.17534e-14
3.05183e-14
2.6927e-14
3.15853e-14
2.64916e-14
9.56584e-15
3.07369e-15
9.43953e-15
1.57513e-14
1.6494e-14
1.78096e-14
2.50912e-14
3.0443e-14
3.18964e-14
3.24019e-14
2.38778e-14
9.17105e-15
1.07432e-14
1.73308e-14
1.90785e-14
2.33163e-14
2.303e-14
2.33445e-13
2.23304e-13
2.23894e-13
2.11684e-13
1.90714e-13
1.75139e-13
1.65574e-13
1.54906e-13
1.26702e-13
9.60699e-14
7.21983e-14
6.49098e-14
5.98971e-14
5.21293e-14
4.24354e-14
4.69359e-14
4.69453e-14
4.37025e-14
3.77783e-14
3.82148e-14
4.80933e-14
5.33628e-14
5.37367e-14
5.34718e-14
4.32908e-14
4.10827e-14
4.85402e-14
6.08585e-14
6.79065e-14
6.52924e-14
6.79004e-14
7.5923e-14
9.01044e-14
9.15121e-14
7.20639e-14
5.4628e-14
5.57742e-14
4.83698e-14
4.06137e-14
4.0336e-14
4.61056e-14
3.46283e-14
4.97193e-14
6.13994e-14
7.16435e-14
9.7515e-14
1.25725e-13
1.3741e-13
1.37847e-13
1.40044e-13
1.38064e-13
1.40584e-13
1.47261e-13
1.26186e-13
9.08743e-14
6.36752e-14
4.79552e-14
4.19045e-14
4.74757e-14
4.89531e-14
5.17317e-14
5.12558e-14
5.09584e-14
4.93733e-14
4.97115e-14
5.05067e-14
4.93889e-14
3.31144e-14
2.96649e-14
3.1536e-14
2.61662e-14
1.63993e-14
1.13875e-14
1.53671e-14
1.92164e-14
2.41195e-14
1.71839e-14
1.71294e-14
1.65067e-14
1.47238e-14
2.06475e-14
2.81493e-14
4.46415e-14
5.0512e-14
5.15889e-14
4.51555e-14
3.03923e-14
1.24141e-14
5.34684e-15
1.43421e-14
1.98587e-14
2.37833e-14
2.07479e-14
2.32551e-13
2.19382e-13
2.19772e-13
2.07841e-13
1.91384e-13
1.81091e-13
1.63891e-13
1.50339e-13
1.20703e-13
8.98409e-14
7.181e-14
6.65896e-14
5.59768e-14
5.59429e-14
4.91549e-14
5.48232e-14
6.19725e-14
5.04527e-14
3.92399e-14
3.14758e-14
4.10402e-14
4.952e-14
4.81912e-14
4.8929e-14
4.61231e-14
4.29236e-14
5.97628e-14
7.26595e-14
7.57365e-14
7.80231e-14
8.98471e-14
8.64798e-14
9.83873e-14
9.0932e-14
7.18804e-14
6.28937e-14
6.01333e-14
5.84358e-14
5.91384e-14
5.57988e-14
5.43396e-14
4.54857e-14
6.11887e-14
6.39694e-14
7.71834e-14
1.00529e-13
1.2726e-13
1.41055e-13
1.44557e-13
1.40588e-13
1.34377e-13
1.35926e-13
1.38057e-13
1.17024e-13
8.40628e-14
6.09964e-14
6.06676e-14
6.09877e-14
5.64074e-14
6.06686e-14
5.96486e-14
6.05208e-14
6.08357e-14
5.64698e-14
5.51556e-14
5.49375e-14
4.72472e-14
4.01073e-14
3.52518e-14
4.34518e-14
4.06738e-14
4.21881e-14
2.91721e-14
2.8216e-14
2.1788e-14
2.86517e-14
2.70588e-14
3.08739e-14
3.34494e-14
2.87627e-14
3.71302e-14
5.12774e-14
7.63335e-14
7.36046e-14
6.96321e-14
5.57349e-14
4.14549e-14
2.62117e-14
1.6653e-14
2.13055e-14
2.62227e-14
2.50553e-14
2.55235e-14
2.25359e-13
2.33451e-13
2.19187e-13
2.02032e-13
2.03911e-13
1.89958e-13
1.64833e-13
1.43233e-13
1.16766e-13
9.50818e-14
7.57416e-14
5.78484e-14
4.00227e-14
3.85624e-14
4.38255e-14
4.53907e-14
5.07045e-14
5.34863e-14
5.25105e-14
5.04125e-14
5.43757e-14
5.63272e-14
5.4566e-14
5.74078e-14
5.71982e-14
6.42792e-14
7.34742e-14
7.8922e-14
8.23183e-14
9.40708e-14
1.032e-13
1.03435e-13
1.1121e-13
9.56459e-14
8.79505e-14
8.02708e-14
7.55563e-14
7.86277e-14
8.15466e-14
8.31335e-14
8.09858e-14
7.37851e-14
8.42349e-14
7.40258e-14
8.17903e-14
1.06047e-13
1.25865e-13
1.32462e-13
1.32924e-13
1.27181e-13
1.13391e-13
1.06058e-13
1.03842e-13
8.35031e-14
6.75921e-14
6.24617e-14
5.77646e-14
6.10448e-14
5.45352e-14
5.68746e-14
6.30659e-14
5.88745e-14
5.91906e-14
6.49618e-14
7.09188e-14
7.11348e-14
6.06856e-14
4.65872e-14
3.91606e-14
3.92673e-14
4.3477e-14
5.61984e-14
5.93806e-14
5.91055e-14
5.68455e-14
6.31705e-14
5.91056e-14
5.80483e-14
6.34783e-14
5.44852e-14
5.53098e-14
7.44703e-14
8.66048e-14
8.89811e-14
8.24313e-14
6.44301e-14
6.26987e-14
5.03382e-14
4.40703e-14
4.69413e-14
5.77411e-14
5.60884e-14
2.46552e-13
2.42273e-13
2.34906e-13
2.18286e-13
2.0147e-13
1.80859e-13
1.63175e-13
1.4184e-13
1.24821e-13
1.0244e-13
7.06572e-14
6.01002e-14
4.56413e-14
4.33279e-14
5.22338e-14
5.69161e-14
6.68601e-14
6.66458e-14
5.63591e-14
5.80312e-14
6.77534e-14
7.19279e-14
7.74608e-14
7.7209e-14
7.63095e-14
8.17374e-14
9.11796e-14
1.0143e-13
1.05736e-13
1.12673e-13
1.18597e-13
1.2504e-13
1.24918e-13
1.07168e-13
9.86197e-14
9.18747e-14
9.96358e-14
1.05824e-13
1.04258e-13
1.01425e-13
9.5278e-14
9.56471e-14
9.01072e-14
8.05469e-14
9.48849e-14
1.13538e-13
1.1796e-13
1.04601e-13
1.05746e-13
9.33017e-14
8.59138e-14
7.39233e-14
6.92502e-14
6.23755e-14
5.76487e-14
6.32596e-14
6.31708e-14
5.75982e-14
6.46833e-14
6.64636e-14
6.16555e-14
6.1584e-14
6.72472e-14
7.59207e-14
7.76625e-14
7.49918e-14
7.10817e-14
6.23375e-14
6.93013e-14
6.77673e-14
7.19198e-14
7.16827e-14
7.1574e-14
6.89409e-14
7.4199e-14
7.42328e-14
7.69847e-14
7.51752e-14
7.70572e-14
7.71905e-14
7.47434e-14
9.07254e-14
9.86801e-14
1.03363e-13
9.71678e-14
9.25874e-14
8.98664e-14
8.64077e-14
7.86121e-14
7.59254e-14
7.78606e-14
7.65089e-14
2.78939e-13
2.52224e-13
2.29612e-13
2.10112e-13
2.03762e-13
1.84625e-13
1.73136e-13
1.51145e-13
1.28916e-13
1.09593e-13
8.49359e-14
6.69699e-14
5.32299e-14
5.79616e-14
5.51351e-14
5.48589e-14
6.5757e-14
5.68925e-14
5.46072e-14
6.74744e-14
7.63849e-14
8.63423e-14
9.12795e-14
9.23265e-14
9.48825e-14
9.25025e-14
1.07793e-13
1.1465e-13
1.04905e-13
1.11244e-13
1.25534e-13
1.24818e-13
1.15949e-13
1.09428e-13
9.97722e-14
1.01379e-13
1.02754e-13
9.84034e-14
9.61801e-14
9.27985e-14
9.29377e-14
8.99537e-14
7.61573e-14
7.29735e-14
8.08687e-14
8.29308e-14
7.4222e-14
5.70085e-14
6.32087e-14
5.73785e-14
5.52348e-14
4.9557e-14
4.27015e-14
3.95362e-14
3.87555e-14
4.2841e-14
4.72185e-14
4.40043e-14
4.97412e-14
6.03971e-14
5.6076e-14
6.72095e-14
6.72862e-14
7.08804e-14
6.98857e-14
6.82307e-14
7.75093e-14
7.99562e-14
8.68861e-14
8.40535e-14
8.44617e-14
7.87878e-14
6.56699e-14
5.64657e-14
6.37045e-14
6.74704e-14
6.99102e-14
6.85415e-14
6.37373e-14
7.32793e-14
7.78457e-14
8.74743e-14
1.01962e-13
1.06431e-13
1.02366e-13
9.55056e-14
9.59941e-14
1.03794e-13
9.52243e-14
8.99658e-14
8.08918e-14
2.85938e-13
2.48581e-13
2.31431e-13
2.09249e-13
1.96347e-13
1.80727e-13
1.7454e-13
1.53313e-13
1.1793e-13
1.0477e-13
8.95336e-14
8.07318e-14
6.34197e-14
4.74481e-14
4.54825e-14
6.06758e-14
6.20544e-14
4.73961e-14
5.34518e-14
6.0352e-14
7.37287e-14
8.23465e-14
8.71518e-14
8.26751e-14
8.1642e-14
8.13608e-14
1.0083e-13
1.00013e-13
9.07214e-14
1.0748e-13
1.26092e-13
1.12302e-13
1.03674e-13
9.38408e-14
7.78771e-14
7.60473e-14
7.03968e-14
7.34558e-14
7.16866e-14
7.02937e-14
6.86201e-14
5.57001e-14
4.77553e-14
4.46018e-14
4.78478e-14
3.45591e-14
3.00555e-14
2.88414e-14
2.82741e-14
2.57331e-14
3.66745e-14
4.13405e-14
4.14766e-14
3.74281e-14
3.00833e-14
4.71985e-14
5.72386e-14
5.48903e-14
5.04376e-14
4.45512e-14
5.4053e-14
5.57669e-14
4.89651e-14
5.15378e-14
5.79807e-14
5.75916e-14
5.41781e-14
6.84573e-14
8.03549e-14
8.41828e-14
8.01176e-14
8.24296e-14
6.51405e-14
5.24852e-14
4.59013e-14
4.07872e-14
4.14806e-14
3.74689e-14
3.44683e-14
3.98451e-14
6.03638e-14
7.80277e-14
8.93392e-14
8.49445e-14
9.47604e-14
8.40874e-14
9.16806e-14
8.7315e-14
8.65371e-14
8.48878e-14
7.91519e-14
2.63781e-13
2.33252e-13
2.15093e-13
2.11041e-13
2.06479e-13
1.84147e-13
1.73259e-13
1.54732e-13
1.27246e-13
1.09914e-13
8.92659e-14
7.21226e-14
6.34113e-14
5.10957e-14
4.96027e-14
5.98118e-14
6.3675e-14
5.14593e-14
4.53422e-14
5.63482e-14
6.04687e-14
7.15422e-14
8.38554e-14
7.48485e-14
7.56809e-14
7.9031e-14
8.30665e-14
8.56059e-14
7.92734e-14
9.74319e-14
1.066e-13
9.20156e-14
7.75847e-14
6.49486e-14
6.10091e-14
5.91786e-14
5.34861e-14
4.40328e-14
3.98723e-14
3.81033e-14
2.9422e-14
2.34517e-14
2.37266e-14
2.27479e-14
2.35464e-14
2.2892e-14
2.45016e-14
3.39283e-14
2.69279e-14
2.65043e-14
2.92218e-14
3.83266e-14
3.92436e-14
3.85511e-14
4.14871e-14
4.31181e-14
4.60111e-14
4.9989e-14
5.5451e-14
4.6529e-14
4.18843e-14
4.14589e-14
4.25074e-14
3.93418e-14
4.31006e-14
3.98896e-14
4.31398e-14
6.0652e-14
7.36627e-14
7.05228e-14
6.60366e-14
6.68279e-14
6.88344e-14
6.08423e-14
3.95108e-14
3.02683e-14
1.97415e-14
2.24383e-14
1.90727e-14
2.17058e-14
3.47644e-14
4.91838e-14
5.89889e-14
6.39301e-14
6.86946e-14
6.39574e-14
6.30831e-14
5.5464e-14
5.2006e-14
5.69889e-14
5.61461e-14
2.35958e-13
2.03653e-13
1.96954e-13
2.09054e-13
2.10495e-13
1.83043e-13
1.61056e-13
1.60186e-13
1.3251e-13
1.06245e-13
8.11159e-14
6.03571e-14
6.55177e-14
6.88459e-14
4.98447e-14
4.88636e-14
6.78109e-14
7.7221e-14
6.90103e-14
6.8323e-14
6.4446e-14
6.87908e-14
7.48284e-14
8.04717e-14
9.72863e-14
7.57959e-14
6.41544e-14
8.37677e-14
1.04541e-13
1.06668e-13
1.01363e-13
9.82502e-14
7.6254e-14
5.43274e-14
4.76204e-14
5.005e-14
3.80035e-14
2.77371e-14
2.97749e-14
3.11664e-14
3.82867e-14
3.03174e-14
1.20986e-14
1.59305e-14
1.26708e-14
2.06182e-14
2.18588e-14
2.35765e-14
1.79839e-14
2.24169e-14
2.58952e-14
3.14857e-14
4.09347e-14
4.07777e-14
4.38883e-14
4.19908e-14
4.09929e-14
4.66127e-14
5.04487e-14
3.29917e-14
2.49103e-14
2.26001e-14
3.01253e-14
2.9672e-14
3.86117e-14
3.68855e-14
4.33475e-14
5.84253e-14
6.78199e-14
6.03074e-14
6.23885e-14
6.16227e-14
6.43866e-14
6.33214e-14
5.32392e-14
3.42064e-14
1.89491e-14
1.4697e-14
1.8112e-14
1.68095e-14
1.53376e-14
3.05246e-14
4.18413e-14
5.12863e-14
6.45747e-14
5.19074e-14
4.25554e-14
3.7695e-14
2.72699e-14
2.83357e-14
3.15415e-14
2.2238e-13
2.0014e-13
2.07472e-13
2.12158e-13
2.08802e-13
1.99365e-13
1.82478e-13
1.59636e-13
1.32388e-13
1.02705e-13
7.8337e-14
7.71312e-14
6.4403e-14
4.72842e-14
5.73009e-14
6.03779e-14
5.46943e-14
6.0908e-14
7.12966e-14
7.59933e-14
8.30529e-14
8.55585e-14
8.4412e-14
9.58442e-14
1.0701e-13
8.67071e-14
7.6369e-14
9.7782e-14
9.85432e-14
9.37696e-14
1.00945e-13
9.70024e-14
8.66419e-14
7.03828e-14
5.78904e-14
5.49925e-14
4.97048e-14
5.14233e-14
4.86463e-14
4.19393e-14
4.40147e-14
4.01786e-14
3.21173e-14
3.93075e-14
3.67322e-14
4.21403e-14
4.35268e-14
3.87761e-14
3.73214e-14
3.77062e-14
3.89492e-14
4.05662e-14
4.36912e-14
5.08169e-14
5.12614e-14
4.85816e-14
4.94484e-14
5.12118e-14
5.00231e-14
4.6096e-14
4.54894e-14
4.03618e-14
4.63058e-14
5.30434e-14
5.71333e-14
5.77219e-14
6.19059e-14
6.77253e-14
6.68618e-14
6.01014e-14
5.68683e-14
5.78838e-14
5.7694e-14
6.09396e-14
6.21602e-14
6.15499e-14
5.48917e-14
4.77141e-14
4.81472e-14
4.17085e-14
4.1377e-14
4.82351e-14
5.09649e-14
5.35878e-14
5.17251e-14
4.3528e-14
2.95418e-14
1.96768e-14
1.73068e-14
1.72387e-14
1.8471e-14
2.12127e-13
2.16889e-13
2.16584e-13
2.2269e-13
2.28165e-13
2.10537e-13
1.85996e-13
1.62539e-13
1.37269e-13
1.11172e-13
8.70159e-14
7.42804e-14
7.04441e-14
7.06205e-14
7.43612e-14
7.35214e-14
7.28341e-14
8.19656e-14
8.95688e-14
9.86933e-14
1.0866e-13
1.11799e-13
1.06253e-13
1.0281e-13
1.06938e-13
9.8426e-14
1.00723e-13
1.20018e-13
1.19665e-13
1.15089e-13
1.19992e-13
1.19518e-13
1.04019e-13
8.44293e-14
8.31788e-14
8.43705e-14
7.72457e-14
7.9027e-14
7.39727e-14
7.16049e-14
7.40995e-14
6.58042e-14
6.50639e-14
7.04007e-14
6.78455e-14
7.57478e-14
7.68195e-14
7.30497e-14
7.43408e-14
7.56554e-14
7.64234e-14
7.60772e-14
7.80145e-14
7.59053e-14
7.19812e-14
7.84036e-14
8.24322e-14
8.20952e-14
8.24439e-14
7.94563e-14
7.93249e-14
7.87081e-14
8.05257e-14
8.19653e-14
8.70748e-14
9.06934e-14
9.42855e-14
9.4551e-14
9.5955e-14
9.39823e-14
9.06186e-14
9.21347e-14
9.17551e-14
9.48915e-14
9.58462e-14
9.57068e-14
9.3205e-14
8.84164e-14
8.85774e-14
8.75616e-14
8.633e-14
8.85036e-14
8.5927e-14
8.79138e-14
7.91931e-14
6.52806e-14
6.25771e-14
5.50706e-14
6.16095e-14
6.75902e-14
6.8184e-14
2.44831e-13
2.32275e-13
2.17627e-13
2.22164e-13
2.28138e-13
2.08242e-13
1.85888e-13
1.65569e-13
1.41693e-13
1.16156e-13
9.80739e-14
9.37485e-14
9.32591e-14
8.71233e-14
8.03752e-14
8.26657e-14
8.84421e-14
9.64572e-14
1.07276e-13
1.24641e-13
1.28956e-13
1.28589e-13
1.22758e-13
1.19288e-13
1.21282e-13
1.06815e-13
1.1391e-13
1.24649e-13
1.28443e-13
1.26814e-13
1.23313e-13
1.14823e-13
9.61402e-14
8.41457e-14
7.97538e-14
7.3838e-14
7.01641e-14
7.05935e-14
6.71228e-14
6.40244e-14
6.26632e-14
5.67781e-14
5.61724e-14
5.03367e-14
4.47507e-14
5.09104e-14
6.02733e-14
7.00799e-14
6.81913e-14
6.83295e-14
7.14834e-14
6.99039e-14
7.13819e-14
7.58075e-14
7.69834e-14
8.04401e-14
8.0556e-14
7.98676e-14
7.77434e-14
7.51517e-14
6.95672e-14
7.5517e-14
8.39783e-14
8.75209e-14
8.92256e-14
8.93671e-14
9.31182e-14
8.76035e-14
9.09059e-14
9.30247e-14
8.6305e-14
8.66335e-14
8.55547e-14
8.04265e-14
8.53945e-14
8.27708e-14
7.83422e-14
7.6091e-14
7.80321e-14
8.25278e-14
9.62397e-14
1.043e-13
1.02137e-13
9.42717e-14
8.79807e-14
6.942e-14
5.87981e-14
6.27286e-14
6.90235e-14