/*--------------------------------*- C++ -*----------------------------------*\
| =========                 |                                                 |
| \\      /  F ield         | OpenFOAM: The Open Source CFD Toolbox           |
|  \\    /   O peration     | Version:  2406                                  |
|   \\  /    A nd           | Website:  www.openfoam.com                      |
|    \\/     M anipulation  |                                                 |
\*---------------------------------------------------------------------------*/
FoamFile
{
    version     2.0;
    format      ascii;
    arch        "LSB;label=32;scalar=64";
    class       volVectorField;
    location    "0.1";
    object      U;
}
// * * * * * * * * * * * * * * * * * * * * * * * * * * * * * * * * * * * * * //

dimensions      [0 1 -1 0 0 0 0];

internalField   nonuniform List<vector> 
13818
(
(-7.81267e-11 -9.03048e-13 -1.23202e-11)
(-7.53773e-11 -1.30891e-12 -6.21408e-12)
(-7.7946e-11 2.77928e-13 3.94668e-12)
(-7.53995e-11 -1.70312e-12 7.84039e-12)
(-7.49005e-11 -5.37929e-12 6.30737e-12)
(-7.17829e-11 -4.805e-12 4.62056e-12)
(-6.69144e-11 -5.09512e-12 1.81136e-12)
(-6.17564e-11 -5.30664e-12 1.22183e-12)
(-5.77813e-11 -5.5961e-12 2.63934e-12)
(-5.36505e-11 -6.33887e-12 3.32383e-13)
(-4.50703e-11 -6.41322e-12 -1.3629e-12)
(-4.00513e-11 -1.00108e-11 2.68878e-12)
(-3.75962e-11 -1.06822e-11 1.07029e-11)
(-2.82692e-11 -1.12281e-11 1.31027e-11)
(-2.69246e-11 -1.40133e-11 1.34985e-11)
(-2.51428e-11 -1.55086e-11 1.35467e-11)
(-1.88651e-11 -1.62077e-11 1.30992e-11)
(-1.51715e-11 -1.55725e-11 1.48242e-11)
(-1.43365e-11 -1.71528e-11 1.83336e-11)
(-1.34906e-11 -1.56218e-11 1.4783e-11)
(-1.24333e-11 -1.29736e-11 1.07979e-11)
(-1.27316e-11 -1.50556e-11 7.76472e-12)
(-1.26637e-11 -1.97371e-11 4.95561e-12)
(-1.24631e-11 -2.22717e-11 3.17545e-13)
(-1.10938e-11 -2.29268e-11 -3.29146e-12)
(-9.43922e-12 -2.28424e-11 -4.71214e-12)
(-1.14922e-11 -2.30863e-11 -8.2516e-12)
(-1.42736e-11 -2.39532e-11 -1.01677e-11)
(-1.29643e-11 -2.49881e-11 -1.12683e-11)
(-1.24898e-11 -2.56626e-11 -1.17296e-11)
(-1.44055e-11 -2.488e-11 -1.15774e-11)
(-1.63062e-11 -2.51697e-11 -1.48545e-11)
(-1.51174e-11 -2.59639e-11 -1.35651e-11)
(-1.666e-11 -2.59177e-11 -1.22865e-11)
(-1.73607e-11 -2.71335e-11 -6.84781e-12)
(-1.50045e-11 -2.65407e-11 -2.70507e-12)
(-1.48552e-11 -2.62846e-11 -1.64369e-12)
(-1.29157e-11 -2.64109e-11 -1.17276e-12)
(-1.1308e-11 -2.68909e-11 -2.33398e-12)
(-1.02428e-11 -2.74355e-11 -3.10923e-12)
(-9.66949e-12 -2.72241e-11 -4.24703e-12)
(-1.05452e-11 -2.51432e-11 -6.39635e-12)
(-9.20852e-12 -2.69449e-11 -5.99541e-12)
(-6.87256e-12 -2.60004e-11 3.08981e-13)
(-6.88271e-12 -2.67615e-11 8.09756e-12)
(-6.54787e-12 -2.64854e-11 1.29649e-11)
(-3.84262e-12 -2.57102e-11 1.35272e-11)
(-2.38741e-12 -2.509e-11 8.63361e-12)
(4.64236e-13 -2.61883e-11 1.36478e-12)
(1.22016e-12 -2.26875e-11 -5.00171e-12)
(-3.168e-13 -2.05346e-11 -1.00217e-11)
(-2.33397e-12 -2.40491e-11 -1.29994e-11)
(-1.48702e-12 -2.30628e-11 -1.67018e-11)
(1.76987e-12 -2.34869e-11 -1.38308e-11)
(2.50059e-12 -2.4136e-11 -1.55612e-11)
(4.42004e-13 -2.47781e-11 -1.64535e-11)
(6.69264e-13 -2.5892e-11 -1.70701e-11)
(4.32834e-12 -2.56723e-11 -1.61798e-11)
(5.37423e-12 -2.60748e-11 -1.44003e-11)
(6.1655e-12 -2.56132e-11 -1.46014e-11)
(3.86883e-12 -2.61542e-11 -1.46287e-11)
(3.46361e-13 -2.42427e-11 -1.51934e-11)
(7.83444e-13 -2.36979e-11 -1.62209e-11)
(-1.78051e-13 -2.56474e-11 -1.72893e-11)
(-1.09903e-13 -2.70987e-11 -1.74184e-11)
(-7.26856e-13 -2.61332e-11 -1.72188e-11)
(-1.91509e-12 -2.66557e-11 -1.68704e-11)
(-1.59881e-12 -2.67326e-11 -1.53531e-11)
(-1.39577e-13 -2.55599e-11 -1.41473e-11)
(-2.36271e-13 -2.35788e-11 -1.33663e-11)
(-4.66644e-12 -2.51772e-11 -8.93397e-12)
(-5.34967e-12 -2.21076e-11 -2.57727e-12)
(-5.14546e-12 -2.22925e-11 5.2805e-12)
(-4.41234e-12 -2.30852e-11 1.24952e-11)
(-3.11769e-12 -2.50529e-11 1.46951e-11)
(-2.90103e-12 -2.41874e-11 1.62794e-11)
(-4.46072e-12 -2.24798e-11 1.4562e-11)
(-5.95608e-12 -2.11937e-11 1.51946e-11)
(-2.99098e-12 -2.07214e-11 1.35452e-11)
(-1.20768e-12 -2.02556e-11 1.33636e-11)
(-3.10668e-12 -1.99255e-11 1.3268e-11)
(-1.59055e-12 -2.15308e-11 9.86511e-12)
(1.00839e-13 -2.39596e-11 4.90733e-12)
(-2.25955e-12 -2.5839e-11 -7.29838e-13)
(-9.77995e-13 -2.53356e-11 -7.6867e-12)
(-1.09351e-12 -2.15361e-11 -8.57496e-12)
(2.07713e-13 -2.18187e-11 -1.04652e-11)
(1.2416e-12 -2.00229e-11 -1.06432e-11)
(1.52314e-12 -2.07472e-11 -1.0633e-11)
(2.11912e-12 -2.0698e-11 -1.15458e-11)
(4.21621e-12 -2.03706e-11 -1.1413e-11)
(4.96895e-12 -1.91314e-11 -1.036e-11)
(5.13901e-12 -1.97969e-11 -9.75284e-12)
(5.884e-12 -1.72377e-11 -9.77596e-12)
(4.0131e-12 -1.82162e-11 -1.01386e-11)
(3.87454e-12 -1.76273e-11 -1.16079e-11)
(4.19115e-12 -1.92067e-11 -1.44396e-11)
(3.8427e-12 -1.90726e-11 -1.11604e-11)
(6.36831e-12 -1.68022e-11 -8.2412e-12)
(6.01524e-12 -1.49513e-11 -6.64073e-12)
(3.23851e-12 -1.61744e-11 -7.43755e-12)
(1.61948e-12 -1.80101e-11 -6.93227e-12)
(3.28333e-12 -1.91325e-11 -4.28009e-12)
(2.9683e-12 -1.62244e-11 2.92231e-12)
(-2.10456e-13 -1.78619e-11 1.08146e-11)
(1.89639e-12 -1.80967e-11 1.64269e-11)
(-7.8825e-11 -2.89304e-12 -1.27057e-11)
(-7.57067e-11 -3.33135e-13 -8.40879e-12)
(-7.80189e-11 -1.43575e-12 -1.60113e-13)
(-7.34316e-11 -1.60528e-12 3.74735e-12)
(-7.25896e-11 -4.5298e-12 5.61304e-12)
(-7.11802e-11 -6.4008e-12 3.12656e-12)
(-6.67559e-11 -8.3902e-12 1.99313e-12)
(-6.23078e-11 -7.47651e-12 2.2606e-12)
(-5.69252e-11 -8.50006e-12 4.56418e-13)
(-5.1133e-11 -8.59166e-12 1.11104e-14)
(-4.60739e-11 -1.07962e-11 -3.43149e-12)
(-4.05992e-11 -1.01227e-11 8.89576e-13)
(-3.6028e-11 -1.42808e-11 8.53956e-12)
(-2.83786e-11 -1.57858e-11 1.25083e-11)
(-2.5981e-11 -1.83785e-11 1.27278e-11)
(-2.30282e-11 -2.01851e-11 1.15311e-11)
(-1.88503e-11 -2.01981e-11 1.37331e-11)
(-1.54834e-11 -1.8928e-11 1.57559e-11)
(-1.53664e-11 -1.94989e-11 1.80648e-11)
(-1.5106e-11 -1.66367e-11 1.63658e-11)
(-1.16358e-11 -1.71121e-11 1.26766e-11)
(-9.96176e-12 -1.97771e-11 7.27867e-12)
(-1.02742e-11 -2.63796e-11 3.92992e-12)
(-1.05753e-11 -2.8746e-11 -4.08995e-13)
(-1.16998e-11 -2.8343e-11 -3.33843e-12)
(-1.04927e-11 -2.78273e-11 -7.85992e-12)
(-1.14505e-11 -2.92084e-11 -1.17323e-11)
(-1.35822e-11 -2.95484e-11 -1.42889e-11)
(-1.38761e-11 -2.91306e-11 -1.63164e-11)
(-1.45894e-11 -2.76328e-11 -1.7775e-11)
(-1.48649e-11 -2.6371e-11 -1.78482e-11)
(-1.45192e-11 -2.68791e-11 -1.84612e-11)
(-1.43818e-11 -2.91863e-11 -1.63734e-11)
(-1.458e-11 -2.84788e-11 -1.33982e-11)
(-1.45262e-11 -3.19151e-11 -8.68258e-12)
(-1.51111e-11 -3.3292e-11 -3.82983e-12)
(-1.43278e-11 -3.17569e-11 -2.61117e-12)
(-1.16068e-11 -3.15334e-11 -1.85123e-12)
(-9.78901e-12 -3.14716e-11 -3.23519e-12)
(-9.9219e-12 -3.16824e-11 -2.197e-12)
(-1.16838e-11 -3.00868e-11 -2.96698e-12)
(-1.08166e-11 -3.01409e-11 -5.20298e-12)
(-9.6485e-12 -3.20394e-11 -3.21416e-12)
(-7.52927e-12 -3.05537e-11 2.17623e-12)
(-6.43943e-12 -3.45321e-11 9.20509e-12)
(-6.29562e-12 -3.28264e-11 1.58559e-11)
(-4.32901e-12 -3.25514e-11 1.70828e-11)
(-2.82164e-12 -3.10875e-11 1.27819e-11)
(-2.84948e-12 -3.14106e-11 3.73217e-12)
(-2.14179e-12 -2.4285e-11 -3.93232e-12)
(3.21305e-13 -2.34436e-11 -9.78374e-12)
(-2.21076e-12 -2.50833e-11 -1.40507e-11)
(-1.29132e-12 -2.54953e-11 -1.85297e-11)
(1.48484e-12 -2.46547e-11 -1.86279e-11)
(1.97942e-12 -2.27874e-11 -1.98948e-11)
(2.73206e-12 -2.38416e-11 -2.24543e-11)
(4.26259e-12 -2.87609e-11 -2.35004e-11)
(5.40416e-12 -3.15396e-11 -2.45695e-11)
(6.02901e-12 -3.20716e-11 -2.08764e-11)
(6.39022e-12 -3.24772e-11 -1.71986e-11)
(4.01504e-12 -3.13295e-11 -1.81784e-11)
(9.24242e-13 -2.89608e-11 -2.10964e-11)
(6.64372e-13 -2.97597e-11 -2.46805e-11)
(-4.62623e-13 -2.91547e-11 -2.68048e-11)
(-6.21323e-13 -3.16678e-11 -2.63201e-11)
(-1.46039e-12 -3.07145e-11 -2.53294e-11)
(-2.07839e-12 -3.26922e-11 -2.28549e-11)
(-2.50873e-12 -3.16516e-11 -2.19238e-11)
(-1.52612e-12 -2.96928e-11 -2.02724e-11)
(-2.03974e-12 -2.71569e-11 -1.73474e-11)
(-5.76514e-12 -2.66561e-11 -1.38527e-11)
(-5.51716e-12 -2.67947e-11 -4.72908e-12)
(-5.2782e-12 -2.41236e-11 5.49463e-12)
(-2.79609e-12 -2.5554e-11 1.27799e-11)
(-2.53135e-12 -2.73647e-11 1.60622e-11)
(-4.67973e-12 -2.72078e-11 1.72852e-11)
(-5.64433e-12 -2.32948e-11 1.68236e-11)
(-4.74199e-12 -2.43738e-11 1.67608e-11)
(-3.32244e-12 -2.34523e-11 1.472e-11)
(-2.95998e-12 -2.18296e-11 1.46296e-11)
(-1.67361e-12 -2.08433e-11 1.27921e-11)
(1.19055e-12 -2.54513e-11 9.65714e-12)
(7.3733e-13 -2.61934e-11 3.7439e-12)
(-8.69286e-13 -2.90123e-11 1.15956e-12)
(-1.92954e-12 -2.89629e-11 -3.95293e-12)
(-2.68254e-12 -2.51606e-11 -6.26513e-12)
(-2.23457e-13 -2.42605e-11 -9.12496e-12)
(1.02413e-12 -2.38665e-11 -1.07587e-11)
(1.01162e-12 -2.37561e-11 -1.17645e-11)
(1.64214e-12 -2.29206e-11 -1.24917e-11)
(3.73593e-12 -2.20505e-11 -1.24294e-11)
(5.83119e-12 -2.12621e-11 -1.22318e-11)
(4.85765e-12 -2.29762e-11 -1.11677e-11)
(4.28204e-12 -2.03112e-11 -1.04872e-11)
(4.59228e-12 -2.0698e-11 -9.50842e-12)
(4.08201e-12 -2.23609e-11 -8.8315e-12)
(4.20758e-12 -2.05908e-11 -9.62812e-12)
(3.71062e-12 -2.23471e-11 -7.28263e-12)
(3.85695e-12 -1.95435e-11 -6.89242e-12)
(4.75517e-12 -1.65279e-11 -6.39938e-12)
(5.46151e-12 -1.85655e-11 -7.25613e-12)
(3.74725e-12 -2.26702e-11 -8.9043e-12)
(2.0424e-12 -2.1795e-11 -1.10867e-11)
(2.57931e-12 -1.87738e-11 -2.45273e-12)
(2.01889e-12 -2.21798e-11 9.49916e-12)
(1.38503e-12 -2.31543e-11 1.55254e-11)
(-7.71512e-11 -3.38984e-12 -1.45337e-11)
(-7.52145e-11 -3.18902e-12 -9.86952e-12)
(-7.76729e-11 -6.17617e-12 -2.17626e-12)
(-7.40883e-11 -6.26665e-12 1.98935e-12)
(-7.16047e-11 -6.2064e-12 4.23507e-12)
(-6.86634e-11 -7.367e-12 3.08964e-12)
(-6.55832e-11 -7.30233e-12 5.15068e-12)
(-6.36493e-11 -1.1222e-11 3.55064e-12)
(-5.73275e-11 -1.20459e-11 8.77377e-13)
(-5.02407e-11 -1.20534e-11 1.10028e-12)
(-4.52506e-11 -1.27997e-11 -4.18226e-12)
(-4.03528e-11 -1.23192e-11 -1.73374e-13)
(-3.28596e-11 -1.57161e-11 6.28981e-12)
(-2.57761e-11 -1.69466e-11 1.22094e-11)
(-2.40076e-11 -1.90131e-11 1.08185e-11)
(-2.44986e-11 -2.26651e-11 8.76415e-12)
(-1.93249e-11 -2.26727e-11 1.21658e-11)
(-1.51065e-11 -2.42029e-11 1.67833e-11)
(-1.58939e-11 -2.3117e-11 1.82654e-11)
(-1.51745e-11 -2.21805e-11 1.6725e-11)
(-1.03933e-11 -2.30568e-11 1.31269e-11)
(-7.24134e-12 -2.69838e-11 7.25671e-12)
(-8.50768e-12 -2.87688e-11 1.91227e-12)
(-1.24113e-11 -3.14302e-11 -1.63791e-12)
(-1.20266e-11 -3.14014e-11 -5.7918e-12)
(-9.52965e-12 -3.35118e-11 -8.72254e-12)
(-1.09793e-11 -3.32959e-11 -1.30819e-11)
(-1.43818e-11 -3.54485e-11 -1.44568e-11)
(-1.43205e-11 -3.47624e-11 -1.72481e-11)
(-1.47133e-11 -3.37388e-11 -1.95874e-11)
(-1.49836e-11 -3.28346e-11 -1.86729e-11)
(-1.43141e-11 -3.24159e-11 -1.87222e-11)
(-1.41449e-11 -3.3633e-11 -1.65368e-11)
(-1.41416e-11 -3.50765e-11 -1.35506e-11)
(-1.31359e-11 -3.64714e-11 -1.01155e-11)
(-1.45872e-11 -3.62833e-11 -6.5001e-12)
(-1.56971e-11 -3.52257e-11 -5.58584e-12)
(-1.32661e-11 -3.36529e-11 -3.82235e-12)
(-9.65415e-12 -3.32028e-11 -9.78654e-13)
(-8.84724e-12 -3.35889e-11 1.58017e-12)
(-1.02522e-11 -3.45641e-11 -2.15507e-13)
(-9.05115e-12 -3.47787e-11 -3.74712e-12)
(-8.7767e-12 -3.48623e-11 -2.80384e-12)
(-5.66446e-12 -3.30693e-11 2.41374e-12)
(-5.67069e-12 -3.53925e-11 1.11631e-11)
(-7.00223e-12 -3.44784e-11 1.8645e-11)
(-5.06016e-12 -3.26651e-11 2.09024e-11)
(-3.3287e-12 -3.12532e-11 1.58993e-11)
(-5.50573e-12 -3.02505e-11 6.53632e-12)
(-4.45272e-12 -2.73926e-11 -3.46213e-12)
(5.70269e-13 -2.54794e-11 -7.59863e-12)
(-1.88914e-12 -2.6397e-11 -1.38955e-11)
(-2.98664e-12 -2.95606e-11 -1.85917e-11)
(1.02321e-12 -2.83908e-11 -2.00956e-11)
(2.7564e-12 -2.80704e-11 -2.21029e-11)
(2.91924e-12 -3.01249e-11 -2.52292e-11)
(5.502e-12 -3.37509e-11 -2.76264e-11)
(6.51866e-12 -3.5052e-11 -3.07869e-11)
(6.71461e-12 -3.59687e-11 -2.59705e-11)
(4.48286e-12 -3.48185e-11 -2.22619e-11)
(7.14331e-14 -3.49956e-11 -2.47771e-11)
(-1.20738e-12 -3.4999e-11 -3.09259e-11)
(6.86114e-13 -3.72218e-11 -3.40396e-11)
(1.58766e-12 -3.61084e-11 -3.48686e-11)
(1.40774e-12 -3.68884e-11 -3.42478e-11)
(7.05806e-13 -3.4781e-11 -3.21033e-11)
(-1.1656e-13 -3.46817e-11 -2.78525e-11)
(-2.75673e-12 -3.41313e-11 -2.9014e-11)
(-7.83615e-13 -3.26246e-11 -2.63328e-11)
(-1.29458e-12 -3.18856e-11 -2.09289e-11)
(-6.3939e-12 -3.01639e-11 -1.7293e-11)
(-7.72924e-12 -2.95444e-11 -6.56262e-12)
(-6.08328e-12 -2.87528e-11 7.14283e-12)
(-1.70398e-12 -2.80948e-11 1.42481e-11)
(-1.63321e-12 -2.89762e-11 1.74908e-11)
(-5.16636e-12 -2.7687e-11 1.85298e-11)
(-6.63051e-12 -2.88146e-11 1.89523e-11)
(-4.76882e-12 -2.88198e-11 1.98498e-11)
(-3.52717e-12 -2.71919e-11 1.80023e-11)
(-2.91921e-12 -2.54943e-11 1.70441e-11)
(-1.36828e-12 -2.77994e-11 1.55248e-11)
(2.6194e-12 -2.95134e-11 1.05305e-11)
(2.0276e-12 -2.97653e-11 3.64242e-12)
(-2.3971e-13 -2.9985e-11 3.20437e-12)
(-3.33918e-12 -2.91389e-11 -1.16267e-12)
(-4.62399e-12 -2.82406e-11 -5.06387e-12)
(-9.20054e-13 -2.73854e-11 -8.3092e-12)
(1.3239e-12 -2.73221e-11 -1.08339e-11)
(1.0522e-12 -2.85311e-11 -1.17692e-11)
(1.02599e-12 -2.67592e-11 -1.28489e-11)
(3.30689e-12 -2.5891e-11 -1.30902e-11)
(5.68592e-12 -2.50521e-11 -1.31314e-11)
(4.25071e-12 -2.45791e-11 -1.28468e-11)
(4.01718e-12 -2.4401e-11 -1.1339e-11)
(6.02371e-12 -2.50725e-11 -8.33032e-12)
(3.30612e-12 -2.49224e-11 -5.01596e-12)
(3.84691e-12 -2.51459e-11 -6.23638e-12)
(3.54409e-12 -2.52286e-11 -4.06678e-12)
(2.05958e-12 -2.41621e-11 -6.56239e-12)
(4.63953e-12 -2.35711e-11 -6.93153e-12)
(7.27113e-12 -2.62035e-11 -7.81238e-12)
(4.07015e-12 -2.55411e-11 -9.22765e-12)
(7.14978e-13 -2.55868e-11 -1.01483e-11)
(3.14066e-12 -2.53262e-11 -3.89078e-12)
(3.86994e-12 -2.63155e-11 6.69218e-12)
(1.5792e-12 -2.57803e-11 1.51529e-11)
(-7.53586e-11 2.26545e-12 -1.83553e-11)
(-7.31481e-11 -3.60513e-14 -1.25922e-11)
(-7.64935e-11 -2.69018e-12 -4.3521e-12)
(-7.28499e-11 -6.60195e-12 1.94093e-12)
(-7.2023e-11 -7.70422e-12 4.74069e-12)
(-7.02327e-11 -7.72464e-12 2.3291e-12)
(-6.44519e-11 -6.86312e-12 3.45112e-12)
(-6.01898e-11 -9.67228e-12 3.37725e-12)
(-5.66644e-11 -1.20069e-11 1.31832e-12)
(-5.17341e-11 -1.21356e-11 4.24611e-12)
(-4.67919e-11 -1.44899e-11 -1.12447e-12)
(-3.9628e-11 -1.27169e-11 5.93953e-13)
(-3.16393e-11 -1.62735e-11 4.17362e-12)
(-2.61003e-11 -1.45378e-11 1.06459e-11)
(-2.2068e-11 -1.31595e-11 1.03847e-11)
(-2.21003e-11 -1.71417e-11 1.16803e-11)
(-1.84215e-11 -1.93186e-11 1.48504e-11)
(-1.50807e-11 -1.94588e-11 1.80233e-11)
(-1.63108e-11 -2.16206e-11 1.93588e-11)
(-1.42244e-11 -2.44502e-11 1.6903e-11)
(-7.09749e-12 -2.66329e-11 1.3788e-11)
(-5.63408e-12 -2.79104e-11 7.56865e-12)
(-8.25719e-12 -2.82671e-11 1.71763e-12)
(-1.17686e-11 -3.15271e-11 -3.09327e-12)
(-1.07825e-11 -3.32618e-11 -6.74721e-12)
(-8.94272e-12 -3.37455e-11 -9.47427e-12)
(-1.0139e-11 -3.29986e-11 -1.30544e-11)
(-1.28497e-11 -3.44899e-11 -1.51517e-11)
(-1.59087e-11 -3.2988e-11 -1.84235e-11)
(-1.6416e-11 -3.43485e-11 -2.15991e-11)
(-1.55205e-11 -3.46473e-11 -1.9585e-11)
(-1.38246e-11 -3.5125e-11 -1.97926e-11)
(-1.30289e-11 -3.34508e-11 -1.69294e-11)
(-1.3432e-11 -3.53185e-11 -1.50116e-11)
(-1.458e-11 -3.69874e-11 -1.30257e-11)
(-1.56396e-11 -3.51199e-11 -1.00692e-11)
(-1.67045e-11 -3.59018e-11 -9.02624e-12)
(-1.40037e-11 -3.51748e-11 -5.42346e-12)
(-8.92097e-12 -3.57044e-11 2.43484e-13)
(-7.71917e-12 -3.75701e-11 5.10775e-12)
(-8.99771e-12 -3.71775e-11 5.54203e-12)
(-9.32291e-12 -3.51737e-11 5.65478e-12)
(-9.94725e-12 -3.22651e-11 7.31827e-12)
(-7.03925e-12 -3.19586e-11 8.64943e-12)
(-5.21934e-12 -2.96385e-11 1.30906e-11)
(-7.26489e-12 -3.16029e-11 1.66637e-11)
(-6.03314e-12 -2.85065e-11 1.69298e-11)
(-4.04825e-12 -2.72153e-11 1.32983e-11)
(-6.37287e-12 -2.38939e-11 6.73033e-12)
(-5.7566e-12 -2.44814e-11 -2.78875e-12)
(-3.56458e-13 -2.18943e-11 -7.73602e-12)
(2.68889e-13 -2.20498e-11 -1.40143e-11)
(-1.4522e-12 -2.71424e-11 -1.82655e-11)
(4.41877e-13 -2.6689e-11 -2.28242e-11)
(4.09441e-12 -2.87469e-11 -2.55721e-11)
(5.6263e-12 -2.96151e-11 -2.88517e-11)
(5.40837e-12 -3.03419e-11 -3.1445e-11)
(5.17772e-12 -2.97521e-11 -3.38186e-11)
(5.20134e-12 -2.99735e-11 -3.37131e-11)
(4.65739e-12 -3.17638e-11 -3.65232e-11)
(2.7598e-12 -3.41618e-11 -4.05847e-11)
(1.4352e-12 -3.52674e-11 -4.51475e-11)
(2.89738e-13 -3.5302e-11 -4.76923e-11)
(-2.95534e-14 -3.4565e-11 -4.77301e-11)
(-1.86412e-13 -3.16344e-11 -4.51006e-11)
(-1.05403e-12 -2.81972e-11 -4.14493e-11)
(8.64931e-13 -2.68432e-11 -3.83984e-11)
(-1.60146e-12 -2.91695e-11 -3.63953e-11)
(3.38984e-13 -3.17949e-11 -3.14002e-11)
(-2.21973e-12 -3.14502e-11 -2.23149e-11)
(-7.71442e-12 -2.54894e-11 -1.40807e-11)
(-6.18114e-12 -2.48577e-11 -2.04568e-13)
(-5.96415e-12 -2.69977e-11 1.28814e-11)
(-2.50961e-12 -2.6902e-11 1.72669e-11)
(-4.05745e-12 -2.63143e-11 1.90528e-11)
(-4.98548e-12 -2.24223e-11 1.76754e-11)
(-4.69559e-12 -2.45917e-11 1.93924e-11)
(-4.2015e-12 -2.55915e-11 1.98652e-11)
(-3.71937e-12 -2.55926e-11 2.15755e-11)
(-1.80353e-12 -2.53044e-11 1.92405e-11)
(2.28718e-13 -2.73209e-11 2.02791e-11)
(2.23229e-12 -2.86576e-11 1.53761e-11)
(2.90234e-13 -2.78683e-11 8.39743e-12)
(-2.06495e-12 -2.60086e-11 2.17347e-12)
(-3.40077e-12 -2.33603e-11 -2.20625e-12)
(-3.5579e-12 -2.65335e-11 -4.13418e-12)
(-9.45406e-13 -2.59291e-11 -7.75753e-12)
(2.50877e-12 -2.51622e-11 -1.05783e-11)
(1.08178e-12 -2.55801e-11 -1.24199e-11)
(2.8153e-13 -2.56157e-11 -1.47808e-11)
(2.47196e-12 -2.75787e-11 -1.45203e-11)
(4.72417e-12 -2.54881e-11 -1.48972e-11)
(4.19356e-12 -2.38954e-11 -1.39775e-11)
(3.98577e-12 -2.33098e-11 -1.2718e-11)
(4.76368e-12 -2.11361e-11 -1.14103e-11)
(4.02303e-12 -2.01356e-11 -1.04694e-11)
(4.26619e-12 -2.21782e-11 -1.11855e-11)
(3.17438e-12 -2.24221e-11 -9.88912e-12)
(2.84659e-12 -2.38412e-11 -1.04571e-11)
(6.57782e-12 -2.61579e-11 -1.05728e-11)
(6.27483e-12 -2.48505e-11 -1.1171e-11)
(3.5296e-12 -2.13221e-11 -1.16587e-11)
(2.15835e-12 -2.27096e-11 -1.18083e-11)
(2.55704e-12 -2.52827e-11 -8.55709e-12)
(3.07254e-12 -2.46683e-11 -3.54238e-13)
(-7.77023e-11 3.12779e-12 -2.14474e-11)
(-7.22923e-11 5.26411e-13 -1.48233e-11)
(-7.36389e-11 -1.14839e-12 -3.64569e-12)
(-7.21038e-11 -2.56906e-12 3.53336e-12)
(-7.18051e-11 -4.21082e-12 2.75402e-12)
(-6.91265e-11 -5.95341e-12 2.33996e-12)
(-6.3728e-11 -5.90801e-12 4.11083e-12)
(-6.04321e-11 -3.34066e-12 3.66677e-12)
(-5.70397e-11 -5.55823e-12 4.24544e-12)
(-5.06286e-11 -7.83011e-12 5.50307e-12)
(-4.50205e-11 -1.25648e-11 1.67852e-12)
(-3.77857e-11 -1.1931e-11 1.98222e-12)
(-3.16524e-11 -1.42364e-11 3.67384e-12)
(-2.88795e-11 -1.30303e-11 9.0369e-12)
(-2.2793e-11 -1.31074e-11 1.06108e-11)
(-2.01228e-11 -1.36931e-11 1.43284e-11)
(-1.71831e-11 -1.392e-11 1.68148e-11)
(-1.28333e-11 -1.43705e-11 1.80475e-11)
(-1.33933e-11 -1.78163e-11 1.90221e-11)
(-1.139e-11 -2.29128e-11 1.6136e-11)
(-6.53022e-12 -2.87914e-11 1.26222e-11)
(-6.3164e-12 -2.69401e-11 7.04789e-12)
(-6.31354e-12 -2.97042e-11 1.38679e-12)
(-1.04955e-11 -3.15149e-11 -3.22676e-12)
(-1.09377e-11 -3.18373e-11 -7.55017e-12)
(-8.81025e-12 -3.22252e-11 -9.81624e-12)
(-1.01721e-11 -3.31565e-11 -1.31622e-11)
(-1.42554e-11 -2.92849e-11 -1.50638e-11)
(-1.47249e-11 -2.87346e-11 -1.84076e-11)
(-1.42649e-11 -3.07975e-11 -1.9392e-11)
(-1.45889e-11 -3.35019e-11 -1.93222e-11)
(-1.51974e-11 -3.37558e-11 -1.77733e-11)
(-1.40161e-11 -3.30072e-11 -1.62335e-11)
(-1.307e-11 -3.30131e-11 -1.43733e-11)
(-1.43978e-11 -3.19544e-11 -1.30281e-11)
(-1.58641e-11 -3.13885e-11 -1.13608e-11)
(-1.58919e-11 -3.14643e-11 -1.2336e-11)
(-1.37035e-11 -3.33159e-11 -8.00121e-12)
(-7.58104e-12 -3.38342e-11 -3.66492e-14)
(-7.66176e-12 -3.60902e-11 9.80543e-12)
(-1.15305e-11 -3.25526e-11 1.12949e-11)
(-1.18013e-11 -2.9936e-11 1.64772e-11)
(-1.09799e-11 -2.76954e-11 1.85598e-11)
(-9.50211e-12 -2.86188e-11 1.76547e-11)
(-7.07653e-12 -2.77049e-11 1.91539e-11)
(-7.99152e-12 -2.90205e-11 1.91228e-11)
(-8.29822e-12 -2.64085e-11 1.87223e-11)
(-5.98939e-12 -2.55127e-11 1.44828e-11)
(-6.95331e-12 -2.2309e-11 6.83942e-12)
(-5.77009e-12 -2.26116e-11 -6.36491e-13)
(-1.46031e-12 -2.05029e-11 -6.53528e-12)
(2.00153e-12 -2.19169e-11 -1.30523e-11)
(8.74212e-14 -2.24379e-11 -1.90661e-11)
(1.56915e-12 -2.30677e-11 -2.53456e-11)
(5.45433e-12 -2.45083e-11 -2.73421e-11)
(5.20025e-12 -2.52803e-11 -3.08768e-11)
(4.75039e-12 -2.62815e-11 -3.55599e-11)
(4.66959e-12 -2.38694e-11 -4.02255e-11)
(7.48015e-12 -2.24511e-11 -4.62837e-11)
(6.85543e-12 -2.4955e-11 -5.41493e-11)
(2.08295e-12 -2.7293e-11 -5.73896e-11)
(-8.2115e-14 -2.41704e-11 -5.68582e-11)
(-5.64068e-13 -2.30232e-11 -5.81749e-11)
(-1.2343e-12 -2.3192e-11 -5.86507e-11)
(-2.62285e-12 -2.30239e-11 -5.65799e-11)
(-2.22722e-12 -2.06943e-11 -5.31444e-11)
(2.7998e-12 -2.15375e-11 -4.83927e-11)
(2.70558e-12 -2.19235e-11 -3.91581e-11)
(1.99767e-12 -2.66965e-11 -3.03537e-11)
(-4.53415e-12 -2.50397e-11 -2.21877e-11)
(-9.36134e-12 -1.98741e-11 -1.02466e-11)
(-5.16504e-12 -2.00198e-11 5.19624e-12)
(-5.12397e-12 -1.87275e-11 1.72116e-11)
(-2.54368e-12 -1.84927e-11 1.95599e-11)
(-4.90776e-12 -1.92966e-11 1.92178e-11)
(-5.44743e-12 -1.88538e-11 1.73077e-11)
(-3.89518e-12 -1.88239e-11 1.92822e-11)
(-4.29833e-12 -1.84407e-11 1.87762e-11)
(-3.44783e-12 -2.01848e-11 1.867e-11)
(-1.38262e-12 -2.15933e-11 1.83491e-11)
(6.13207e-13 -2.18861e-11 2.11785e-11)
(2.08667e-12 -2.10631e-11 1.7491e-11)
(-4.449e-13 -2.09469e-11 9.97111e-12)
(-4.38e-12 -2.15402e-11 2.48504e-12)
(-1.63846e-12 -1.92697e-11 -3.92954e-12)
(-1.68085e-12 -2.14412e-11 -4.89834e-12)
(-1.98053e-12 -2.34162e-11 -7.58252e-12)
(1.4605e-12 -2.20337e-11 -1.07527e-11)
(1.15078e-12 -2.13735e-11 -1.37055e-11)
(2.19181e-12 -2.2273e-11 -1.54111e-11)
(2.9016e-12 -2.4073e-11 -1.51611e-11)
(3.09736e-12 -2.38267e-11 -1.47707e-11)
(2.86299e-12 -2.52522e-11 -1.39267e-11)
(2.08994e-12 -2.29562e-11 -1.36152e-11)
(3.10892e-12 -2.06866e-11 -1.54501e-11)
(4.67251e-12 -1.7469e-11 -1.62553e-11)
(5.97537e-12 -1.72968e-11 -1.73121e-11)
(4.3158e-12 -1.66232e-11 -1.59455e-11)
(5.15899e-12 -1.97505e-11 -1.64673e-11)
(7.83482e-12 -2.48344e-11 -1.64998e-11)
(4.47374e-12 -2.25326e-11 -1.72585e-11)
(2.19404e-12 -2.06039e-11 -1.77412e-11)
(2.85306e-12 -2.18588e-11 -1.84147e-11)
(3.27555e-12 -2.32053e-11 -1.53303e-11)
(2.72729e-13 -1.86322e-11 -6.69014e-12)
(-7.55515e-11 -5.88136e-15 -1.93002e-11)
(-7.12629e-11 -1.32717e-12 -1.22452e-11)
(-7.50639e-11 -1.45487e-12 -2.32045e-12)
(-7.26022e-11 -2.98568e-13 2.13736e-12)
(-6.96526e-11 -4.22215e-12 1.76241e-12)
(-6.86171e-11 -7.20882e-12 5.99004e-12)
(-6.57261e-11 -6.48243e-12 9.57714e-12)
(-6.14187e-11 -2.97222e-12 8.77152e-12)
(-5.50429e-11 -4.16999e-12 7.98213e-12)
(-4.77533e-11 -7.31894e-12 8.00476e-12)
(-4.35512e-11 -1.02061e-11 4.43515e-12)
(-3.73505e-11 -1.12895e-11 3.02828e-12)
(-3.08715e-11 -1.08826e-11 3.57046e-12)
(-2.64512e-11 -1.33584e-11 7.80483e-12)
(-2.05448e-11 -1.47351e-11 1.04669e-11)
(-2.00062e-11 -1.7442e-11 1.41058e-11)
(-1.82606e-11 -1.60671e-11 1.64612e-11)
(-1.24967e-11 -1.69834e-11 1.72851e-11)
(-9.98533e-12 -1.85593e-11 1.89905e-11)
(-7.29832e-12 -2.30976e-11 1.68113e-11)
(-3.94852e-12 -2.47546e-11 1.21147e-11)
(-5.23987e-12 -2.92633e-11 6.70845e-12)
(-6.08849e-12 -3.35791e-11 7.18951e-13)
(-1.10162e-11 -3.46099e-11 -3.67166e-12)
(-1.04583e-11 -3.20369e-11 -7.03094e-12)
(-7.96122e-12 -3.40107e-11 -1.00166e-11)
(-1.30402e-11 -3.28605e-11 -1.43319e-11)
(-1.62396e-11 -2.92346e-11 -1.93219e-11)
(-1.45676e-11 -2.79938e-11 -1.85611e-11)
(-1.13448e-11 -2.94521e-11 -1.40136e-11)
(-1.24264e-11 -3.27725e-11 -1.19324e-11)
(-1.48968e-11 -3.3544e-11 -1.35646e-11)
(-1.42954e-11 -3.31618e-11 -1.4452e-11)
(-1.52476e-11 -3.28748e-11 -1.36737e-11)
(-1.5348e-11 -2.94806e-11 -1.25921e-11)
(-1.48088e-11 -2.97275e-11 -1.15763e-11)
(-1.44357e-11 -2.85023e-11 -1.20913e-11)
(-1.23809e-11 -2.93446e-11 -8.66204e-12)
(-7.20539e-12 -3.32454e-11 -2.54131e-12)
(-7.60558e-12 -3.2399e-11 8.53267e-12)
(-1.32785e-11 -3.32145e-11 1.67028e-11)
(-1.29311e-11 -3.47162e-11 2.60882e-11)
(-1.06054e-11 -3.08815e-11 2.99851e-11)
(-8.13337e-12 -3.11296e-11 2.78539e-11)
(-7.23757e-12 -3.26721e-11 2.60833e-11)
(-9.52939e-12 -2.86989e-11 2.61613e-11)
(-1.01026e-11 -3.0404e-11 2.49602e-11)
(-7.63848e-12 -3.13235e-11 2.00932e-11)
(-8.13266e-12 -2.33523e-11 1.40927e-11)
(-7.73448e-12 -2.43207e-11 5.39015e-12)
(-2.44275e-12 -2.25392e-11 -3.47737e-12)
(2.10032e-12 -2.5282e-11 -1.17076e-11)
(9.31983e-13 -2.09504e-11 -1.83436e-11)
(1.89862e-12 -2.33994e-11 -2.37286e-11)
(5.77264e-12 -2.23181e-11 -2.65818e-11)
(6.96145e-12 -2.41486e-11 -2.94994e-11)
(4.4455e-12 -2.69302e-11 -3.43391e-11)
(2.87189e-12 -2.45475e-11 -4.34277e-11)
(7.71797e-12 -2.5427e-11 -5.63974e-11)
(8.53558e-12 -2.35459e-11 -6.83341e-11)
(1.24942e-12 -2.3474e-11 -7.36741e-11)
(-2.72343e-12 -2.45221e-11 -7.34252e-11)
(-8.15643e-13 -2.36379e-11 -7.34968e-11)
(-2.13423e-13 -2.20517e-11 -7.16706e-11)
(-3.39574e-12 -2.37033e-11 -6.81118e-11)
(-5.71474e-12 -2.21866e-11 -6.16804e-11)
(9.93608e-13 -2.16221e-11 -5.3489e-11)
(3.40205e-12 -2.06798e-11 -4.01563e-11)
(3.52249e-12 -2.39359e-11 -2.6218e-11)
(-5.90684e-12 -2.09325e-11 -1.92965e-11)
(-9.25724e-12 -2.15296e-11 -6.95175e-12)
(-5.02703e-12 -2.17794e-11 6.13292e-12)
(-6.54018e-12 -1.48743e-11 1.58776e-11)
(-9.63755e-13 -1.36021e-11 2.02789e-11)
(-3.67287e-12 -1.47225e-11 2.08718e-11)
(-5.95936e-12 -1.68036e-11 1.89949e-11)
(-4.74439e-12 -1.93723e-11 1.91759e-11)
(-4.1474e-12 -1.63234e-11 1.73525e-11)
(-2.30357e-12 -1.7179e-11 1.65551e-11)
(-6.78693e-13 -2.12564e-11 1.73895e-11)
(6.23831e-13 -1.8663e-11 1.95397e-11)
(9.01662e-13 -1.8149e-11 1.69192e-11)
(6.44281e-13 -1.91224e-11 1.05838e-11)
(-3.54726e-12 -2.34399e-11 4.35867e-12)
(-3.4785e-12 -2.05327e-11 -2.32544e-13)
(5.38417e-14 -2.08707e-11 -3.32059e-12)
(-7.87208e-13 -2.53463e-11 -7.345e-12)
(8.0608e-13 -2.26595e-11 -1.26765e-11)
(1.78487e-13 -2.15441e-11 -1.56844e-11)
(1.73662e-12 -2.15668e-11 -1.79097e-11)
(3.98524e-12 -2.20655e-11 -1.71934e-11)
(5.79784e-12 -2.52442e-11 -1.48975e-11)
(3.28458e-12 -2.83238e-11 -1.38659e-11)
(9.56796e-13 -2.53862e-11 -1.43536e-11)
(1.57866e-12 -2.56326e-11 -1.66848e-11)
(2.7462e-12 -2.0938e-11 -2.01556e-11)
(4.75466e-12 -2.04268e-11 -2.42056e-11)
(4.70276e-12 -1.82625e-11 -2.23299e-11)
(9.45352e-12 -2.0634e-11 -2.16506e-11)
(1.01643e-11 -2.46979e-11 -2.29406e-11)
(3.86212e-12 -2.49265e-11 -2.25475e-11)
(3.40297e-12 -2.27496e-11 -2.37897e-11)
(4.84499e-12 -2.26287e-11 -2.39377e-11)
(1.12874e-13 -2.45369e-11 -2.07437e-11)
(-4.56281e-12 -1.84286e-11 -1.35397e-11)
(-7.50693e-11 1.82067e-12 -7.08016e-12)
(-7.2176e-11 3.0438e-12 -4.16356e-12)
(-7.49933e-11 8.15813e-13 6.94877e-13)
(-7.10822e-11 -1.38919e-12 4.42271e-12)
(-6.64948e-11 -3.16644e-12 6.20025e-12)
(-6.59684e-11 -5.15234e-12 1.12218e-11)
(-6.58012e-11 -7.15733e-12 1.69127e-11)
(-6.26999e-11 -7.92217e-12 1.32318e-11)
(-5.52896e-11 -8.81548e-12 1.07928e-11)
(-4.76447e-11 -1.0425e-11 9.86577e-12)
(-4.082e-11 -1.12261e-11 6.51049e-12)
(-3.59469e-11 -1.57776e-11 3.5438e-12)
(-2.95525e-11 -1.51722e-11 2.47417e-12)
(-2.47014e-11 -1.78142e-11 5.72756e-12)
(-1.84432e-11 -1.91843e-11 7.27497e-12)
(-1.6971e-11 -1.88654e-11 1.05131e-11)
(-1.64807e-11 -1.97169e-11 1.42106e-11)
(-1.08864e-11 -2.14824e-11 1.64688e-11)
(-7.75689e-12 -2.11068e-11 1.99801e-11)
(-5.689e-12 -2.38312e-11 1.57253e-11)
(-2.46833e-12 -2.23462e-11 1.17729e-11)
(-2.01925e-12 -2.71349e-11 7.90604e-12)
(-5.81835e-12 -2.81495e-11 1.49918e-12)
(-1.2371e-11 -3.02189e-11 -2.34892e-12)
(-1.09852e-11 -3.04403e-11 -6.6972e-12)
(-8.27912e-12 -2.86085e-11 -9.82091e-12)
(-1.48524e-11 -2.68102e-11 -1.44952e-11)
(-1.83851e-11 -2.83158e-11 -2.00935e-11)
(-1.43069e-11 -2.74509e-11 -1.53935e-11)
(-1.02087e-11 -2.69747e-11 -7.29889e-12)
(-1.15417e-11 -2.56178e-11 -6.36052e-12)
(-1.5496e-11 -2.66476e-11 -1.07044e-11)
(-1.4679e-11 -2.96012e-11 -1.31869e-11)
(-1.52744e-11 -2.75416e-11 -1.32634e-11)
(-1.64029e-11 -2.75154e-11 -1.19357e-11)
(-1.51239e-11 -2.72369e-11 -1.01251e-11)
(-1.49569e-11 -2.70089e-11 -1.30505e-11)
(-1.07041e-11 -2.827e-11 -9.28482e-12)
(-5.18052e-12 -2.994e-11 -1.38547e-12)
(-8.26561e-12 -2.692e-11 1.03931e-11)
(-1.10793e-11 -3.06252e-11 2.00718e-11)
(-1.36356e-11 -3.08076e-11 3.2637e-11)
(-1.2843e-11 -3.03701e-11 3.77563e-11)
(-8.60131e-12 -3.03029e-11 3.68373e-11)
(-1.084e-11 -2.95438e-11 3.35396e-11)
(-1.0312e-11 -2.5514e-11 3.3979e-11)
(-6.49662e-12 -2.85127e-11 3.59021e-11)
(-1.2584e-11 -2.97706e-11 2.98289e-11)
(-1.44e-11 -2.39096e-11 2.07762e-11)
(-5.69391e-12 -2.32408e-11 1.26575e-11)
(4.07947e-13 -2.36042e-11 2.16968e-12)
(8.33216e-13 -2.27487e-11 -8.57971e-12)
(-6.99814e-13 -2.37558e-11 -1.51942e-11)
(4.1206e-12 -2.76602e-11 -1.96041e-11)
(5.56976e-12 -2.74233e-11 -2.56204e-11)
(8.17543e-12 -2.61884e-11 -2.72525e-11)
(5.39191e-12 -2.4984e-11 -3.11907e-11)
(3.69072e-12 -2.75214e-11 -4.22825e-11)
(7.60178e-12 -2.94405e-11 -6.07481e-11)
(5.72038e-12 -2.81728e-11 -7.51417e-11)
(5.00006e-13 -2.53718e-11 -8.1833e-11)
(-1.41051e-12 -2.63807e-11 -8.28927e-11)
(-8.73279e-13 -2.58011e-11 -8.32531e-11)
(6.16022e-13 -2.45692e-11 -7.70044e-11)
(-2.28381e-12 -2.28744e-11 -7.2883e-11)
(-5.20047e-12 -2.60257e-11 -6.41647e-11)
(4.97501e-13 -2.41917e-11 -5.41624e-11)
(4.52119e-12 -2.39405e-11 -4.03002e-11)
(3.1904e-12 -2.53022e-11 -2.3804e-11)
(-5.70054e-12 -1.86275e-11 -1.44112e-11)
(-6.39959e-12 -2.23877e-11 -4.00274e-12)
(-7.30174e-12 -1.90509e-11 6.51459e-12)
(-9.25939e-12 -1.60742e-11 1.44459e-11)
(-3.12552e-12 -1.52519e-11 1.75965e-11)
(-3.765e-12 -1.38123e-11 2.06913e-11)
(-2.73688e-12 -1.63875e-11 1.94445e-11)
(-4.78146e-12 -1.78383e-11 1.74418e-11)
(-5.33975e-12 -1.88814e-11 1.52516e-11)
(1.43894e-13 -1.90876e-11 1.43252e-11)
(-1.21343e-12 -2.14761e-11 1.33559e-11)
(-1.89825e-12 -2.15859e-11 1.20365e-11)
(1.49513e-12 -2.22109e-11 1.1442e-11)
(2.71193e-12 -2.24029e-11 8.04527e-12)
(-1.48359e-12 -2.30577e-11 4.31851e-12)
(-3.32291e-12 -2.60272e-11 1.89169e-12)
(1.55077e-12 -2.48034e-11 -9.50136e-13)
(-8.37517e-13 -2.43223e-11 -8.27433e-12)
(-2.56121e-12 -2.60888e-11 -1.61061e-11)
(2.31314e-13 -2.55092e-11 -2.08004e-11)
(2.59691e-12 -2.50878e-11 -2.12174e-11)
(5.85109e-12 -2.58574e-11 -1.91889e-11)
(7.93611e-12 -2.65665e-11 -1.4443e-11)
(2.58656e-12 -2.67991e-11 -1.31581e-11)
(-1.02285e-12 -2.55138e-11 -1.3962e-11)
(-2.3743e-13 -2.55809e-11 -1.83269e-11)