/*--------------------------------*- C++ -*----------------------------------*\
| =========                 |                                                 |
| \\      /  F ield         | OpenFOAM: The Open Source CFD Toolbox           |
|  \\    /   O peration     | Version:  2406                                  |
|   \\  /    A nd           | Website:  www.openfoam.com                      |
|    \\/     M anipulation  |                                                 |
\*---------------------------------------------------------------------------*/
FoamFile
{
    version     2.0;
    format      ascii;
    arch        "LSB;label=32;scalar=64";
    class       volScalarField;
    location    "0.065";
    object      Ma;
}
// * * * * * * * * * * * * * * * * * * * * * * * * * * * * * * * * * * * * * //

dimensions      [0 0 0 0 0 0 0];

internalField   nonuniform List<scalar> 
83682
(
1.132
1.132
1.132
1.132
1.132
1.132
1.132
1.132
1.132
1.132
1.132
1.132
1.132
1.132
1.132
1.132
1.132
1.132
1.132
1.132
1.132
1.132
1.132
1.132
1.132
1.132
1.132
1.132
1.132
1.132
1.132
1.132
1.132
1.13187
1.12855
1.08516
1.02423
1.01902
1.01892
1.01891
1.0189
1.01889
1.01889
1.01892
1.01894
1.01893
1.01891
1.01889
1.01888
1.01889
1.01893
1.01896
1.01899
1.01903
1.01906
1.01908
1.0191
1.01911
1.01913
1.01912
1.0191
1.0191
1.0191
1.01911
1.01913
1.01916
1.01919
1.01919
1.01918
1.01917
1.01913
1.01908
1.01905
1.01903
1.01903
1.01903
1.01905
1.01907
1.01909
1.01908
1.01907
1.01905
1.01903
1.01899
1.01898
1.01898
1.019
1.01903
1.01907
1.01912
1.01914
1.01914
1.01914
1.01912
1.0191
1.01907
1.01906
1.01907
1.01908
1.01909
1.01911
1.01913
1.01913
1.01912
1.01912
1.01911
1.01909
1.01908
1.01908
1.01908
1.01908
1.01909
1.01911
1.01912
1.01912
1.01912
1.01912
1.0191
1.01908
1.01906
1.01905
1.01904
1.01904
1.01905
1.01906
1.01907
1.01907
1.01907
1.01907
1.01906
1.01906
1.01906
1.01907
1.01908
1.0191
1.01912
1.01912
1.01912
1.01912
1.01911
1.01911
1.0191
1.0191
1.01909
1.01909
1.01909
1.01908
1.01908
1.01907
1.01907
1.01907
1.01907
1.01908
1.01908
1.01908
1.01909
1.01909
1.01909
1.01909
1.01909
1.01909
1.01909
1.01909
1.01909
1.01909
1.01905
1.01899
1.01898
1.01905
1.01933
1.02001
1.02113
1.02262
1.02432
1.02612
1.0279
1.02961
1.03122
1.03262
1.0335
1.03381
1.0339
1.03391
1.03393
1.03394
1.03395
1.03389
1.03383
1.03373
1.03364
1.03358
1.03354
1.03349
1.0334
1.03316
1.03263
1.03161
1.03008
1.02841
1.02706
1.02611
1.0254
1.02481
1.02427
1.02378
1.02332
1.02291
1.02255
1.02224
1.02198
1.02177
1.02161
1.02148
1.02138
1.0213
1.02124
1.02119
1.02114
1.0211
1.02106
1.02102
1.02098
1.02093
1.02089
1.02084
1.0208
1.02075
1.02069
1.02064
1.02059
1.02055
1.02052
1.0205
1.02049
1.02049
1.02048
1.02047
1.02047
1.02046
1.02045
1.02044
1.02044
1.02043
1.02042
1.02041
1.02041
1.02039
1.02038
1.02037
1.02035
1.02032
1.0203
1.02028
1.02027
1.02026
1.02025
1.02024
1.02024
1.02023
1.02022
1.02022
1.02021
1.0202
1.02019
1.02019
1.02019
1.02018
1.02017
1.02016
1.02015
1.02014
1.02013
1.02011
1.02009
1.02008
1.02006
1.02004
1.02003
1.02001
1.01999
1.01997
1.01995
1.01994
1.01993
1.01992
1.01991
1.01989
1.01989
1.01988
1.01987
1.01987
1.01987
1.01986
1.01986
1.01986
1.01985
1.01984
1.01984
1.01983
1.01983
1.01982
1.01981
1.0198
1.01978
1.01977
1.01977
1.01977
1.01977
1.01978
1.01977
1.01977
1.01976
1.01975
1.01974
1.01974
1.01974
1.01973
1.01972
1.01971
1.0197
1.01969
1.01968
1.01968
1.01967
1.01967
1.01966
1.01965
1.01964
1.01963
1.01962
1.01962
1.01961
1.01961
1.01961
1.0196
1.0196
1.0196
1.0196
1.01959
1.01959
1.0196
1.01961
1.01962
1.01963
1.01963
1.01962
1.01962
1.01961
1.01961
1.01961
1.01962
1.01962
1.01962
1.01962
1.01962
1.01962
1.01962
1.01963
1.01963
1.01963
1.01963
1.01962
1.01962
1.01961
1.0196
1.0196
1.01959
1.01959
1.01958
1.01957
1.01957
1.01956
1.01956
1.01955
1.01955
1.01955
1.01954
1.01953
1.01952
1.01951
1.01951
1.0195
1.0195
1.01949
1.01949
1.01947
1.01945
1.01944
1.01943
1.01942
1.01941
1.0194
1.0194
1.01938
1.01938
1.01937
1.01936
1.01936
1.01936
1.01937
1.01939
1.01941
1.01942
1.01942
1.01942
1.01942
1.01942
1.01942
1.01943
1.01943
1.01942
1.01941
1.0194
1.01939
1.01937
1.01937
1.01937
1.01937
1.01937
1.01936
1.01936
1.01936
1.01936
1.01936
1.01937
1.01937
1.01937
1.01936
1.01935
1.01935
1.01934
1.01933
1.01933
1.01933
1.01933
1.01932
1.0193
1.0193
1.0193
1.0193
1.01929
1.01929
1.01929
1.01929
1.01928
1.01928
1.01928
1.01928
1.01927
1.01928
1.01928
1.01928
1.01927
1.01925
1.01926
1.01925
1.01924
1.01922
1.01922
1.01919
1.01915
1.01907
1.01896
1.01881
1.01857
1.01822
1.01771
1.017
1.01599
1.01457
1.01261
1.00998
1.00642
1.00176
0.995671
0.987919
0.978169
0.966177
0.951707
0.934662
0.915086
0.89324
0.86967
0.845316
0.821542
0.800052
0.783169
0.772535
0.766997
0.765682
0.765709
0.765796
0.765939
0.766087
0.766186
0.766241
0.766277
0.766308
0.766336
0.766357
0.766392
0.766473
0.766588
0.766675
0.766691
0.766679
0.766636
0.766551
0.766427
0.766303
0.766252
0.766254
0.766274
0.766324
0.766395
0.766448
0.766466
0.766465
0.766449
0.76641
0.766364
0.766346
0.766348
0.766361
0.766391
0.766437
0.766466
0.76647
0.766466
0.766446
0.766409
0.766364
0.766337
0.766335
0.766339
0.766355
0.766381
0.766409
0.766421
0.76642
0.766414
0.766396
0.766368
0.766347
0.766341
0.76634
0.766345
0.766359
0.766379
0.766394
0.766399
0.7664
0.766396
0.766388
0.766384
0.766386
0.766391
0.7664
0.766414
0.766431
0.766446
0.766451
0.766454
0.766458
0.766465
0.766479
0.766501
0.766532
0.766573
0.766616
0.766658
0.766691
0.766697
0.766697
0.766693
0.766686
0.766675
0.766661
0.766646
0.766631
0.766615
0.766599
0.766582
0.766564
0.766546
0.766529
0.766513
0.766497
0.766483
0.766476
0.766476
0.766476
0.766475
0.766474
0.766472
0.766467
0.766458
0.766446
0.766431
0.766419
0.766415
0.766415
0.766416
0.766419
0.766422
0.766424
0.766423
0.766422
0.766418
0.766412
0.766405
0.766399
0.766395
0.766394
0.766395
0.766395
0.766395
0.766394
0.76639
0.766384
0.766376
0.766365
0.766353
0.766343
0.766334
0.766328
0.766322
0.766316
0.766309
0.766299
0.766288
0.766275
0.766262
0.766252
0.766247
0.766246
0.766247
0.766248
0.766249
0.766251
0.766252
0.766252
0.766253
0.766253
0.766254
0.766255
0.766257
0.766259
0.766261
0.766261
0.766261
0.766261
0.766262
0.766261
0.76626
0.766256
0.766249
0.766236
0.766217
0.766202
0.766198
0.766203
0.766351
0.767382
0.770244
0.774884
0.780643
0.78699
0.793701
0.800601
0.807684
0.814857
0.822146
0.829475
0.83691
0.844362
0.851899
0.859448
0.867083
0.874716
0.882422
0.890135
0.897914
0.905681
0.913522
0.92135
0.929239
0.93709
0.945026
0.952895
0.960821
0.96864
0.976653
0.985284
1.00026
1.132
1.132
1.132
1.132
1.132
1.132
1.132
1.132
1.132
1.132
1.132
1.132
1.132
1.132
1.132
1.132
1.132
1.132
1.132
1.132
1.132
1.132
1.132
1.132
1.132
1.132
1.132
1.132
1.132
1.132
1.132
1.132
1.132
1.13187
1.12855
1.08516
1.02423
1.01902
1.01892
1.01891
1.0189
1.01889
1.01889
1.01892
1.01894
1.01893
1.01891
1.01889
1.01888
1.01889
1.01893
1.01896
1.01899
1.01903
1.01906
1.01908
1.0191
1.01911
1.01913
1.01912
1.0191
1.0191
1.0191
1.01911
1.01913
1.01916
1.01919
1.01919
1.01918
1.01917
1.01913
1.01908
1.01905
1.01903
1.01903
1.01903
1.01905
1.01907
1.01909
1.01908
1.01907
1.01905
1.01903
1.01899
1.01898
1.01898
1.019
1.01903
1.01907
1.01912
1.01914
1.01914
1.01914
1.01912
1.0191
1.01907
1.01906
1.01907
1.01908
1.01909
1.01911
1.01913
1.01913
1.01912
1.01912
1.01911
1.01909
1.01908
1.01908
1.01908
1.01908
1.01909
1.01911
1.01912
1.01912
1.01912
1.01912
1.0191
1.01908
1.01906
1.01905
1.01904
1.01904
1.01905
1.01906
1.01907
1.01907
1.01907
1.01907
1.01906
1.01906
1.01906
1.01907
1.01908
1.0191
1.01912
1.01912
1.01912
1.01912
1.01911
1.01911
1.0191
1.0191
1.01909
1.01909
1.01909
1.01908
1.01908
1.01907
1.01907
1.01907
1.01907
1.01908
1.01908
1.01908
1.01909
1.01909
1.01909
1.01909
1.01909
1.01909
1.01909
1.01909
1.01909
1.01909
1.01905
1.01899
1.01898
1.01905
1.01933
1.02001
1.02113
1.02262
1.02432
1.02612
1.0279
1.02961
1.03123
1.03263
1.03351
1.0338
1.03389
1.0339
1.03392
1.03395
1.03396
1.03391
1.03383
1.03373
1.03364
1.03358
1.03354
1.03349
1.0334
1.03316
1.03263
1.03161
1.03008
1.02841
1.02706
1.02611
1.0254
1.02481
1.02427
1.02378
1.02332
1.02291
1.02255
1.02224
1.02198
1.02177
1.02161
1.02148
1.02138
1.0213
1.02124
1.02119
1.02114
1.0211
1.02106
1.02102
1.02098
1.02093
1.02089
1.02084
1.0208
1.02075
1.02069
1.02064
1.02059
1.02055
1.02052
1.0205
1.02049
1.02049
1.02048
1.02047
1.02047
1.02046
1.02045
1.02044
1.02044
1.02043
1.02042
1.02041
1.02041
1.02039
1.02038
1.02037
1.02035
1.02032
1.0203
1.02028
1.02027
1.02026
1.02025
1.02024
1.02024
1.02023
1.02022
1.02022
1.02021
1.0202
1.02019
1.02019
1.02019
1.02018
1.02017
1.02016
1.02015
1.02014
1.02013
1.02011
1.02009
1.02008
1.02006
1.02004
1.02003
1.02001
1.01999
1.01997
1.01995
1.01994
1.01993
1.01992
1.01991
1.01989
1.01989
1.01988
1.01987
1.01987
1.01987
1.01986
1.01986
1.01986
1.01985
1.01984
1.01984
1.01983
1.01983
1.01982
1.01981
1.0198
1.01978
1.01977
1.01977
1.01977
1.01977
1.01978
1.01977
1.01977
1.01976
1.01975
1.01974
1.01974
1.01974
1.01973
1.01972
1.01971
1.0197
1.01969
1.01968
1.01968
1.01967
1.01967
1.01966
1.01965
1.01964
1.01963
1.01962
1.01962
1.01961
1.01961
1.01961
1.0196
1.0196
1.0196
1.0196
1.01959
1.01959
1.0196
1.01961
1.01962
1.01963
1.01963
1.01962
1.01962
1.01961
1.01961
1.01961
1.01962
1.01962
1.01962
1.01962
1.01962
1.01962
1.01962
1.01963
1.01963
1.01963
1.01963
1.01962
1.01962
1.01961
1.0196
1.0196
1.01959
1.01959
1.01958
1.01957
1.01957
1.01956
1.01956
1.01955
1.01955
1.01955
1.01954
1.01953
1.01952
1.01951
1.01951
1.0195
1.0195
1.01949
1.01949
1.01947
1.01945
1.01944
1.01943
1.01942
1.01941
1.0194
1.0194
1.01938
1.01937
1.01937
1.01936
1.01936
1.01936
1.01937
1.01939
1.01941
1.01942
1.01942
1.01942
1.01942
1.01942
1.01942
1.01943
1.01943
1.01942
1.01941
1.0194
1.01939
1.01937
1.01937
1.01937
1.01937
1.01937
1.01936
1.01936
1.01936
1.01936
1.01936
1.01937
1.01937
1.01937
1.01936
1.01935
1.01935
1.01934
1.01933
1.01933
1.01933
1.01933
1.01932
1.0193
1.0193
1.0193
1.0193
1.01929
1.01929
1.01929
1.01929
1.01928
1.01928
1.01928
1.01928
1.01927
1.01927
1.01928
1.01928
1.01927
1.01925
1.01926
1.01925
1.01924
1.01923
1.01922
1.01919
1.01915
1.01907
1.01897
1.01881
1.01857
1.01823
1.01773
1.01703
1.01602
1.01462
1.01268
1.01008
1.00655
1.00194
0.995908
0.988223
0.978548
0.966636
0.952248
0.935278
0.915761
0.893948
0.870368
0.845946
0.822043
0.800397
0.78337
0.772644
0.767058
0.765702
0.765722
0.765804
0.765944
0.766089
0.766187
0.766241
0.766277
0.766307
0.766335
0.766356
0.76639
0.766471
0.766586
0.766674
0.766691
0.766679
0.766636
0.766551
0.766427
0.766303
0.766251
0.766253
0.766273
0.766323
0.766394
0.766447
0.766466
0.766465
0.766449
0.76641
0.766364
0.766346
0.766348
0.76636
0.766391
0.766436
0.766466
0.76647
0.766466
0.766446
0.766409
0.766364
0.766337
0.766335
0.766339
0.766355
0.766381
0.766408
0.766421
0.76642
0.766413
0.766395
0.766368
0.766346
0.76634
0.76634
0.766344
0.766358
0.766378
0.766393
0.766399
0.7664
0.766397
0.76639
0.766385
0.766388
0.766393
0.766402
0.766416
0.766433
0.766448
0.766453
0.766455
0.766458
0.766466
0.766479
0.7665
0.766531
0.766571
0.766614
0.766657
0.766689
0.766696
0.766696
0.766693
0.766685
0.766674
0.766661
0.766646
0.766632
0.766616
0.7666
0.766582
0.766565
0.766547
0.76653
0.766513
0.766497
0.766483
0.766477
0.766476
0.766476
0.766475
0.766474
0.766472
0.766467
0.766458
0.766446
0.766431
0.766419
0.766415
0.766415
0.766416
0.766419
0.766422
0.766424
0.766423
0.766422
0.766418
0.766412
0.766405
0.766399
0.766395
0.766395
0.766395
0.766395
0.766395
0.766394
0.76639
0.766384
0.766376
0.766365
0.766353
0.766343
0.766334
0.766328
0.766322
0.766316
0.766309
0.7663
0.766288
0.766275
0.766262
0.766252
0.766247
0.766246
0.766247
0.766248
0.766249
0.766251
0.766252
0.766252
0.766253
0.766253
0.766254
0.766255
0.766257
0.766259
0.766261
0.766261
0.766261
0.766261
0.766262
0.766261
0.76626
0.766256
0.766249
0.766236
0.766217
0.766202
0.766198
0.766203
0.766351
0.767382
0.770244
0.774883
0.780644
0.786989
0.793702
0.8006
0.807685
0.814856
0.822147
0.829474
0.836911
0.844362
0.851899
0.859447
0.867083
0.874715
0.882422
0.890135
0.897915
0.90568
0.913522
0.921351
0.929239
0.937089
0.945026
0.952895
0.960822
0.968639
0.976662
0.985307
1.00024
1.132
1.132
1.132
1.132
1.132
1.132
1.132
1.132
1.132
1.132
1.132
1.132
1.132
1.132
1.132
1.132
1.132
1.132
1.132
1.132
1.132
1.132
1.132
1.132
1.132
1.132
1.132
1.132
1.132
1.132
1.132
1.132
1.132
1.13187
1.12855
1.08516
1.02423
1.01902
1.01892
1.01891
1.0189
1.01889
1.01889
1.01892
1.01894
1.01893
1.01891
1.01889
1.01888
1.01889
1.01893
1.01896
1.01899
1.01903
1.01906
1.01908
1.0191
1.01911
1.01913
1.01912
1.0191
1.0191
1.0191
1.01911
1.01913
1.01916
1.01919
1.01919
1.01918
1.01917
1.01913
1.01908
1.01905
1.01903
1.01903
1.01903
1.01905
1.01907
1.01909
1.01908
1.01907
1.01905
1.01903
1.01899
1.01898
1.01898
1.019
1.01903
1.01907
1.01912
1.01914
1.01914
1.01914
1.01912
1.0191
1.01907
1.01906
1.01907
1.01908
1.01909
1.01911
1.01913
1.01913
1.01912
1.01912
1.01911
1.01909
1.01908
1.01908
1.01908
1.01908
1.01909
1.01911
1.01912
1.01912
1.01912
1.01912
1.0191
1.01908
1.01906
1.01905
1.01904
1.01904
1.01905
1.01906
1.01907
1.01907
1.01907
1.01907
1.01906
1.01906
1.01906
1.01907
1.01908
1.0191
1.01912
1.01912
1.01912
1.01912
1.01911
1.01911
1.0191
1.0191
1.01909
1.01909
1.01909
1.01908
1.01908
1.01907
1.01907
1.01907
1.01907
1.01908
1.01908
1.01908
1.01909
1.01909
1.01909
1.01909
1.01909
1.01909
1.01909
1.01909
1.01909
1.01909
1.01905
1.01899
1.01898
1.01905
1.01933
1.02001
1.02113
1.02262
1.02432
1.02612
1.0279
1.02961
1.03123
1.03264
1.03351
1.03379
1.03387
1.03389
1.03392
1.03395
1.03398
1.03393
1.03383
1.03372
1.03363
1.03358
1.03354
1.03349
1.03339
1.03316
1.03263
1.03161
1.03008
1.02841
1.02706
1.02611
1.0254
1.02481
1.02427
1.02378
1.02332
1.02291
1.02255
1.02224
1.02198
1.02177
1.02161
1.02148
1.02138
1.0213
1.02124
1.02119
1.02114
1.0211
1.02106
1.02102
1.02098
1.02093
1.02089
1.02084
1.0208
1.02075
1.02069
1.02064
1.02059
1.02055
1.02052
1.0205
1.02049
1.02049
1.02048
1.02047
1.02047
1.02046
1.02045
1.02044
1.02044
1.02043
1.02042
1.02041
1.02041
1.02039
1.02038
1.02037
1.02035
1.02032
1.0203
1.02028
1.02027
1.02026
1.02025
1.02024
1.02024
1.02023
1.02022
1.02022
1.02021
1.0202
1.02019
1.02019
1.02019
1.02018
1.02017
1.02016
1.02015
1.02014
1.02013
1.02011
1.02009
1.02008
1.02006
1.02004
1.02003
1.02001
1.01999
1.01997
1.01995
1.01994
1.01993
1.01992
1.01991
1.01989
1.01989
1.01988
1.01987
1.01987
1.01987
1.01986
1.01986
1.01986
1.01985
1.01984
1.01984
1.01983
1.01983
1.01982
1.01981
1.0198
1.01978
1.01977
1.01977
1.01977
1.01977
1.01978
1.01977
1.01977
1.01976
1.01975
1.01974
1.01974
1.01974
1.01973
1.01972
1.01971
1.0197
1.01969
1.01968
1.01968
1.01967
1.01967
1.01966
1.01965
1.01964
1.01963
1.01962
1.01962
1.01961
1.01961
1.01961
1.0196
1.0196
1.0196
1.0196
1.01959
1.01959
1.0196
1.01961
1.01962
1.01963
1.01963
1.01962
1.01962
1.01961
1.01961
1.01961
1.01962
1.01962
1.01962
1.01962
1.01962
1.01962
1.01962
1.01963
1.01963
1.01963
1.01963
1.01962
1.01962
1.01961
1.0196
1.0196
1.01959
1.01959
1.01958
1.01957
1.01957
1.01956
1.01956
1.01955
1.01955
1.01955
1.01954
1.01953
1.01952
1.01951
1.01951
1.0195
1.0195
1.01949
1.01949
1.01947
1.01945
1.01944
1.01943
1.01942
1.01941
1.0194
1.0194
1.01938
1.01937
1.01937
1.01937
1.01936
1.01936
1.01937
1.01939
1.01941
1.01942
1.01942
1.01942
1.01942
1.01942
1.01942
1.01943
1.01943
1.01942
1.01941
1.0194
1.01939
1.01937
1.01937
1.01937
1.01937
1.01937
1.01936
1.01936
1.01936
1.01936
1.01936
1.01937
1.01937
1.01937
1.01936
1.01935
1.01935
1.01934
1.01933
1.01933
1.01933
1.01933
1.01932
1.0193
1.0193
1.01929
1.01929
1.01929
1.01929
1.01929
1.01929
1.01928
1.01928
1.01928
1.01928
1.01927
1.01927
1.01928
1.01928
1.01927
1.01925
1.01926
1.01925
1.01925
1.01923
1.01922
1.01919
1.01915
1.01907
1.01897
1.01881
1.01858
1.01823
1.01774
1.01705
1.01605
1.01466
1.01275
1.01018
1.0067
1.00214
0.996176
0.988565
0.978971
0.967137
0.952819
0.935904
0.916406
0.894575
0.870932
0.846398
0.822357
0.800589
0.783456
0.77267
0.767083
0.765727
0.765744
0.765821
0.765955
0.766096
0.766191
0.766244
0.766278
0.766308
0.766335
0.766355
0.766389
0.766469
0.766585
0.766673
0.76669
0.766678
0.766635
0.76655
0.766426
0.766302
0.76625
0.766252
0.766272
0.766323
0.766393
0.766446
0.766465
0.766464
0.766448
0.76641
0.766363
0.766345
0.766347
0.766359
0.76639
0.766435
0.766465
0.76647
0.766465
0.766446
0.766409
0.766363
0.766337
0.766334
0.766339
0.766354
0.766381
0.766408
0.76642
0.766419
0.766413
0.766394
0.766366
0.766345
0.766338
0.766338
0.766342
0.766356
0.766377
0.766392
0.766399
0.7664
0.766398
0.766392
0.766389
0.766393
0.766398
0.766408
0.766422
0.76644
0.766454
0.766458
0.766459
0.766461
0.766467
0.766479
0.766499
0.766529
0.766569
0.766611
0.766653
0.766686
0.766693
0.766693
0.766691
0.766684
0.766673
0.766661
0.766646
0.766632
0.766617
0.766601
0.766583
0.766566
0.766548
0.766531
0.766514
0.766498
0.766484
0.766477
0.766476
0.766476
0.766475
0.766474
0.766472
0.766467
0.766458
0.766446
0.766431
0.766419
0.766415
0.766414
0.766416
0.766419
0.766422
0.766424
0.766423
0.766422
0.766418
0.766412
0.766405
0.766399
0.766395
0.766395
0.766395
0.766395
0.766395
0.766394
0.76639
0.766384
0.766376
0.766365
0.766354
0.766343
0.766334
0.766328
0.766322
0.766316
0.766309
0.7663
0.766288
0.766275
0.766262
0.766252
0.766247
0.766246
0.766247
0.766248
0.766249
0.766251
0.766252
0.766252
0.766253
0.766254
0.766254
0.766255
0.766257
0.766259
0.766261
0.766261
0.766261
0.766261
0.766262
0.766261
0.76626
0.766256
0.766249
0.766236
0.766217
0.766202
0.766198
0.766203
0.766351
0.767382
0.770244
0.774883
0.780643
0.786988
0.793702
0.800599
0.807685
0.814856
0.822147
0.829472
0.836912
0.844362
0.851899
0.859446
0.867084
0.874715
0.882422
0.890135
0.897916
0.90568
0.913522
0.921353
0.92924
0.937089
0.945026
0.952897
0.960823
0.968641
0.97668
0.985348
1.0002
1.132
1.132
1.132
1.132
1.132
1.132
1.132
1.132
1.132
1.132
1.132
1.132
1.132
1.132
1.132
1.132
1.132
1.132
1.132
1.132
1.132
1.132
1.132
1.132
1.132
1.132
1.132
1.132
1.132
1.132
1.132
1.132
1.132
1.13187
1.12855
1.08516
1.02423
1.01902
1.01892
1.01891
1.0189
1.01889
1.01889
1.01892
1.01894
1.01893
1.01891
1.01889
1.01888
1.01889
1.01893
1.01896
1.01899
1.01903
1.01906
1.01908
1.0191
1.01911
1.01913
1.01912
1.0191
1.0191
1.0191
1.01911
1.01913
1.01916
1.01919
1.01919
1.01918
1.01917
1.01913
1.01908
1.01905
1.01903
1.01903
1.01903
1.01905
1.01907
1.01909
1.01908
1.01907
1.01905
1.01903
1.01899
1.01898
1.01898
1.019
1.01903
1.01907
1.01912
1.01914
1.01914
1.01914
1.01912
1.0191
1.01907
1.01906
1.01907
1.01908
1.01909
1.01911
1.01913
1.01913
1.01912
1.01912
1.01911
1.01909
1.01908
1.01908
1.01908
1.01908
1.01909
1.01911
1.01912
1.01912
1.01912
1.01912
1.0191
1.01908
1.01906
1.01905
1.01904
1.01904
1.01905
1.01906
1.01907
1.01907
1.01907
1.01907
1.01906
1.01906
1.01906
1.01907
1.01908
1.0191
1.01912
1.01912
1.01912
1.01912
1.01911
1.01911
1.0191
1.0191
1.01909
1.01909
1.01909
1.01908
1.01908
1.01907
1.01907
1.01907
1.01907
1.01908
1.01908
1.01908
1.01909
1.01909
1.01909
1.01909
1.01909
1.01909
1.01909
1.01909
1.01909
1.01909
1.01905
1.01899
1.01898
1.01905
1.01933
1.02001
1.02113
1.02262
1.02432
1.02612
1.0279
1.02961
1.03124
1.03265
1.03352
1.03378
1.03386
1.03388
1.03391
1.03395
1.03399
1.03394
1.03384
1.03372
1.03363
1.03358
1.03354
1.03349
1.03339
1.03316
1.03263
1.03161
1.03008
1.02841
1.02706
1.02611
1.0254
1.02481
1.02427
1.02378
1.02332
1.02291
1.02255
1.02224
1.02198
1.02177
1.0216
1.02148
1.02138
1.0213
1.02124
1.02119
1.02114
1.0211
1.02106
1.02102
1.02098
1.02093
1.02089
1.02084
1.0208
1.02075
1.02069
1.02064
1.02059
1.02055
1.02052
1.0205
1.02049
1.02049
1.02048
1.02047
1.02047
1.02046
1.02045
1.02044
1.02044
1.02043
1.02042
1.02041
1.02041
1.0204
1.02038
1.02037
1.02035
1.02032
1.0203
1.02028
1.02027
1.02026
1.02025
1.02024
1.02024
1.02023
1.02022
1.02022
1.02021
1.0202
1.02019
1.02019
1.02019
1.02018
1.02017
1.02016
1.02015
1.02014
1.02013
1.02011
1.02009
1.02008
1.02006
1.02004
1.02003
1.02001
1.01999
1.01997
1.01995
1.01994
1.01993
1.01992
1.01991
1.01989
1.01989
1.01988
1.01987
1.01987
1.01987
1.01986
1.01986
1.01986
1.01985
1.01984
1.01984
1.01983
1.01983
1.01982
1.01981
1.0198
1.01978
1.01977
1.01977
1.01977
1.01977
1.01978
1.01977
1.01977
1.01976
1.01975
1.01974
1.01974
1.01974
1.01973
1.01972
1.01971
1.0197
1.01969
1.01968
1.01968
1.01967
1.01967
1.01966
1.01965
1.01964
1.01963
1.01962
1.01962
1.01961
1.01961
1.01961
1.0196
1.0196
1.0196
1.0196
1.01959
1.01959
1.0196
1.01961
1.01962
1.01963
1.01963
1.01962
1.01962
1.01961
1.01961
1.01961
1.01962
1.01962
1.01962
1.01962
1.01962
1.01962
1.01962
1.01963
1.01963
1.01963
1.01963
1.01962
1.01962
1.01961
1.0196
1.0196
1.01959
1.01959
1.01958
1.01957
1.01957
1.01956
1.01956
1.01955
1.01955
1.01955
1.01954
1.01953
1.01952
1.01951
1.01951
1.0195
1.0195
1.01949
1.01949
1.01947
1.01945
1.01944
1.01943
1.01942
1.01941
1.0194
1.0194
1.01938
1.01937
1.01937
1.01937
1.01936
1.01936
1.01937
1.01939
1.01941
1.01942
1.01942
1.01942
1.01942
1.01942
1.01942
1.01943
1.01943
1.01942
1.01941
1.0194
1.01939
1.01937
1.01937
1.01937
1.01937
1.01937
1.01936
1.01936
1.01936
1.01936
1.01936
1.01937
1.01937
1.01937
1.01936
1.01935
1.01935
1.01934
1.01933
1.01933
1.01933
1.01933
1.01932
1.0193
1.0193
1.01929
1.01929
1.01929
1.01929
1.0193
1.01929
1.01928
1.01928
1.01928
1.01928
1.01927
1.01927
1.01928
1.01928
1.01927
1.01926
1.01926
1.01925
1.01925
1.01923
1.01922
1.0192
1.01915
1.01907
1.01897
1.01882
1.01858
1.01824
1.01775
1.01706
1.01608
1.01471
1.01282
1.01029
1.00685
1.00235
0.996456
0.988918
0.979396
0.967617
0.953328
0.93641
0.916872
0.894963
0.871219
0.846598
0.822515
0.800727
0.783561
0.772741
0.767135
0.765761
0.765774
0.765844
0.765972
0.766108
0.7662
0.76625
0.766282
0.76631
0.766335
0.766354
0.766387
0.766467
0.766582
0.76667
0.766687
0.766676
0.766633
0.766548
0.766424
0.766301
0.766249
0.766251
0.766271
0.766321
0.766392
0.766445
0.766464
0.766463
0.766447
0.766409
0.766362
0.766344
0.766346
0.766358
0.766389
0.766434
0.766464
0.766469
0.766464
0.766445
0.766408
0.766362
0.766336
0.766334
0.766338
0.766354
0.76638
0.766407
0.766419
0.766418
0.766411
0.766392
0.766364
0.766342
0.766334
0.766334
0.766339
0.766352
0.766373
0.76639
0.766398
0.766401
0.766401
0.766398
0.766398
0.766403
0.76641
0.766421
0.766436
0.766454
0.766468
0.76647
0.766468
0.766468
0.766472
0.766481
0.766499
0.766527
0.766565
0.766607
0.766649
0.766682
0.766689
0.76669
0.766687
0.766681
0.766672
0.76666
0.766646
0.766632
0.766618
0.766602
0.766585
0.766567
0.766549
0.766532
0.766515
0.766499
0.766485
0.766478
0.766476
0.766476
0.766476
0.766474
0.766472
0.766467
0.766458
0.766446
0.766431
0.766419
0.766414
0.766414
0.766416
0.766419
0.766422
0.766423
0.766423
0.766422
0.766418
0.766412
0.766405
0.766399
0.766395
0.766395
0.766395
0.766395
0.766395
0.766394
0.76639
0.766384
0.766376
0.766365
0.766354
0.766343
0.766334
0.766328
0.766322
0.766316
0.766309
0.7663
0.766288
0.766275
0.766262
0.766252
0.766247
0.766246
0.766247
0.766248
0.766249
0.766251
0.766252
0.766252
0.766253
0.766254
0.766254
0.766255
0.766257
0.766259
0.766261
0.766261
0.766261
0.766261
0.766262
0.766262
0.76626
0.766256
0.766249
0.766236
0.766217
0.766202
0.766198
0.766203
0.766351
0.767382
0.770244
0.774882
0.780644
0.786987
0.793702
0.800598
0.807685
0.814855
0.822148
0.829471
0.836913
0.844362
0.851899
0.859445
0.867084
0.874715
0.882421
0.890136
0.897917
0.905681
0.913523
0.921355
0.929241
0.937089
0.945026
0.9529
0.960824
0.968645
0.976701
0.985388
1.00014
1.132
1.132
1.132
1.132
1.132
1.132
1.132
1.132
1.132
1.132
1.132
1.132
1.132
1.132
1.132
1.132
1.132
1.132
1.132
1.132
1.132
1.132
1.132
1.132
1.132
1.132
1.132
1.132
1.132
1.132
1.132
1.132
1.132
1.13187
1.12855
1.08516
1.02423
1.01902
1.01892
1.01891
1.0189
1.01889
1.01889
1.01892
1.01894
1.01893
1.01891
1.01889
1.01888
1.01889
1.01893
1.01896
1.01899
1.01903
1.01906
1.01908
1.0191
1.01911
1.01913
1.01912
1.0191
1.0191
1.0191
1.01911
1.01913
1.01916
1.01919
1.01919
1.01918
1.01917
1.01913
1.01908
1.01905
1.01903
1.01903
1.01903
1.01905
1.01907
1.01909
1.01908
1.01907
1.01905
1.01903
1.01899
1.01898
1.01898
1.019
1.01903
1.01907
1.01912
1.01914
1.01914
1.01914
1.01912
1.0191
1.01907
1.01906
1.01907
1.01908
1.01909
1.01911
1.01913
1.01913
1.01912
1.01912
1.01911
1.01909
1.01908
1.01908
1.01908
1.01908
1.01909
1.01911
1.01912
1.01912
1.01912
1.01912
1.0191
1.01908
1.01906
1.01905
1.01904
1.01904
1.01905
1.01906
1.01907
1.01907
1.01907
1.01907
1.01906
1.01906
1.01906
1.01907
1.01908
1.0191
1.01912
1.01912
1.01912
1.01912
1.01911
1.01911
1.0191
1.0191
1.01909
1.01909
1.01909
1.01908
1.01908
1.01907
1.01907
1.01907
1.01907
1.01908
1.01908
1.01908
1.01909
1.01909
1.01909
1.01909
1.01909
1.01909
1.01909
1.01909
1.01909
1.01909
1.01905
1.01899
1.01898
1.01905
1.01933
1.02001
1.02113
1.02262
1.02432
1.02612
1.0279
1.02961
1.03124
1.03266
1.03352
1.03378
1.03385
1.03387
1.03391
1.03396
1.03401
1.03396
1.03384
1.03371
1.03363
1.03358
1.03354
1.03349
1.03339
1.03316
1.03263
1.03161
1.03008
1.02841
1.02706
1.02611
1.0254
1.02481
1.02427
1.02378
1.02332
1.02291
1.02255
1.02224
1.02198
1.02177
1.0216
1.02147
1.02138
1.0213
1.02124
1.02119
1.02114
1.0211
1.02106
1.02102
1.02098
1.02093
1.02089
1.02084
1.0208
1.02075
1.02069
1.02064
1.02059
1.02055
1.02052
1.0205
1.02049
1.02049
1.02048
1.02047
1.02047
1.02046
1.02045
1.02044
1.02044
1.02043
1.02042
1.02041
1.02041
1.0204
1.02038
1.02037
1.02035
1.02032
1.0203
1.02028
1.02027
1.02026
1.02025
1.02024
1.02024
1.02023
1.02022
1.02022
1.02021
1.0202
1.02019
1.02019
1.02019
1.02018
1.02017
1.02016
1.02015
1.02014
1.02013
1.02011
1.02009
1.02008
1.02006
1.02004
1.02003
1.02001
1.01999
1.01997
1.01995
1.01994
1.01993
1.01992
1.01991
1.01989
1.01989
1.01988
1.01987
1.01987
1.01987
1.01986
1.01986
1.01986
1.01985
1.01984
1.01984
1.01983
1.01983
1.01982
1.01981
1.0198
1.01978
1.01977
1.01977
1.01977
1.01977
1.01978
1.01977
1.01977
1.01976
1.01975
1.01974
1.01974
1.01974
1.01973
1.01972
1.01971
1.0197
1.01969
1.01968
1.01968
1.01967
1.01967
1.01966
1.01965
1.01964
1.01963
1.01962
1.01962
1.01961
1.01961
1.01961
1.0196
1.0196
1.0196
1.0196
1.01959
1.01959
1.0196
1.01961
1.01962
1.01963
1.01963
1.01962
1.01962
1.01961
1.01961
1.01961
1.01962
1.01962
1.01962
1.01962
1.01962
1.01962
1.01962
1.01963
1.01963
1.01963
1.01963
1.01962
1.01962
1.01961
1.0196
1.0196
1.01959
1.01959
1.01958
1.01957
1.01957
1.01956
1.01956
1.01955
1.01955
1.01955
1.01954
1.01953
1.01952
1.01952
1.01951
1.0195
1.0195
1.01949
1.01949
1.01947
1.01946
1.01944
1.01943
1.01942
1.01941
1.0194
1.0194
1.01938
1.01937
1.01937
1.01937
1.01936
1.01936
1.01937
1.01939
1.01941
1.01942
1.01942
1.01942
1.01942
1.01942
1.01942
1.01943
1.01943
1.01942
1.01941
1.0194
1.01939
1.01937
1.01937
1.01937
1.01937
1.01937
1.01936
1.01936
1.01936
1.01936
1.01936
1.01937
1.01937
1.01937
1.01936
1.01935
1.01935
1.01934
1.01933
1.01933
1.01933
1.01933
1.01932
1.0193
1.0193
1.01929
1.01929
1.01929
1.0193
1.0193
1.01929
1.01928
1.01928
1.01928
1.01928
1.01927
1.01927
1.01928
1.01927
1.01927
1.01926
1.01926
1.01926
1.01925
1.01923
1.01922
1.0192
1.01915
1.01907
1.01897
1.01882
1.01859
1.01825
1.01776
1.01708
1.0161
1.01475
1.01288
1.01037
1.00698
1.00252
0.996679
0.989193
0.979729
0.967977
0.953677
0.936714
0.917099
0.895091
0.871259
0.846608
0.822558
0.800798
0.78363
0.772794
0.767179
0.76579
0.765799
0.765864
0.765987
0.766119
0.766208
0.766256
0.766286
0.766312
0.766335
0.766352
0.766384
0.766463
0.766579
0.766667
0.766684
0.766673
0.76663
0.766546
0.766422
0.766298
0.766246
0.766249
0.766269
0.766319
0.76639
0.766443
0.766462
0.766461
0.766446
0.766407
0.766361
0.766343
0.766345
0.766357
0.766387
0.766433
0.766463
0.766467
0.766463
0.766443
0.766407
0.766361
0.766335
0.766333
0.766337
0.766353
0.766379
0.766406
0.766417
0.766416
0.766409
0.766389
0.76636
0.766337
0.766329
0.766328
0.766333
0.766347
0.766368
0.766387
0.766397
0.766402
0.766405
0.766406
0.76641
0.766418
0.766428
0.766441
0.766458
0.766475
0.766489
0.766489
0.766484
0.76648
0.76648
0.766485
0.766499
0.766525
0.766562
0.766603
0.766645
0.766678
0.766685
0.766686
0.766684
0.766678
0.766669
0.766658
0.766646
0.766632
0.766618
0.766603
0.766586
0.766568
0.76655
0.766533
0.766517
0.7665
0.766486
0.766479
0.766477
0.766477
0.766476
0.766475
0.766472
0.766466
0.766458
0.766446
0.766431
0.766419
0.766414
0.766414
0.766416
0.766419
0.766422
0.766423
0.766423
0.766422
0.766418
0.766412
0.766405
0.766399
0.766395
0.766395
0.766395
0.766395
0.766395
0.766394
0.76639
0.766384
0.766376
0.766365
0.766354
0.766343
0.766334
0.766328
0.766322
0.766316
0.766309
0.7663
0.766288
0.766275
0.766262
0.766252
0.766247
0.766246
0.766247
0.766248
0.766249
0.766251
0.766252
0.766252
0.766253
0.766254
0.766254
0.766255
0.766257
0.766259
0.766261
0.766261
0.766261
0.766261
0.766262
0.766262
0.76626
0.766256
0.766249
0.766236
0.766217
0.766202
0.766198
0.766203
0.766351
0.767382
0.770244
0.774882
0.780644
0.786987
0.793703
0.800597
0.807685
0.814855
0.822149
0.829471
0.836914
0.844363
0.851899
0.859445
0.867084
0.874715
0.882421
0.890137
0.897918
0.905681
0.913523
0.921357
0.929242
0.937088
0.945026
0.952903
0.960824
0.96865
0.976722
0.985425
1.00007
1.132
1.132
1.132
1.132
1.132
1.132
1.132
1.132
1.132
1.132
1.132
1.132
1.132
1.132
1.132
1.132
1.132
1.132
1.132
1.132
1.132
1.132
1.132
1.132
1.132
1.132
1.132
1.132
1.132
1.132
1.132
1.132
1.132
1.13187
1.12855
1.08516
1.02423
1.01902
1.01892
1.01891
1.0189
1.01889
1.01889
1.01892
1.01894
1.01893
1.01891
1.01889
1.01888
1.01889
1.01893
1.01896
1.01899
1.01903
1.01906
1.01908
1.0191
1.01911
1.01913
1.01912
1.0191
1.0191
1.0191
1.01911
1.01913
1.01916
1.01919
1.01919
1.01918
1.01917
1.01913
1.01908
1.01905
1.01903
1.01903
1.01903
1.01905
1.01907
1.01909
1.01908
1.01907
1.01905
1.01903
1.01899
1.01898
1.01898
1.019
1.01903
1.01907
1.01912
1.01914
1.01914
1.01914
1.01912
1.0191
1.01907
1.01906
1.01907
1.01908
1.01909
1.01911
1.01913
1.01913
1.01912
1.01912
1.01911
1.01909
1.01908
1.01908
1.01908
1.01908
1.01909