/*--------------------------------*- C++ -*----------------------------------*\
| =========                 |                                                 |
| \\      /  F ield         | OpenFOAM: The Open Source CFD Toolbox           |
|  \\    /   O peration     | Version:  2406                                  |
|   \\  /    A nd           | Website:  www.openfoam.com                      |
|    \\/     M anipulation  |                                                 |
\*---------------------------------------------------------------------------*/
FoamFile
{
    version     2.0;
    format      ascii;
    arch        "LSB;label=32;scalar=64";
    class       volScalarField;
    location    "0.065";
    object      rho;
}
// * * * * * * * * * * * * * * * * * * * * * * * * * * * * * * * * * * * * * //

dimensions      [1 -3 0 0 0 0 0];

internalField   nonuniform List<scalar> 
83682
(
4.32005
4.32005
4.32005
4.32005
4.32005
4.32005
4.32005
4.32005
4.32005
4.32005
4.32005
4.32005
4.32005
4.32005
4.32005
4.32005
4.32005
4.32005
4.32005
4.32005
4.32005
4.32005
4.32005
4.32005
4.32005
4.32005
4.32005
4.32005
4.32005
4.32005
4.32005
4.32005
4.32007
4.32052
4.33224
4.4882
4.72086
4.74053
4.74005
4.73996
4.74006
4.74024
4.74054
4.74107
4.74151
4.74162
4.74149
4.74115
4.74062
4.74028
4.74014
4.74011
4.7401
4.74018
4.74033
4.7404
4.74034
4.74022
4.74005
4.73979
4.73946
4.73934
4.73937
4.73948
4.73968
4.74003
4.74035
4.74043
4.74039
4.74029
4.74011
4.73981
4.73961
4.7396
4.73969
4.73982
4.74001
4.74029
4.74048
4.74052
4.74049
4.74043
4.74028
4.74001
4.73986
4.73983
4.73986
4.73994
4.74013
4.74043
4.74059
4.7406
4.74054
4.74041
4.74019
4.73987
4.73968
4.73964
4.73965
4.73972
4.73989
4.74012
4.74021
4.74022
4.74018
4.74009
4.73993
4.73978
4.73974
4.73978
4.73987
4.74001
4.74021
4.74036
4.74039
4.74037
4.74031
4.74021
4.74009
4.73998
4.73996
4.73998
4.74001
4.74006
4.74011
4.74011
4.74009
4.74006
4.74002
4.73998
4.73997
4.73997
4.73999
4.74003
4.74008
4.74014
4.74018
4.74018
4.74017
4.74015
4.74011
4.74006
4.74
4.73994
4.73992
4.73992
4.73992
4.73994
4.73996
4.73996
4.73994
4.73993
4.73993
4.73994
4.73997
4.74003
4.74009
4.74014
4.74018
4.74019
4.74017
4.74013
4.74009
4.74006
4.74008
4.74021
4.74049
4.74054
4.74027
4.73912
4.73642
4.73194
4.72606
4.71932
4.71228
4.70531
4.6987
4.69251
4.68717
4.68385
4.6827
4.68242
4.68238
4.68227
4.68217
4.68207
4.68226
4.68246
4.68281
4.68317
4.6834
4.68356
4.68374
4.68411
4.68501
4.68703
4.69095
4.69687
4.70336
4.70865
4.71242
4.71526
4.71766
4.71982
4.72179
4.72358
4.72517
4.72658
4.72779
4.72879
4.7296
4.73024
4.73074
4.73111
4.73138
4.73157
4.73174
4.73189
4.73205
4.73221
4.73238
4.73256
4.73277
4.73298
4.7332
4.73342
4.73364
4.73385
4.73406
4.73426
4.73444
4.73457
4.73465
4.7347
4.73473
4.73475
4.73475
4.73474
4.73473
4.73471
4.7347
4.73472
4.73475
4.7348
4.73487
4.73494
4.73503
4.73513
4.73524
4.73532
4.73541
4.73548
4.73554
4.73557
4.7356
4.73562
4.73561
4.7356
4.73559
4.73559
4.7356
4.73561
4.73562
4.73564
4.73565
4.73567
4.73571
4.73577
4.73585
4.73593
4.73603
4.73613
4.73621
4.73627
4.73633
4.73639
4.73645
4.7365
4.73654
4.73656
4.73658
4.73659
4.73659
4.73663
4.73668
4.73674
4.73679
4.73684
4.73688
4.73693
4.73697
4.73702
4.73708
4.73714
4.73718
4.73723
4.73727
4.7373
4.73732
4.73733
4.73734
4.73734
4.73734
4.73732
4.73729
4.73727
4.73725
4.73724
4.73725
4.73728
4.73733
4.7374
4.73747
4.73754
4.7376
4.73764
4.73767
4.73771
4.73775
4.7378
4.73783
4.73786
4.73788
4.73788
4.73786
4.73785
4.73785
4.73786
4.73785
4.73784
4.73785
4.73786
4.73788
4.73791
4.73796
4.73802
4.73808
4.73813
4.73817
4.73818
4.73816
4.73811
4.73806
4.73802
4.738
4.73798
4.73797
4.73795
4.73791
4.73786
4.73783
4.73783
4.73783
4.73785
4.73786
4.73789
4.73792
4.73793
4.73794
4.73797
4.73801
4.73804
4.73806
4.73808
4.73812
4.73813
4.73814
4.73814
4.73814
4.73813
4.73811
4.7381
4.7381
4.73811
4.73812
4.73813
4.73817
4.73823
4.73827
4.73832
4.73838
4.73845
4.7385
4.73852
4.73854
4.7386
4.73866
4.7387
4.73872
4.73874
4.73875
4.73875
4.73874
4.73877
4.7388
4.73882
4.73884
4.73886
4.73887
4.73884
4.73876
4.73872
4.73874
4.73877
4.73878
4.73878
4.73879
4.73878
4.73874
4.73872
4.73873
4.73874
4.73875
4.73874
4.73875
4.73876
4.73874
4.73874
4.73875
4.7388
4.73881
4.73883
4.73884
4.73888
4.73891
4.73893
4.73895
4.73899
4.73901
4.73904
4.73905
4.73907
4.73907
4.73903
4.73897
4.73896
4.73899
4.73897
4.73898
4.73897
4.739
4.739
4.739
4.73903
4.73911
4.73914
4.73917
4.73919
4.73922
4.73921
4.73918
4.73918
4.73921
4.73923
4.73916
4.73911
4.739
4.73888
4.73862
4.73829
4.73784
4.7372
4.73616
4.73463
4.73236
4.72904
4.72422
4.7173
4.70757
4.69403
4.67548
4.65029
4.61686
4.57297
4.5166
4.44529
4.35706
4.25007
4.12338
3.97705
3.81271
3.63385
3.44606
3.25731
3.07802
2.92025
2.79865
2.72272
2.68656
2.67778
2.67721
2.67751
2.67812
2.6788
2.67944
2.68005
2.6807
2.68137
2.68196
2.68239
2.68267
2.68298
2.68337
2.68362
2.68361
2.68349
2.68325
2.68287
2.68237
2.68189
2.68167
2.68164
2.68168
2.68184
2.68208
2.68227
2.68235
2.68238
2.68236
2.68226
2.68213
2.68208
2.68209
2.68213
2.68221
2.68233
2.68241
2.6824
2.68237
2.68229
2.68216
2.68201
2.68193
2.68192
2.68194
2.682
2.6821
2.68221
2.68226
2.68227
2.68226
2.68221
2.68213
2.68206
2.68203
2.68203
2.68203
2.68206
2.68211
2.68214
2.68213
2.68212
2.68208
2.68204
2.68201
2.682
2.68201
2.68204
2.6821
2.68219
2.68228
2.68236
2.68246
2.68258
2.68274
2.68294
2.68319
2.68349
2.68381
2.68413
2.6844
2.68457
2.68461
2.68461
2.68458
2.68453
2.68446
2.68437
2.68427
2.68414
2.684
2.68384
2.68369
2.68354
2.6834
2.68329
2.68321
2.68313
2.68308
2.68305
2.68303
2.68302
2.68301
2.68299
2.68297
2.68293
2.68289
2.68284
2.68278
2.68273
2.68271
2.6827
2.6827
2.6827
2.68271
2.68271
2.6827
2.68268
2.68266
2.68263
2.6826
2.68257
2.68255
2.68254
2.68253
2.68253
2.68252
2.68252
2.6825
2.68248
2.68246
2.68242
2.68239
2.68235
2.68232
2.6823
2.68228
2.68226
2.68223
2.6822
2.68216
2.68211
2.68206
2.68202
2.682
2.68199
2.68199
2.68199
2.68199
2.682
2.682
2.682
2.68201
2.68201
2.68201
2.68201
2.68202
2.68203
2.68203
2.68203
2.68203
2.68202
2.68201
2.682
2.68198
2.68197
2.68198
2.68201
2.68205
2.68209
2.68211
2.68211
2.68177
2.67939
2.67276
2.66206
2.64883
2.63436
2.61914
2.60362
2.5878
2.57192
2.55587
2.53987
2.52375
2.50771
2.4916
2.4756
2.45953
2.4436
2.42762
2.41178
2.39591
2.3802
2.36446
2.34888
2.33328
2.31788
2.30245
2.28726
2.27208
2.25722
2.24209
2.2261
2.19826
4.32005
4.32005
4.32005
4.32005
4.32005
4.32005
4.32005
4.32005
4.32005
4.32005
4.32005
4.32005
4.32005
4.32005
4.32005
4.32005
4.32005
4.32005
4.32005
4.32005
4.32005
4.32005
4.32005
4.32005
4.32005
4.32005
4.32005
4.32005
4.32005
4.32005
4.32005
4.32005
4.32007
4.32052
4.33224
4.4882
4.72086
4.74053
4.74005
4.73996
4.74006
4.74024
4.74054
4.74107
4.74151
4.74162
4.74149
4.74115
4.74062
4.74028
4.74014
4.74011
4.7401
4.74018
4.74033
4.7404
4.74034
4.74022
4.74005
4.73979
4.73946
4.73934
4.73937
4.73948
4.73968
4.74003
4.74035
4.74043
4.74039
4.74029
4.74011
4.73981
4.73961
4.7396
4.73969
4.73982
4.74001
4.74029
4.74048
4.74052
4.74049
4.74043
4.74028
4.74001
4.73986
4.73983
4.73986
4.73994
4.74013
4.74043
4.74059
4.7406
4.74054
4.74041
4.74019
4.73987
4.73968
4.73964
4.73965
4.73972
4.73989
4.74012
4.74021
4.74022
4.74018
4.74009
4.73993
4.73978
4.73974
4.73978
4.73987
4.74001
4.74021
4.74036
4.74039
4.74037
4.74031
4.74021
4.74009
4.73998
4.73996
4.73998
4.74001
4.74006
4.74011
4.74011
4.74009
4.74006
4.74002
4.73998
4.73997
4.73997
4.73999
4.74003
4.74008
4.74014
4.74018
4.74018
4.74017
4.74015
4.74011
4.74006
4.74
4.73994
4.73992
4.73992
4.73992
4.73994
4.73996
4.73996
4.73994
4.73993
4.73993
4.73994
4.73997
4.74003
4.74009
4.74014
4.74018
4.74019
4.74017
4.74013
4.74009
4.74006
4.74008
4.74021
4.74049
4.74054
4.74027
4.73912
4.73642
4.73194
4.72606
4.71932
4.71228
4.70532
4.69871
4.69249
4.68712
4.68383
4.68274
4.68247
4.68242
4.6823
4.68216
4.68201
4.68218
4.68246
4.68282
4.68318
4.68341
4.68356
4.68375
4.68412
4.68501
4.68704
4.69096
4.69687
4.70336
4.70866
4.71242
4.71527
4.71766
4.71982
4.72179
4.72358
4.72517
4.72658
4.72779
4.72879
4.7296
4.73024
4.73074
4.73111
4.73138
4.73157
4.73174
4.73189
4.73205
4.73221
4.73238
4.73256
4.73277
4.73298
4.7332
4.73342
4.73364
4.73385
4.73406
4.73426
4.73444
4.73457
4.73465
4.7347
4.73473
4.73475
4.73475
4.73474
4.73473
4.73471
4.7347
4.73472
4.73475
4.7348
4.73487
4.73494
4.73503
4.73513
4.73524
4.73532
4.73541
4.73548
4.73554
4.73557
4.7356
4.73562
4.73561
4.7356
4.73559
4.73559
4.7356
4.73561
4.73562
4.73564
4.73565
4.73567
4.73571
4.73577
4.73585
4.73593
4.73603
4.73613
4.73621
4.73627
4.73633
4.73639
4.73645
4.7365
4.73654
4.73656
4.73658
4.73659
4.73659
4.73663
4.73668
4.73674
4.73679
4.73684
4.73688
4.73693
4.73697
4.73702
4.73708
4.73714
4.73718
4.73723
4.73727
4.7373
4.73732
4.73733
4.73734
4.73734
4.73734
4.73732
4.73729
4.73727
4.73725
4.73724
4.73725
4.73728
4.73733
4.7374
4.73747
4.73755
4.7376
4.73764
4.73767
4.73771
4.73775
4.7378
4.73783
4.73786
4.73788
4.73788
4.73786
4.73785
4.73785
4.73786
4.73785
4.73784
4.73785
4.73786
4.73788
4.73791
4.73796
4.73802
4.73808
4.73813
4.73817
4.73818
4.73816
4.73811
4.73806
4.73802
4.738
4.73798
4.73797
4.73795
4.73791
4.73786
4.73783
4.73783
4.73783
4.73785
4.73786
4.73789
4.73792
4.73793
4.73794
4.73797
4.73801
4.73804
4.73806
4.73808
4.73812
4.73813
4.73814
4.73814
4.73814
4.73813
4.73811
4.7381
4.7381
4.73811
4.73812
4.73813
4.73817
4.73823
4.73827
4.73832
4.73838
4.73845
4.7385
4.73852
4.73854
4.7386
4.73866
4.7387
4.73872
4.73874
4.73875
4.73875
4.73874
4.73877
4.7388
4.73882
4.73884
4.73886
4.73887
4.73884
4.73876
4.73872
4.73874
4.73877
4.73878
4.73878
4.73879
4.73878
4.73875
4.73872
4.73873
4.73874
4.73875
4.73874
4.73875
4.73876
4.73874
4.73874
4.73875
4.7388
4.73881
4.73883
4.73884
4.73888
4.73891
4.73893
4.73895
4.73899
4.73901
4.73904
4.73905
4.73908
4.73907
4.73903
4.73898
4.73896
4.73898
4.73897
4.73898
4.73898
4.73901
4.739
4.739
4.73903
4.73911
4.73914
4.73917
4.73919
4.73922
4.73921
4.73919
4.73919
4.73921
4.73923
4.73917
4.73911
4.739
4.73887
4.73862
4.73829
4.73785
4.7372
4.73617
4.73463
4.73236
4.72904
4.72422
4.7173
4.70758
4.69405
4.67551
4.65032
4.61692
4.57308
4.51675
4.44551
4.35738
4.25052
4.12396
3.97775
3.81349
3.63465
3.44683
3.25797
3.07851
2.92058
2.79883
2.72281
2.68664
2.67779
2.67722
2.67751
2.67811
2.67879
2.67943
2.68005
2.6807
2.68137
2.68196
2.68239
2.68267
2.68298
2.68337
2.68362
2.68361
2.68349
2.68325
2.68287
2.68237
2.68189
2.68167
2.68164
2.68168
2.68184
2.68208
2.68227
2.68235
2.68238
2.68236
2.68226
2.68213
2.68208
2.68209
2.68213
2.68221
2.68233
2.68241
2.6824
2.68237
2.68229
2.68216
2.68201
2.68193
2.68192
2.68194
2.682
2.6821
2.68221
2.68226
2.68227
2.68226
2.68221
2.68213
2.68206
2.68203
2.68203
2.68203
2.68206
2.68211
2.68214
2.68213
2.68212
2.68208
2.68204
2.68201
2.682
2.68201
2.68204
2.6821
2.68219
2.68228
2.68236
2.68246
2.68258
2.68274
2.68294
2.68319
2.68349
2.68382
2.68413
2.6844
2.68457
2.68461
2.68461
2.68458
2.68453
2.68447
2.68438
2.68427
2.68414
2.684
2.68384
2.68369
2.68354
2.6834
2.68329
2.68321
2.68313
2.68308
2.68305
2.68303
2.68302
2.68301
2.68299
2.68297
2.68293
2.68289
2.68284
2.68278
2.68273
2.68271
2.6827
2.6827
2.6827
2.68271
2.68271
2.6827
2.68268
2.68266
2.68263
2.6826
2.68257
2.68255
2.68254
2.68253
2.68253
2.68252
2.68252
2.6825
2.68248
2.68246
2.68242
2.68239
2.68235
2.68232
2.6823
2.68228
2.68226
2.68223
2.6822
2.68216
2.68211
2.68206
2.68202
2.682
2.68199
2.68199
2.68199
2.68199
2.682
2.682
2.682
2.68201
2.68201
2.68201
2.68201
2.68202
2.68203
2.68203
2.68203
2.68203
2.68202
2.68201
2.682
2.68198
2.68197
2.68198
2.68201
2.68205
2.68209
2.68211
2.68211
2.68177
2.67939
2.67276
2.66206
2.64883
2.63436
2.61914
2.60363
2.5878
2.57192
2.55587
2.53987
2.52375
2.50771
2.4916
2.4756
2.45953
2.4436
2.42762
2.41179
2.3959
2.3802
2.36446
2.34888
2.33328
2.31788
2.30245
2.28726
2.27207
2.25722
2.24207
2.22605
2.1983
4.32005
4.32005
4.32005
4.32005
4.32005
4.32005
4.32005
4.32005
4.32005
4.32005
4.32005
4.32005
4.32005
4.32005
4.32005
4.32005
4.32005
4.32005
4.32005
4.32005
4.32005
4.32005
4.32005
4.32005
4.32005
4.32005
4.32005
4.32005
4.32005
4.32005
4.32005
4.32005
4.32007
4.32052
4.33224
4.4882
4.72086
4.74053
4.74005
4.73996
4.74006
4.74024
4.74054
4.74107
4.74151
4.74162
4.74149
4.74115
4.74062
4.74028
4.74014
4.74011
4.7401
4.74018
4.74033
4.7404
4.74034
4.74022
4.74005
4.73979
4.73946
4.73934
4.73937
4.73948
4.73968
4.74003
4.74035
4.74043
4.74039
4.74029
4.74011
4.73981
4.73961
4.7396
4.73969
4.73982
4.74001
4.74029
4.74048
4.74052
4.74049
4.74043
4.74028
4.74001
4.73986
4.73983
4.73986
4.73994
4.74013
4.74043
4.74059
4.7406
4.74054
4.74041
4.74019
4.73987
4.73968
4.73964
4.73965
4.73972
4.73989
4.74012
4.74021
4.74022
4.74018
4.74009
4.73993
4.73978
4.73974
4.73978
4.73987
4.74001
4.74021
4.74036
4.74039
4.74037
4.74031
4.74021
4.74009
4.73998
4.73996
4.73998
4.74001
4.74006
4.74011
4.74011
4.74009
4.74006
4.74002
4.73998
4.73997
4.73997
4.73999
4.74003
4.74008
4.74014
4.74018
4.74018
4.74017
4.74015
4.74011
4.74006
4.74
4.73994
4.73992
4.73992
4.73992
4.73994
4.73996
4.73996
4.73994
4.73993
4.73993
4.73994
4.73997
4.74003
4.74009
4.74014
4.74018
4.74019
4.74017
4.74013
4.74009
4.74006
4.74008
4.74021
4.74049
4.74054
4.74027
4.73912
4.73642
4.73194
4.72606
4.71933
4.71228
4.70532
4.69871
4.69246
4.68707
4.68382
4.68278
4.68252
4.68247
4.68232
4.68215
4.68196
4.68212
4.68245
4.68284
4.68318
4.6834
4.68356
4.68375
4.68413
4.68502
4.68704
4.69096
4.69687
4.70336
4.70866
4.71243
4.71527
4.71767
4.71983
4.72179
4.72358
4.72517
4.72658
4.72779
4.72879
4.7296
4.73025
4.73074
4.73111
4.73138
4.73157
4.73174
4.73189
4.73205
4.73221
4.73238
4.73256
4.73277
4.73298
4.7332
4.73342
4.73364
4.73385
4.73406
4.73426
4.73444
4.73457
4.73465
4.7347
4.73473
4.73475
4.73475
4.73474
4.73473
4.73471
4.7347
4.73472
4.73475
4.73481
4.73487
4.73494
4.73503
4.73513
4.73524
4.73532
4.73541
4.73548
4.73554
4.73557
4.7356
4.73562
4.73561
4.7356
4.73559
4.73559
4.7356
4.73561
4.73562
4.73564
4.73565
4.73567
4.73571
4.73577
4.73585
4.73593
4.73603
4.73613
4.73621
4.73627
4.73633
4.73639
4.73645
4.7365
4.73654
4.73656
4.73658
4.73659
4.73659
4.73663
4.73668
4.73674
4.73679
4.73684
4.73688
4.73693
4.73697
4.73702
4.73708
4.73714
4.73718
4.73723
4.73727
4.7373
4.73732
4.73733
4.73734
4.73734
4.73734
4.73732
4.73729
4.73727
4.73725
4.73724
4.73725
4.73728
4.73733
4.7374
4.73747
4.73755
4.7376
4.73764
4.73767
4.73771
4.73775
4.7378
4.73783
4.73786
4.73788
4.73788
4.73786
4.73785
4.73785
4.73786
4.73785
4.73784
4.73785
4.73786
4.73788
4.73791
4.73796
4.73802
4.73808
4.73813
4.73817
4.73818
4.73816
4.73811
4.73806
4.73802
4.738
4.73798
4.73797
4.73795
4.73791
4.73786
4.73783
4.73783
4.73783
4.73785
4.73786
4.73789
4.73792
4.73793
4.73794
4.73797
4.73801
4.73804
4.73806
4.73808
4.73812
4.73813
4.73814
4.73814
4.73814
4.73813
4.73811
4.7381
4.7381
4.73811
4.73812
4.73813
4.73817
4.73823
4.73827
4.73832
4.73838
4.73845
4.7385
4.73852
4.73855
4.7386
4.73866
4.7387
4.73872
4.73874
4.73875
4.73875
4.73874
4.73877
4.7388
4.73882
4.73884
4.73886
4.73887
4.73884
4.73876
4.73872
4.73874
4.73877
4.73878
4.73878
4.73879
4.73878
4.73875
4.73872
4.73873
4.73874
4.73874
4.73874
4.73875
4.73876
4.73874
4.73874
4.73875
4.73879
4.73881
4.73883
4.73884
4.73888
4.73891
4.73893
4.73895
4.73899
4.73901
4.73904
4.73906
4.73908
4.73907
4.73903
4.73898
4.73896
4.73898
4.73897
4.73898
4.73899
4.73901
4.73899
4.73899
4.73903
4.7391
4.73914
4.73917
4.73919
4.73922
4.73922
4.73919
4.73919
4.73921
4.73923
4.73916
4.73911
4.73899
4.73887
4.73862
4.7383
4.73786
4.73721
4.73617
4.73462
4.73235
4.72904
4.72423
4.71732
4.70762
4.69411
4.67559
4.65045
4.61714
4.57343
4.51727
4.44628
4.35842
4.25186
4.12559
3.97958
3.81544
3.63659
3.44859
3.2594
3.07956
2.92123
2.79913
2.72289
2.68665
2.67778
2.67721
2.67751
2.67811
2.67879
2.67943
2.68005
2.6807
2.68137
2.68196
2.68239
2.68267
2.68298
2.68337
2.68362
2.68361
2.68349
2.68325
2.68287
2.68237
2.68189
2.68167
2.68164
2.68168
2.68184
2.68208
2.68227
2.68235
2.68238
2.68236
2.68226
2.68213
2.68208
2.68209
2.68213
2.68221
2.68233
2.68241
2.6824
2.68237
2.68229
2.68216
2.68201
2.68193
2.68192
2.68194
2.682
2.6821
2.68221
2.68226
2.68227
2.68226
2.68221
2.68213
2.68206
2.68203
2.68203
2.68203
2.68206
2.68211
2.68214
2.68214
2.68212
2.68208
2.68204
2.68201
2.682
2.68201
2.68204
2.6821
2.68219
2.68228
2.68236
2.68246
2.68258
2.68274
2.68294
2.68319
2.68349
2.68382
2.68413
2.6844
2.68457
2.68461
2.68461
2.68458
2.68453
2.68447
2.68438
2.68427
2.68414
2.684
2.68384
2.68369
2.68353
2.6834
2.68329
2.68321
2.68313
2.68308
2.68305
2.68304
2.68302
2.68301
2.68299
2.68297
2.68293
2.68289
2.68284
2.68278
2.68273
2.68271
2.6827
2.6827
2.6827
2.68271
2.68271
2.6827
2.68268
2.68266
2.68263
2.6826
2.68257
2.68255
2.68254
2.68253
2.68253
2.68252
2.68252
2.6825
2.68248
2.68246
2.68242
2.68239
2.68235
2.68232
2.6823
2.68228
2.68226
2.68223
2.6822
2.68216
2.68211
2.68206
2.68202
2.682
2.68199
2.68199
2.68199
2.68199
2.682
2.682
2.682
2.68201
2.68201
2.68201
2.68201
2.68202
2.68202
2.68203
2.68203
2.68203
2.68202
2.68201
2.682
2.68198
2.68197
2.68198
2.68201
2.68205
2.68209
2.68211
2.68211
2.68177
2.67939
2.67276
2.66206
2.64883
2.63436
2.61914
2.60363
2.5878
2.57192
2.55587
2.53987
2.52374
2.50771
2.4916
2.4756
2.45952
2.4436
2.42762
2.41179
2.3959
2.3802
2.36445
2.34888
2.33327
2.31788
2.30245
2.28726
2.27207
2.25722
2.24203
2.22599
2.19839
4.32005
4.32005
4.32005
4.32005
4.32005
4.32005
4.32005
4.32005
4.32005
4.32005
4.32005
4.32005
4.32005
4.32005
4.32005
4.32005
4.32005
4.32005
4.32005
4.32005
4.32005
4.32005
4.32005
4.32005
4.32005
4.32005
4.32005
4.32005
4.32005
4.32005
4.32005
4.32005
4.32007
4.32052
4.33224
4.4882
4.72086
4.74053
4.74005
4.73996
4.74006
4.74024
4.74054
4.74107
4.74151
4.74162
4.74149
4.74115
4.74062
4.74028
4.74014
4.74011
4.7401
4.74018
4.74033
4.7404
4.74034
4.74022
4.74005
4.73979
4.73946
4.73934
4.73937
4.73948
4.73968
4.74003
4.74035
4.74043
4.74039
4.74029
4.74011
4.73981
4.73961
4.7396
4.73969
4.73982
4.74001
4.74029
4.74048
4.74052
4.74049
4.74043
4.74028
4.74001
4.73986
4.73983
4.73986
4.73994
4.74013
4.74043
4.74059
4.7406
4.74054
4.74041
4.74019
4.73987
4.73968
4.73964
4.73965
4.73972
4.73989
4.74012
4.74021
4.74022
4.74018
4.74009
4.73993
4.73978
4.73974
4.73978
4.73987
4.74001
4.74021
4.74036
4.74039
4.74037
4.74031
4.74021
4.74009
4.73998
4.73996
4.73998
4.74001
4.74006
4.74011
4.74011
4.74009
4.74006
4.74002
4.73998
4.73997
4.73997
4.73999
4.74003
4.74008
4.74014
4.74018
4.74018
4.74017
4.74015
4.74011
4.74006
4.74
4.73994
4.73992
4.73992
4.73992
4.73994
4.73996
4.73996
4.73994
4.73993
4.73993
4.73994
4.73997
4.74003
4.74009
4.74014
4.74018
4.74019
4.74017
4.74013
4.74009
4.74006
4.74008
4.74021
4.74049
4.74054
4.74027
4.73912
4.73642
4.73195
4.72606
4.71933
4.71228
4.70533
4.69871
4.69244
4.68703
4.68381
4.68282
4.68256
4.6825
4.68235
4.68214
4.68191
4.68206
4.68244
4.68286
4.68318
4.6834
4.68356
4.68376
4.68413
4.68502
4.68704
4.69096
4.69687
4.70336
4.70866
4.71243
4.71527
4.71767
4.71983
4.7218
4.72358
4.72518
4.72659
4.72779
4.72879
4.7296
4.73025
4.73074
4.73111
4.73137
4.73157
4.73173
4.73189
4.73205
4.73221
4.73238
4.73256
4.73277
4.73298
4.7332
4.73342
4.73364
4.73385
4.73406
4.73426
4.73444
4.73457
4.73465
4.7347
4.73473
4.73475
4.73475
4.73474
4.73473
4.73471
4.7347
4.73472
4.73475
4.73481
4.73487
4.73494
4.73503
4.73513
4.73524
4.73532
4.73541
4.73548
4.73553
4.73557
4.7356
4.73562
4.73561
4.7356
4.73559
4.73559
4.7356
4.73561
4.73562
4.73564
4.73565
4.73567
4.73571
4.73577
4.73585
4.73593
4.73603
4.73613
4.73621
4.73627
4.73633
4.73639
4.73645
4.7365
4.73654
4.73656
4.73658
4.73659
4.73659
4.73663
4.73668
4.73674
4.73679
4.73684
4.73688
4.73693
4.73697
4.73702
4.73708
4.73714
4.73718
4.73723
4.73727
4.7373
4.73732
4.73733
4.73734
4.73734
4.73734
4.73732
4.73729
4.73727
4.73725
4.73724
4.73725
4.73728
4.73733
4.7374
4.73747
4.73755
4.7376
4.73764
4.73767
4.73771
4.73775
4.7378
4.73783
4.73786
4.73788
4.73788
4.73786
4.73785
4.73785
4.73786
4.73785
4.73784
4.73785
4.73786
4.73788
4.73791
4.73796
4.73802
4.73808
4.73813
4.73817
4.73818
4.73816
4.73811
4.73806
4.73802
4.738
4.73798
4.73797
4.73795
4.73791
4.73786
4.73783
4.73783
4.73783
4.73784
4.73786
4.73789
4.73792
4.73793
4.73794
4.73797
4.73801
4.73804
4.73806
4.73808
4.73812
4.73813
4.73814
4.73814
4.73814
4.73813
4.73811
4.7381
4.7381
4.73811
4.73812
4.73813
4.73817
4.73823
4.73827
4.73832
4.73838
4.73845
4.7385
4.73852
4.73855
4.7386
4.73866
4.7387
4.73872
4.73875
4.73875
4.73874
4.73874
4.73877
4.7388
4.73882
4.73884
4.73886
4.73887
4.73884
4.73876
4.73872
4.73874
4.73876
4.73878
4.73878
4.73879
4.73879
4.73875
4.73872
4.73873
4.73874
4.73874
4.73874
4.73875
4.73876
4.73875
4.73874
4.73875
4.73879
4.7388
4.73883
4.73884
4.73888
4.73891
4.73893
4.73895
4.73899
4.73901
4.73904
4.73906
4.73908
4.73907
4.73903
4.73897
4.73895
4.73897
4.73897
4.73899
4.739
4.73901
4.73899
4.73899
4.73902
4.7391
4.73914
4.73918
4.7392
4.73922
4.73922
4.73919
4.7392
4.73921
4.73922
4.73915
4.73909
4.73897
4.73886
4.73862
4.73831
4.73787
4.73722
4.73617
4.73463
4.73236
4.72905
4.72425
4.71735
4.70767
4.6942
4.67573
4.65069
4.61753
4.57401
4.51813
4.44746
4.35997
4.25379
4.12785
3.98206
3.81795
3.6389
3.45052
3.26088
3.08058
2.92185
2.79943
2.72302
2.68671
2.67778
2.67722
2.67752
2.67811
2.67879
2.67943
2.68005
2.68071
2.68137
2.68196
2.68239
2.68267
2.68297
2.68337
2.68362
2.68361
2.68349
2.68325
2.68287
2.68237
2.68189
2.68167
2.68164
2.68168
2.68184
2.68208
2.68227
2.68235
2.68238
2.68236
2.68226
2.68213
2.68208
2.68209
2.68212
2.68221
2.68233
2.68241
2.6824
2.68237
2.68229
2.68216
2.68201
2.68193
2.68192
2.68194
2.682
2.6821
2.68221
2.68226
2.68227
2.68226
2.68221
2.68213
2.68206
2.68203
2.68203
2.68203
2.68206
2.68211
2.68214
2.68214
2.68211
2.68208
2.68204
2.68201
2.682
2.68201
2.68204
2.6821
2.68219
2.68228
2.68236
2.68246
2.68258
2.68274
2.68294
2.68319
2.68349
2.68382
2.68414
2.6844
2.68457
2.68461
2.68461
2.68458
2.68454
2.68447
2.68438
2.68427
2.68414
2.68399
2.68384
2.68368
2.68353
2.6834
2.68329
2.68321
2.68313
2.68308
2.68305
2.68304
2.68303
2.68301
2.68299
2.68297
2.68293
2.68289
2.68284
2.68278
2.68273
2.68271
2.6827
2.6827
2.6827
2.68271
2.68271
2.6827
2.68268
2.68266
2.68263
2.6826
2.68257
2.68255
2.68254
2.68253
2.68253
2.68252
2.68252
2.6825
2.68248
2.68246
2.68242
2.68239
2.68235
2.68232
2.6823
2.68228
2.68226
2.68223
2.6822
2.68216
2.68211
2.68206
2.68202
2.682
2.68199
2.68199
2.68199
2.68199
2.682
2.682
2.682
2.68201
2.68201
2.68201
2.68201
2.68202
2.68202
2.68203
2.68203
2.68203
2.68202
2.68201
2.682
2.68198
2.68197
2.68198
2.68201
2.68205
2.68209
2.68211
2.68211
2.68177
2.67939
2.67276
2.66206
2.64883
2.63436
2.61914
2.60363
2.5878
2.57192
2.55586
2.53988
2.52374
2.50771
2.49159
2.47561
2.45952
2.4436
2.42762
2.41179
2.3959
2.38021
2.36445
2.34888
2.33327
2.31789
2.30244
2.28726
2.27206
2.25721
2.24199
2.22593
2.19852
4.32005
4.32005
4.32005
4.32005
4.32005
4.32005
4.32005
4.32005
4.32005
4.32005
4.32005
4.32005
4.32005
4.32005
4.32005
4.32005
4.32005
4.32005
4.32005
4.32005
4.32005
4.32005
4.32005
4.32005
4.32005
4.32005
4.32005
4.32005
4.32005
4.32005
4.32005
4.32005
4.32007
4.32052
4.33224
4.4882
4.72086
4.74053
4.74005
4.73996
4.74006
4.74024
4.74054
4.74107
4.74151
4.74162
4.74149
4.74115
4.74062
4.74028
4.74014
4.74011
4.7401
4.74018
4.74033
4.7404
4.74034
4.74022
4.74005
4.73979
4.73946
4.73934
4.73937
4.73948
4.73968
4.74003
4.74035
4.74043
4.74039
4.74029
4.74011
4.73981
4.73961
4.7396
4.73969
4.73982
4.74001
4.74029
4.74048
4.74052
4.74049
4.74043
4.74028
4.74001
4.73986
4.73983
4.73986
4.73994
4.74013
4.74043
4.74059
4.7406
4.74054
4.74041
4.74019
4.73987
4.73968
4.73964
4.73965
4.73972
4.73989
4.74012
4.74021
4.74022
4.74018
4.74009
4.73993
4.73978
4.73974
4.73978
4.73987
4.74001
4.74021
4.74036
4.74039
4.74037
4.74031
4.74021
4.74009
4.73998
4.73996
4.73998
4.74001
4.74006
4.74011
4.74011
4.74009
4.74006
4.74002
4.73998
4.73997
4.73997
4.73999
4.74003
4.74008
4.74014
4.74018
4.74018
4.74017
4.74015
4.74011
4.74006
4.74
4.73994
4.73992
4.73992
4.73992
4.73994
4.73996
4.73996
4.73994
4.73993
4.73993
4.73994
4.73997
4.74003
4.74009
4.74014
4.74018
4.74019
4.74017
4.74013
4.74009
4.74006
4.74008
4.74021
4.74049
4.74054
4.74027
4.73912
4.73642
4.73195
4.72606
4.71933
4.71228
4.70533
4.69872
4.69242
4.687
4.6838
4.68284
4.68259
4.68254
4.68237
4.68213
4.68186
4.682
4.68242
4.68288
4.68318
4.6834
4.68357
4.68376
4.68413
4.68502
4.68704
4.69095
4.69687
4.70336
4.70867
4.71244
4.71528
4.71767
4.71983
4.7218
4.72358
4.72518
4.72659
4.72779
4.7288
4.72961
4.73025
4.73074
4.73111
4.73137
4.73157
4.73173
4.73189
4.73205
4.73221
4.73238
4.73257
4.73277
4.73298
4.7332
4.73342
4.73364
4.73385
4.73406
4.73426
4.73444
4.73457
4.73465
4.7347
4.73473
4.73475
4.73475
4.73474
4.73473
4.73471
4.7347
4.73472
4.73476
4.73481
4.73487
4.73494
4.73503
4.73513
4.73524
4.73532
4.7354
4.73548
4.73553
4.73557
4.7356
4.73562
4.73561
4.7356
4.73559
4.7356
4.7356
4.73561
4.73562
4.73564
4.73565
4.73567
4.73571
4.73577
4.73585
4.73593
4.73603
4.73613
4.73621
4.73627
4.73633
4.73639
4.73645
4.7365
4.73654
4.73656
4.73658
4.73659
4.73659
4.73663
4.73668
4.73674
4.73679
4.73684
4.73688
4.73693
4.73697
4.73702
4.73708
4.73713
4.73718
4.73723
4.73727
4.7373
4.73732
4.73733
4.73734
4.73734
4.73734
4.73732
4.73729
4.73727
4.73725
4.73724
4.73725
4.73728
4.73733
4.7374
4.73747
4.73755
4.7376
4.73764
4.73767
4.73771
4.73775
4.7378
4.73783
4.73786
4.73788
4.73788
4.73786
4.73785
4.73785
4.73786
4.73785
4.73784
4.73785
4.73786
4.73788
4.73791
4.73796
4.73802
4.73808
4.73813
4.73817
4.73818
4.73816
4.73811
4.73806
4.73802
4.738
4.73798
4.73797
4.73795
4.73791
4.73786
4.73783
4.73783
4.73783
4.73784
4.73786
4.73789
4.73792
4.73793
4.73794
4.73797
4.73801
4.73804
4.73806
4.73809
4.73812
4.73813
4.73814
4.73814
4.73814
4.73813
4.73811
4.7381
4.7381
4.73811
4.73812
4.73813
4.73817
4.73823
4.73827
4.73832
4.73838
4.73845
4.7385
4.73852
4.73855
4.73859
4.73865
4.7387
4.73872
4.73875
4.73875
4.73874
4.73874
4.73877
4.73881
4.73882
4.73884
4.73886
4.73887
4.73884
4.73877
4.73873
4.73875
4.73876
4.73877
4.73878
4.7388
4.73879
4.73875
4.73872
4.73873
4.73874
4.73874
4.73874
4.73875
4.73876
4.73875
4.73874
4.73875
4.73879
4.7388
4.73882
4.73884
4.73888
4.73891
4.73893
4.73895
4.73899
4.73901
4.73904
4.73906
4.73907
4.73906
4.73903
4.73897
4.73895
4.73896
4.73897
4.739
4.73901
4.73901
4.73898
4.73898
4.73902
4.7391
4.73914
4.73918
4.7392
4.73923
4.73922
4.7392
4.7392
4.73921
4.73921
4.73914
4.73908
4.73896
4.73886
4.73862
4.73832
4.73789
4.73724
4.73619
4.73464
4.73236
4.72907
4.72427
4.71738
4.70774
4.69433
4.67594
4.65104
4.61803
4.57473
4.51919
4.44889
4.36171
4.25583
4.13011
3.98433
3.82003
3.64065
3.45188
3.26183
3.08116
2.92216
2.79959
2.7231
2.68676
2.67778
2.67721
2.67751
2.67811
2.67878
2.67943
2.68006
2.68071
2.68137
2.68196
2.68239
2.68267
2.68297
2.68336
2.68362
2.68361
2.68349
2.68325
2.68287
2.68237
2.68189
2.68168
2.68164
2.68168
2.68184
2.68208
2.68227
2.68235
2.68238
2.68236
2.68227
2.68213
2.68208
2.68209
2.68212
2.68221
2.68233
2.68241
2.6824
2.68237
2.68229
2.68216
2.68201
2.68193
2.68192
2.68194
2.682
2.6821
2.68221
2.68226
2.68227
2.68226
2.68221
2.68213
2.68206
2.68203
2.68203
2.68203
2.68206
2.68211
2.68214
2.68214
2.68211
2.68208
2.68204
2.68202
2.682
2.68201
2.68204
2.6821
2.68219
2.68228
2.68236
2.68246
2.68258
2.68274
2.68294
2.68319
2.68349
2.68382
2.68414
2.68441
2.68458
2.68462
2.68461
2.68458
2.68454
2.68447
2.68438
2.68427
2.68414
2.68399
2.68384
2.68368
2.68353
2.6834
2.68329
2.68321
2.68314
2.68308
2.68305
2.68304
2.68303
2.68301
2.68299
2.68297
2.68293
2.68289
2.68284
2.68278
2.68273
2.68271
2.6827
2.6827
2.6827
2.68271
2.68271
2.6827
2.68268
2.68266
2.68263
2.6826
2.68257
2.68255
2.68254
2.68253
2.68253
2.68252
2.68252
2.6825
2.68248
2.68246
2.68242
2.68239
2.68235
2.68232
2.6823
2.68228
2.68226
2.68223
2.6822
2.68216
2.68211
2.68206
2.68202
2.682
2.68199
2.68199
2.68199
2.68199
2.682
2.682
2.682
2.68201
2.68201
2.68201
2.68201
2.68202
2.68202
2.68203
2.68203
2.68203
2.68202
2.68201
2.682
2.68198
2.68197
2.68198
2.68201
2.68205
2.68209
2.68211
2.68211
2.68177
2.67939
2.67276
2.66206
2.64883
2.63437
2.61914
2.60363
2.5878
2.57192
2.55586
2.53988
2.52374
2.50772
2.49159
2.47561
2.45952
2.4436
2.42762
2.41179
2.3959
2.3802
2.36445
2.34888
2.33326
2.31789
2.30244
2.28726
2.27206
2.2572
2.24195
2.22587
2.19866
4.32005
4.32005
4.32005
4.32005
4.32005
4.32005
4.32005
4.32005
4.32005
4.32005
4.32005
4.32005
4.32005
4.32005
4.32005
4.32005
4.32005
4.32005
4.32005
4.32005
4.32005
4.32005
4.32005
4.32005
4.32005
4.32005
4.32005
4.32005
4.32005
4.32005
4.32005
4.32005
4.32007
4.32052
4.33224
4.4882
4.72086
4.74053
4.74005
4.73996
4.74006
4.74024
4.74054
4.74107
4.74151
4.74162
4.74149
4.74115
4.74062
4.74028
4.74014
4.74011
4.7401
4.74018
4.74033
4.7404
4.74034
4.74022
4.74005
4.73979
4.73946
4.73934
4.73937
4.73948
4.73968
4.74003
4.74035
4.74043
4.74039
4.74029
4.74011
4.73981
4.73961
4.7396
4.73969
4.73982
4.74001
4.74029
4.74048
4.74052
4.74049
4.74043
4.74028
4.74001
4.73986
4.73983
4.73986
4.73994
4.74013
4.74043
4.74059
4.7406
4.74054
4.74041
4.74019
4.73987
4.73968
4.73964
4.73965
4.73972
4.73989
4.74012
4.74021
4.74022
4.74018
4.74009
4.73993
4.73978
4.73974
4.73978
4.73987
4.74001
4.74021
4.74036
4.74039
4.74037
4.74031
4.74021
4.74009
4.73998
4.73996
4.73998
4.74001
4.74006
4.74011
4.74011
4.74009
4.74006
4.74002
4.73998
4.73997
4.73997
4.73999
4.74003
4.74008
4.74014
4.74018
4.74018
4.74017
4.74015
4.74011
4.74006
4.74
4.73994
4.73992
4.73992
4.73992
4.73994
4.73996
4.73996
4.73994
4.73993
4.73993
4.73994
4.73997
4.74003
4.74009
4.74014
4.74018
4.74019
4.74017
4.74013
4.74009
4.74006
4.74008
4.74021
4.74049
4.74054
4.74027
4.73912
4.73642
4.73195
4.72606
4.71934
4.71228
4.70534
4.69872
4.6924
4.68698
4.6838
4.68286
4.68262
4.68256
4.68239
4.68212
4.68183
4.68196
4.68241
4.6829
4.68319
4.68339
4.68357
4.68377
4.68414
4.68502
4.68704
4.69095
4.69687
4.70336
4.70867
4.71244
4.71528
4.71767
4.71983
4.7218
4.72358
4.72518
4.72659
4.72779
4.7288