/*--------------------------------*- C++ -*----------------------------------*\
| =========                 |                                                 |
| \\      /  F ield         | OpenFOAM: The Open Source CFD Toolbox           |
|  \\    /   O peration     | Version:  2406                                  |
|   \\  /    A nd           | Website:  www.openfoam.com                      |
|    \\/     M anipulation  |                                                 |
\*---------------------------------------------------------------------------*/
FoamFile
{
    version     2.0;
    format      ascii;
    arch        "LSB;label=32;scalar=64";
    class       volVectorField;
    location    "0.065";
    object      U;
}
// * * * * * * * * * * * * * * * * * * * * * * * * * * * * * * * * * * * * * //

dimensions      [0 1 -1 0 0 0 0];

internalField   nonuniform List<vector> 
83682
(
(347.059 2.90938e-11 -3.19965e-11)
(347.059 2.8712e-11 -2.71231e-11)
(347.059 2.85013e-11 -2.82996e-11)
(347.059 2.49499e-11 -2.73581e-11)
(347.059 2.44203e-11 -2.89455e-11)
(347.059 2.2824e-11 -2.89934e-11)
(347.059 2.46221e-11 -2.82688e-11)
(347.059 2.53827e-11 -2.71701e-11)
(347.059 2.49244e-11 -2.66402e-11)
(347.059 2.88793e-11 -2.60748e-11)
(347.059 3.00058e-11 -2.63517e-11)
(347.059 2.25327e-11 -2.53957e-11)
(347.059 7.79875e-12 -2.48264e-11)
(347.059 -5.2263e-12 -2.50372e-11)
(347.059 -1.61912e-11 -2.46868e-11)
(347.059 -1.60503e-11 -2.34374e-11)
(347.059 -1.88717e-11 -2.30497e-11)
(347.059 -1.73089e-11 -2.2816e-11)
(347.059 -1.24527e-11 -2.37139e-11)
(347.059 -1.31626e-11 -2.41573e-11)
(347.059 -1.67293e-11 -2.4765e-11)
(347.059 -1.84183e-11 -2.38222e-11)
(347.059 -2.40473e-11 -2.13006e-11)
(347.059 -3.24062e-11 -2.06124e-11)
(347.059 -3.29039e-11 -2.20182e-11)
(347.059 -3.12941e-11 -2.15893e-11)
(347.059 -2.21434e-11 -2.37978e-11)
(347.059 -1.355e-11 -2.21558e-11)
(347.059 -1.06424e-11 -2.22415e-11)
(347.059 -7.01962e-12 -2.14314e-11)
(347.059 -1.39984e-11 -2.05955e-11)
(347.059 4.14626e-10 -3.91482e-11)
(347.058 -1.06016e-08 4.43781e-10)
(347.026 1.79045e-07 -7.94143e-09)
(346.194 -9.61139e-07 4.32408e-08)
(335.258 -2.1668e-05 9.06857e-07)
(319.627 2.51744e-05 -1.07066e-06)
(318.28 4.22551e-05 -1.85947e-06)
(318.288 -6.09568e-07 -9.95166e-09)
(318.295 -1.36363e-05 5.6704e-07)
(318.295 -1.95058e-05 8.36123e-07)
(318.292 -2.31665e-05 1.01144e-06)
(318.289 -1.89762e-05 8.32713e-07)
(318.287 -1.11748e-06 8.33504e-08)
(318.275 1.26534e-05 -5.00342e-07)
(318.262 1.29585e-05 -5.27695e-07)
(318.256 1.53987e-05 -6.52947e-07)
(318.255 1.02629e-05 -4.32003e-07)
(318.259 -2.30664e-06 6.19502e-08)
(318.28 -5.55902e-06 2.0422e-07)
(318.299 -6.30278e-06 2.66037e-07)
(318.311 -6.76587e-06 3.22462e-07)
(318.317 -3.24934e-06 1.9599e-07)
(318.318 -2.62607e-06 1.8007e-07)
(318.315 4.78366e-06 -1.32542e-07)
(318.308 7.47559e-06 -2.66987e-07)
(318.306 8.61555e-06 -3.5761e-07)
(318.311 6.88056e-06 -3.17437e-07)
(318.317 8.56787e-06 -4.08494e-07)
(318.324 5.15584e-06 -2.68552e-07)
(318.33 -9.3017e-06 3.4245e-07)
(318.338 -1.26189e-05 4.93547e-07)
(318.342 -1.26314e-05 5.09968e-07)
(318.344 -1.42344e-05 6.07503e-07)
(318.345 -1.31971e-05 5.84201e-07)
(318.347 -4.8936e-06 2.36615e-07)
(318.346 5.3329e-06 -1.77412e-07)
(318.339 7.72438e-06 -2.74202e-07)
(318.335 1.0899e-05 -4.04181e-07)
(318.331 1.11327e-05 -4.15611e-07)
(318.326 9.80225e-06 -3.72894e-07)
(318.32 3.7187e-06 -1.30087e-07)
(318.319 -2.22222e-06 9.71165e-08)
(318.322 -3.40628e-06 1.40614e-07)
(318.323 -4.99481e-06 2.03e-07)
(318.322 -4.76639e-06 1.89927e-07)
(318.321 -2.49112e-06 9.05454e-08)
(318.32 2.99444e-06 -1.37741e-07)
(318.313 5.87919e-06 -2.55372e-07)
(318.307 5.92381e-06 -2.55462e-07)
(318.303 5.8751e-06 -2.51213e-07)
(318.3 5.40763e-06 -2.30896e-07)
(318.298 2.82437e-06 -1.24978e-07)
(318.296 -2.61447e-06 1.04205e-07)
(318.302 -5.18169e-06 2.12697e-07)
(318.308 -5.86289e-06 2.43658e-07)
(318.314 -6.1907e-06 2.54698e-07)
(318.32 -5.56734e-06 2.21635e-07)
(318.326 -4.52934e-06 1.76168e-07)
(318.333 -3.33814e-06 1.27127e-07)
(318.331 -2.71307e-06 1.05093e-07)
(318.328 -2.62164e-06 1.05383e-07)
(318.325 -2.91773e-06 1.25066e-07)
(318.322 -1.96158e-06 8.59114e-08)
(318.319 -4.69621e-06 2.10747e-07)
(318.316 -2.07273e-06 8.88306e-08)
(318.321 2.88329e-07 -1.99555e-08)
(318.325 8.42832e-07 -2.86556e-08)
(318.328 1.7902e-06 -7.87201e-08)
(318.33 2.86043e-06 -1.24412e-07)
(318.33 3.20805e-06 -1.34719e-07)
(318.33 2.79305e-06 -1.1925e-07)
(318.325 2.63362e-06 -1.15423e-07)
(318.322 1.80071e-06 -9.0226e-08)
(318.32 4.21811e-07 -5.85484e-08)
(318.319 -6.67572e-08 -6.12649e-08)
(318.318 -1.28651e-07 -6.80375e-08)
(318.32 -2.32558e-07 -6.66434e-08)
(318.323 -2.00499e-07 -6.89937e-08)
(318.326 -2.02321e-07 -6.58553e-08)
(318.327 -8.10701e-07 -4.39121e-08)
(318.329 -1.81055e-06 -1.92928e-08)
(318.332 -2.57827e-06 2.12985e-08)
(318.333 -3.27151e-06 6.57059e-08)
(318.331 -3.57383e-06 8.60211e-08)
(318.33 -3.79562e-06 9.93637e-08)
(318.329 -4.13874e-06 1.12872e-07)
(318.326 -3.90978e-06 9.81133e-08)
(318.322 -3.19827e-06 5.87728e-08)
(318.316 -2.26179e-06 4.96137e-09)
(318.313 -2.32065e-06 2.8581e-09)
(318.312 -2.3066e-06 -7.81608e-10)
(318.311 -2.17456e-06 -1.60301e-08)
(318.312 -2.96574e-06 2.29411e-08)
(318.313 -4.10821e-06 9.58949e-08)
(318.314 -4.6621e-06 1.28248e-07)
(318.315 -4.67117e-06 1.28878e-07)
(318.315 -4.34308e-06 1.12979e-07)
(318.315 -3.14031e-06 6.35872e-08)
(318.315 -1.1594e-06 -2.32049e-08)
(318.316 -3.24723e-07 -5.22062e-08)
(318.317 6.81209e-07 -8.46234e-08)
(318.319 1.24677e-06 -1.05726e-07)
(318.322 1.21799e-06 -9.96226e-08)
(318.326 9.50101e-07 -8.26736e-08)
(318.331 7.30434e-07 -6.87219e-08)
(318.334 7.97536e-07 -7.04391e-08)
(318.334 7.87197e-07 -7.0256e-08)
(318.334 7.99785e-07 -7.10713e-08)
(318.333 7.67783e-07 -7.31992e-08)
(318.331 8.19599e-07 -7.08056e-08)
(318.329 1.22826e-06 -8.07799e-08)
(318.327 2.00235e-06 -1.10794e-07)
(318.324 2.6308e-06 -1.33934e-07)
(318.322 2.51806e-06 -1.35132e-07)
(318.319 2.31765e-06 -1.13186e-07)
(318.318 2.17565e-06 -1.00991e-07)
(318.316 2.16217e-06 -9.74951e-08)
(318.315 2.10423e-06 -9.20284e-08)
(318.315 2.35007e-06 -1.04793e-07)
(318.316 2.2878e-06 -1.04403e-07)
(318.319 2.16677e-06 -1.03513e-07)
(318.321 2.36212e-06 -1.11661e-07)
(318.322 1.51175e-06 -8.41625e-08)
(318.323 3.58681e-06 -1.7526e-07)
(318.323 1.32454e-06 -7.07111e-08)
(318.322 3.64556e-06 -1.78302e-07)
(318.321 9.2071e-07 -7.01921e-08)
(318.321 8.45167e-07 -5.09373e-08)
(318.322 -2.18874e-06 8.61465e-08)
(318.323 1.79405e-06 -1.16542e-07)
(318.324 -5.05346e-06 2.91079e-07)
(318.326 4.17488e-07 -8.3616e-08)
(318.327 -1.16333e-05 4.48875e-07)
(318.326 -1.02847e-05 3.91949e-07)
(318.317 2.59558e-05 -8.09979e-07)
(318.298 2.07851e-05 -1.1292e-06)
(318.294 -7.11044e-06 -2.58517e-07)
(318.31 -0.00010225 3.51345e-06)
(318.383 1.12944e-05 -1.01018e-06)
(318.557 -0.000169693 6.27421e-06)
(318.848 -0.000228651 1.27982e-05)
(319.232 0.000786407 -3.93943e-05)
(319.675 -0.000723607 4.38431e-05)
(320.14 0.00107934 -5.61378e-05)
(320.604 5.72028e-05 8.36644e-06)
(321.047 0.00123536 -5.64386e-05)
(321.463 0.00089036 -2.12912e-05)
(321.824 -0.00158761 -1.65078e-05)
(322.052 -0.005363 0.000175149)
(322.133 -0.00367134 0.000157729)
(322.155 0.00011853 4.24547e-06)
(322.157 0.00376032 -1.62099e-05)
(322.162 0.0061282 -0.000182585)
(322.165 0.00562308 -0.00022886)
(322.167 0.00307037 -0.000143437)
(322.153 -0.00329339 -6.4897e-06)
(322.137 -0.00355892 0.000112679)
(322.112 -0.0033429 0.00013293)
(322.088 -0.00287533 0.000123376)
(322.072 -0.00246412 0.000112724)
(322.062 -0.00247447 0.000111848)
(322.049 -0.00258751 0.000121661)
(322.022 -0.0023098 0.000111689)
(321.961 -0.00219147 8.06453e-05)
(321.825 -0.00182421 6.84469e-05)
(321.562 -0.0014532 0.000376837)
(321.167 -0.0027161 -0.000351421)
(320.736 -0.00105917 -0.0003951)
(320.387 0.000292763 0.00108679)
(320.141 -0.00210653 0.000538844)
(319.959 -0.00338693 -0.000835913)
(319.805 -0.00165737 -0.000817406)
(319.667 0.000456525 0.000317141)
(319.54 0.000687451 0.000858013)
(319.423 -0.000486127 0.000474933)
(319.317 -0.00106294 -0.00024586)
(319.223 -0.000716631 -0.000454487)
(319.142 -0.000277689 -9.00194e-05)
(319.075 -0.000214 0.000231519)
(319.02 -0.000501728 0.000226221)
(318.977 -0.000845528 5.70845e-05)
(318.943 -0.00099728 -0.000111224)
(318.917 -0.000774015 -0.000151818)
(318.897 -0.000296834 -3.87362e-05)
(318.882 -1.83152e-05 6.78366e-05)
(318.868 -5.05823e-05 6.697e-05)
(318.856 -0.000184124 7.95159e-06)
(318.845 -0.000232142 -2.14409e-05)
(318.834 -0.000223407 -2.97402e-05)
(318.823 -0.000160826 -2.03193e-05)
(318.812 -9.0371e-05 4.30689e-06)
(318.801 -5.57536e-05 1.37583e-05)
(318.789 -4.77354e-05 1.74427e-06)
(318.778 -5.53198e-05 -6.26946e-06)
(318.767 -3.9748e-05 -3.76858e-06)
(318.755 -4.94587e-05 -1.02117e-05)
(318.741 -4.56824e-05 2.2994e-05)
(318.728 -6.30916e-05 2.15195e-05)
(318.715 -0.000100709 2.06235e-05)
(318.703 -0.00013471 4.58118e-05)
(318.696 -0.000144361 8.08008e-05)
(318.691 -0.000144114 0.00010189)
(318.687 -0.000138636 0.000109828)
(318.684 -0.000113999 0.000118805)
(318.682 -5.20458e-05 0.000114413)
(318.68 2.41689e-05 9.29676e-05)
(318.678 7.24083e-05 6.53597e-05)
(318.676 7.18825e-05 3.94345e-05)
(318.674 2.74529e-05 1.77479e-05)
(318.672 -4.46717e-05 -1.38157e-06)
(318.671 -7.82454e-05 -8.5151e-06)
(318.669 -0.000128296 -2.03204e-05)
(318.667 -0.000171791 -3.44266e-05)
(318.665 -0.000166895 -4.63291e-05)
(318.663 -0.000139676 -5.29855e-05)
(318.66 -8.8919e-05 -5.8601e-05)
(318.657 -4.1668e-05 -6.40123e-05)
(318.654 -3.63928e-05 -6.71172e-05)
(318.65 -2.85735e-05 -7.19728e-05)
(318.644 -2.80175e-05 -7.57491e-05)
(318.639 -6.13759e-05 -8.02914e-05)
(318.634 -8.9324e-05 -8.33339e-05)
(318.631 -5.36279e-05 -8.85786e-05)
(318.628 1.33543e-05 -9.54793e-05)
(318.625 8.96086e-05 -0.000101796)
(318.623 0.000169058 -0.000108963)
(318.621 0.000232268 -0.000117768)
(318.619 0.000249963 -0.000123239)
(318.617 0.000190888 -0.000120735)
(318.614 7.89681e-05 -0.000110131)
(318.612 -5.16133e-05 -9.33113e-05)
(318.61 -0.000150645 -7.63774e-05)
(318.609 -0.000175679 -6.98467e-05)
(318.608 -0.000191516 -5.80632e-05)
(318.607 -0.000158914 -4.70796e-05)
(318.606 -8.35422e-05 -4.13607e-05)
(318.604 -3.4615e-06 -3.76228e-05)
(318.602 4.97532e-05 -3.63536e-05)
(318.599 6.27403e-05 -3.51625e-05)
(318.597 3.25157e-05 -2.88176e-05)
(318.594 -1.34445e-05 -1.78014e-05)
(318.59 -5.11121e-05 -7.06137e-06)
(318.586 -6.81317e-05 -1.26097e-07)
(318.582 -7.05278e-05 5.03204e-06)
(318.578 -5.09647e-05 8.60723e-06)
(318.573 -2.0672e-06 5.66944e-06)
(318.568 5.61653e-05 -4.7899e-06)
(318.563 9.08413e-05 -1.95633e-05)
(318.557 9.3202e-05 -3.3372e-05)
(318.551 6.50222e-05 -4.27596e-05)
(318.546 9.78938e-06 -4.62894e-05)
(318.543 -4.31566e-05 -4.37078e-05)
(318.54 -6.60204e-05 -3.96908e-05)
(318.537 -7.50066e-05 -3.51944e-05)
(318.533 -7.22122e-05 -2.68542e-05)
(318.531 -3.67572e-05 -1.7048e-05)
(318.528 3.65443e-06 -9.20659e-06)
(318.527 4.79689e-05 -2.75937e-06)
(318.526 9.02218e-05 3.36492e-06)
(318.526 0.000100721 7.99028e-06)
(318.526 8.08784e-05 1.20264e-05)
(318.526 5.11099e-05 1.49054e-05)
(318.526 9.28778e-06 1.5914e-05)
(318.525 -1.95204e-05 1.64474e-05)
(318.524 -3.45248e-05 1.92633e-05)
(318.521 -4.40772e-05 2.39381e-05)
(318.519 -4.31793e-05 2.62604e-05)
(318.518 -2.7173e-05 3.12243e-05)
(318.516 -7.67566e-07 3.80667e-05)
(318.514 1.35889e-05 4.31154e-05)
(318.51 2.62208e-05 4.49605e-05)
(318.506 2.99514e-05 4.35245e-05)
(318.502 1.71682e-05 4.05556e-05)
(318.498 1.1848e-06 3.80299e-05)
(318.497 -1.08842e-05 3.63792e-05)
(318.498 -1.75443e-05 3.57585e-05)
(318.499 -2.07028e-05 3.58217e-05)
(318.499 -2.05318e-05 3.85364e-05)
(318.498 -1.50187e-05 4.34196e-05)
(318.496 -1.56511e-06 4.98184e-05)
(318.494 1.26428e-05 5.72094e-05)
(318.492 1.41916e-05 6.65023e-05)
(318.49 1.35963e-05 7.55386e-05)
(318.49 1.64375e-05 8.2366e-05)
(318.49 1.64654e-05 8.86781e-05)
(318.49 6.55756e-06 9.03091e-05)
(318.488 1.55489e-06 8.23157e-05)
(318.485 -6.44921e-07 7.15911e-05)
(318.482 -3.49181e-06 5.96166e-05)
(318.48 -6.38706e-06 5.09731e-05)
(318.477 -5.62967e-06 4.14223e-05)
(318.475 1.48267e-06 2.98443e-05)
(318.474 1.62748e-06 1.91938e-05)
(318.472 -5.36195e-06 1.5383e-05)
(318.47 -1.13012e-05 1.72064e-05)
(318.466 -1.52203e-05 2.13912e-05)
(318.463 -1.49977e-05 2.63308e-05)
(318.46 -1.38864e-05 2.95354e-05)
(318.458 -1.06526e-05 2.86804e-05)
(318.457 -7.99268e-06 2.70556e-05)
(318.457 -3.73899e-06 2.33739e-05)
(318.456 1.289e-05 1.59801e-05)
(318.455 2.6214e-05 3.06437e-06)
(318.454 2.52549e-05 -1.03307e-05)
(318.453 2.08226e-05 -2.65443e-05)
(318.454 2.74169e-05 -4.51928e-05)
(318.455 1.50034e-05 -5.88319e-05)
(318.455 -2.64942e-06 -6.53068e-05)
(318.455 -1.63952e-05 -7.33464e-05)
(318.456 -2.07656e-05 -7.52411e-05)
(318.459 -3.25596e-05 -7.61192e-05)
(318.462 -4.63785e-05 -7.10424e-05)
(318.464 -5.35408e-05 -5.99677e-05)
(318.464 -5.05705e-05 -4.86912e-05)
(318.462 -4.52138e-05 -3.65958e-05)
(318.46 -2.85052e-05 -2.56649e-05)
(318.458 -2.42861e-05 -1.50147e-05)
(318.457 -5.67944e-06 -5.2022e-06)
(318.457 1.98687e-05 7.95474e-06)
(318.459 2.86446e-05 1.4177e-05)
(318.459 3.14055e-05 1.97364e-05)
(318.459 3.49579e-05 2.98616e-05)
(318.459 3.35583e-05 4.06651e-05)
(318.458 2.64287e-05 4.58678e-05)
(318.458 1.441e-05 4.73475e-05)
(318.458 -4.25462e-06 4.70091e-05)
(318.46 -8.80041e-06 3.99307e-05)
(318.462 4.80503e-06 3.04183e-05)
(318.463 8.99396e-06 1.79006e-05)
(318.463 4.78259e-06 1.20726e-06)
(318.462 1.07568e-05 -1.58711e-05)
(318.461 1.45055e-05 -3.14702e-05)
(318.459 1.34475e-05 -4.40389e-05)
(318.457 8.4454e-06 -6.06914e-05)
(318.455 -6.26021e-07 -7.41398e-05)
(318.454 3.11977e-06 -8.45519e-05)
(318.452 7.69856e-06 -9.25364e-05)
(318.449 8.24068e-06 -9.64282e-05)
(318.447 -6.4988e-06 -9.65803e-05)
(318.446 -8.12052e-06 -9.58791e-05)
(318.444 6.08021e-06 -9.45352e-05)
(318.442 8.1203e-06 -9.19301e-05)
(318.441 3.82337e-06 -8.95889e-05)
(318.44 6.43572e-06 -8.82285e-05)
(318.439 1.40728e-05 -8.48303e-05)
(318.437 7.90051e-06 -8.07732e-05)
(318.435 -1.33145e-05 -7.58114e-05)
(318.433 -1.33769e-05 -7.02202e-05)
(318.432 5.72399e-06 -6.44675e-05)
(318.431 6.05965e-07 -5.88031e-05)
(318.429 -1.97202e-05 -5.0781e-05)
(318.428 -1.49954e-05 -4.4084e-05)
(318.428 -9.12829e-06 -3.9391e-05)
(318.426 -1.91919e-05 -3.61838e-05)
(318.422 -2.19859e-05 -3.15308e-05)
(318.418 6.489e-06 -2.88349e-05)
(318.414 9.06506e-06 -2.64714e-05)
(318.412 -6.0374e-05 -2.14739e-05)
(318.409 -5.40992e-05 -2.09346e-05)
(318.406 2.47376e-05 -2.35584e-05)
(318.403 2.75713e-05 -2.31479e-05)
(318.401 -1.62773e-05 -2.12804e-05)
(318.397 -1.91636e-05 -2.16245e-05)
(318.395 -5.68716e-07 -2.30599e-05)
(318.393 -6.51126e-06 -2.25697e-05)
(318.392 -1.007e-05 -2.28756e-05)
(318.391 1.80527e-05 -2.39298e-05)
(318.391 4.1052e-05 -2.47262e-05)
(318.394 1.72086e-05 -2.3538e-05)
(318.401 -6.95489e-05 -1.94091e-05)
(318.406 -6.66373e-05 -1.97597e-05)
(318.407 5.12241e-05 -2.39785e-05)
(318.409 6.81916e-05 -2.37228e-05)
(318.409 3.69232e-06 -2.00443e-05)
(318.409 -3.5331e-06 -1.85293e-05)
(318.408 2.03188e-05 -1.89336e-05)
(318.409 -5.25209e-06 -1.71433e-05)
(318.411 -4.8716e-05 -1.35165e-05)
(318.411 -3.97853e-05 -1.28063e-05)
(318.409 2.6048e-05 -1.52924e-05)
(318.406 9.46994e-05 -1.67286e-05)
(318.402 5.72853e-05 -1.30429e-05)
(318.398 -4.06243e-05 -9.75038e-06)
(318.395 -5.0594e-05 -9.67498e-06)
(318.393 -2.52861e-06 -8.94432e-06)
(318.394 -1.61313e-05 -6.50231e-06)
(318.394 -4.62619e-05 -4.45988e-06)
(318.393 -5.97776e-05 -1.77975e-06)
(318.391 2.44774e-05 -2.35724e-06)
(318.391 0.000124042 -6.11892e-06)
(318.391 0.000136069 -5.84471e-06)
(318.393 2.83844e-05 -1.80049e-06)
(318.393 -7.05594e-05 1.2286e-06)
(318.395 -8.17858e-05 4.18525e-06)
(318.396 -3.48461e-05 3.71834e-06)
(318.396 -3.61482e-05 4.2934e-06)
(318.393 -9.57135e-05 9.76055e-06)
(318.392 -0.000104726 1.19211e-05)
(318.39 -8.54806e-05 1.35763e-05)
(318.388 -7.36699e-05 1.73038e-05)
(318.386 6.45034e-05 2.48252e-05)
(318.384 0.000116107 4.05173e-05)
(318.384 5.17025e-05 5.99037e-05)
(318.383 8.62643e-05 7.15958e-05)
(318.38 0.000146939 7.67386e-05)
(318.375 5.81422e-06 7.94857e-05)
(318.374 -0.000167247 8.21333e-05)
(318.373 -0.000130076 8.5845e-05)
(318.374 -9.3422e-05 8.4344e-05)
(318.372 -4.71548e-05 8.38725e-05)
(318.372 -2.06949e-05 8.96652e-05)
(318.373 7.57916e-05 9.07792e-05)
(318.372 0.000196697 8.80783e-05)
(318.37 0.000215563 7.93392e-05)
(318.371 0.000148914 4.97758e-05)
(318.372 0.000142749 2.67741e-05)
(318.372 0.000132955 2.1699e-05)
(318.371 3.77981e-05 2.89927e-05)
(318.372 -7.972e-05 4.89677e-05)
(318.373 -0.000217204 7.31545e-05)
(318.373 -0.000476838 0.000115036)
(318.37 -0.000668547 0.000200695)
(318.367 -0.000777928 0.00028039)
(318.368 -0.00094631 0.000259237)
(318.367 -0.00106793 7.16206e-05)
(318.367 -0.00100089 -0.000230222)
(318.365 -0.00101836 -0.000627051)
(318.367 -0.00123908 -0.000990244)
(318.369 -0.00147022 -0.000988965)
(318.369 -0.00127875 -0.000544393)
(318.366 -0.00178293 0.000364813)
(318.368 -0.00401272 0.00166317)
(318.37 -0.00742134 0.0034617)
(318.373 -0.0128686 0.00524734)
(318.377 -0.0221564 0.00626775)
(318.383 -0.0360992 0.00571955)
(318.394 -0.0509665 0.00264419)
(318.408 -0.0723311 -0.0026093)
(318.425 -0.0948156 -0.00802734)
(318.444 -0.123493 -0.0104517)
(318.476 -0.150443 -0.00795135)
(318.505 -0.175342 -0.00256083)
(318.547 -0.202225 0.00317713)
(318.587 -0.2149 0.0064849)
(318.633 -0.207484 0.00299979)
(318.673 -0.188538 -0.0100735)
(318.711 -0.150782 -0.0300305)
(318.737 -0.0795053 -0.0467563)
(318.751 0.0186827 -0.0463235)
(318.747 0.123113 -0.0241975)
(318.723 0.236535 0.00670321)
(318.674 0.33363 0.0215684)
(318.611 0.397168 0.00762972)
(318.543 0.385723 -0.0167008)
(318.425 0.339501 -0.0270722)
(318.395 0.255939 -0.021431)
(318.47 0.147079 -0.00909216)
(318.126 0.072339 -0.000556455)
(318.085 0.0458108 0.0021164)
(318.173 0.042678 0.00237963)
(318.22 0.0366167 0.00287937)
(318.278 0.0314617 0.00312235)
(318.328 0.0269795 0.0033207)
(318.339 0.0220785 0.00330654)
(318.312 0.0181672 0.00325815)
(318.262 0.0136592 0.00316246)
(318.207 0.00929447 0.00308161)
(318.157 0.00571528 0.00299106)
(318.123 0.00327562 0.00284344)
(318.118 0.00201021 0.00269404)
(318.149 0.00109746 0.00251946)
(318.202 0.000387953 0.00231144)
(318.249 -7.81697e-05 0.00210004)
(318.265 -0.000315642 0.0019648)
(318.27 -0.000474841 0.00186681)
(318.262 -0.000620047 0.00176553)
(318.234 -0.000684543 0.00170852)
(318.187 -0.000701971 0.0016703)
(318.137 -0.000703579 0.00160353)
(318.119 -0.000697817 0.00150726)
(318.124 -0.000693203 0.00144189)
(318.137 -0.000671825 0.00132828)
(318.161 -0.000611283 0.00118631)
(318.194 -0.000512449 0.00103355)
(318.217 -0.000410776 0.000888458)
(318.223 -0.000346872 0.000770124)
(318.219 -0.000322438 0.000694929)
(318.207 -0.000294099 0.000584218)
(318.185 -0.00026593 0.000470084)
(318.16 -0.00022911 0.00035929)
(318.15 -0.000189404 0.000264132)
(318.151 -0.000163332 0.000204871)
(318.157 -0.00013452 0.000122076)
(318.174 -0.000111853 4.59528e-05)
(318.198 -9.93157e-05 -1.94947e-05)
(318.216 -0.00011201 -7.24258e-05)
(318.22 -0.000147636 -0.000102908)
(318.22 -0.000199145 -0.000128185)
(318.213 -0.000270635 -0.000158034)
(318.197 -0.00032871 -0.000187717)
(318.175 -0.000336958 -0.000221738)
(318.162 -0.000270852 -0.000265693)
(318.161 -0.000184368 -0.000300841)
(318.162 -3.95236e-05 -0.000345364)
(318.168 0.000213025 -0.000402563)
(318.18 0.000551339 -0.000457826)
(318.191 0.000969182 -0.000503451)
(318.196 0.00142038 -0.000530524)
(318.195 0.00169558 -0.000536852)
(318.19 0.00209674 -0.000529777)
(318.181 0.00243745 -0.000500188)
(318.168 0.00254747 -0.000455441)
(318.158 0.00227964 -0.000405922)
(318.155 0.00167458 -0.00037349)
(318.156 0.0010856 -0.000362332)
(318.16 -0.000118505 -0.000369509)
(318.168 -0.00189943 -0.000428123)
(318.179 -0.00418402 -0.000547664)
(318.187 -0.00678201 -0.000736962)
(318.19 -0.00881248 -0.000927188)
(318.191 -0.0103427 -0.00109667)
(318.189 -0.011814 -0.00129936)
(318.185 -0.0124781 -0.00142991)
(318.181 -0.012207 -0.00142665)
(318.181 -0.0114914 -0.00134377)
(318.182 -0.00984115 -0.00107392)
(318.184 -0.00660666 -0.000332944)
(318.188 -0.00231225 0.000932729)
(318.193 0.00194084 0.00238881)
(318.196 0.00647667 0.00444452)
(318.193 0.0102716 0.00687483)
(318.186 0.0124862 0.00858903)
(318.178 0.0140863 0.0101199)
(318.168 0.0151944 0.0113545)
(318.159 0.0147563 0.0119947)
(318.15 0.0127752 0.0122387)
(318.143 0.00987506 0.0121707)
(318.14 0.00585428 0.0120771)
(318.139 0.00160922 0.012167)
(318.142 -0.00129149 0.0123029)
(318.149 -0.0027394 0.0124428)
(318.148 -0.00314569 0.0125904)
(318.147 -0.00334629 0.0127969)
(318.146 -0.00349511 0.0129885)
(318.144 -0.00354063 0.0130812)
(318.141 -0.00353965 0.0129654)
(318.139 -0.00343349 0.0124239)
(318.139 -0.00298936 0.011804)
(318.141 -0.00229518 0.0116313)
(318.144 -0.00156114 0.0112345)
(318.149 -0.000810806 0.00997319)
(318.153 -1.86045e-05 0.00834989)
(318.156 0.000589773 0.00653461)
(318.158 0.000855512 0.00493461)
(318.157 0.000859399 0.00383795)
(318.154 0.000762906 0.00325506)
(318.149 0.000645417 0.00296696)
(318.144 0.000529939 0.00276774)
(318.142 0.000437635 0.0025819)
(318.143 0.000382319 0.00244943)
(318.145 0.000312864 0.00226791)
(318.146 0.000257291 0.00211625)
(318.147 0.000183249 0.00191442)
(318.148 0.000104829 0.00167774)
(318.148 3.50239e-05 0.00149176)
(318.146 -2.23788e-05 0.00135241)
(318.142 -6.49447e-05 0.00123706)
(318.137 -9.2474e-05 0.00113757)
(318.132 -0.000108912 0.00104566)
(318.131 -0.000113704 0.00096344)
(318.131 -0.000112902 0.000916729)
(318.133 -0.00010855 0.000845645)
(318.135 -9.84577e-05 0.00076945)
(318.137 -8.47378e-05 0.000693314)
(318.139 -7.2001e-05 0.000628475)
(318.14 -6.26101e-05 0.000586821)
(318.14 -4.82195e-05 0.000521866)
(318.139 -3.89264e-05 0.000458551)
(318.138 -3.2132e-05 0.000396475)
(318.136 -2.45025e-05 0.000341206)
(318.134 -1.98716e-05 0.000279474)
(318.133 -1.61923e-05 0.000214835)
(318.134 -1.41279e-05 0.000195502)
(318.135 -1.13955e-05 0.000178858)
(318.136 -7.66413e-06 0.000153715)
(318.137 -6.13616e-06 0.000138283)
(318.136 -5.73664e-06 0.000120965)
(318.135 -8.37794e-06 0.000104995)
(318.132 -1.35773e-05 9.21568e-05)
(318.128 -2.05269e-05 8.36479e-05)
(318.123 -2.71398e-05 7.64575e-05)
(318.117 -3.26984e-05 7.26568e-05)
(318.112 -3.45318e-05 6.87703e-05)
(318.108 -3.16743e-05 6.59631e-05)
(318.105 -2.62165e-05 6.40453e-05)
(318.103 -1.97794e-05 6.34187e-05)
(318.1 -1.24934e-05 5.91385e-05)
(318.097 -5.47727e-06 5.86703e-05)
(318.093 3.95408e-07 5.73561e-05)
(318.088 5.44743e-06 5.2892e-05)
(318.083 9.61338e-06 4.81715e-05)
(318.078 1.25385e-05 4.42401e-05)
(318.073 1.36856e-05 4.12702e-05)
(318.072 1.39134e-05 3.8142e-05)
(318.072 1.43191e-05 3.5916e-05)
(318.073 1.51415e-05 3.32451e-05)
(318.074 1.70732e-05 2.95467e-05)
(318.075 1.94622e-05 2.58033e-05)
(318.076 2.07826e-05 2.26666e-05)
(318.076 1.94573e-05 2.01222e-05)
(318.076 1.5687e-05 1.80089e-05)
(318.077 1.05024e-05 1.58869e-05)
(318.077 4.76936e-06 1.37678e-05)
(318.077 -3.84481e-07 1.16707e-05)
(318.078 -4.15371e-06 9.91016e-06)
(318.078 -5.99141e-06 8.94335e-06)
(318.08 -4.7207e-06 9.5074e-06)
(318.081 -1.67332e-06 1.07962e-05)
(318.081 1.06745e-06 1.24972e-05)
(318.081 3.40179e-06 1.38648e-05)
(318.082 6.833e-06 1.54013e-05)
(318.082 8.19062e-06 1.5955e-05)
(318.082 7.77077e-06 1.63113e-05)
(318.082 4.93929e-06 1.4951e-05)
(318.08 1.57566e-06 1.40519e-05)
(318.077 -3.47863e-06 1.24992e-05)
(318.072 -8.43363e-06 9.91837e-06)
(318.065 -1.19492e-05 8.9676e-06)
(318.06 -1.4111e-05 6.44714e-06)
(318.058 -1.34123e-05 6.26534e-06)
(318.06 -1.45754e-05 5.5233e-06)
(318.113 1.1292e-05 6.38722e-06)
(318.484 -0.000391307 -1.73054e-05)
(319.513 0.00220077 0.000145338)
(321.178 -0.0054434 -0.000395255)
(323.242 0.00892476 0.000586656)
(325.512 -0.0101283 -0.000615456)
(327.907 0.00915013 0.000977388)
(330.363 -0.00398666 -0.0021339)
(332.879 0.00538519 0.00313036)
(335.421 -0.0110077 -0.00164763)
(337.996 0.0153065 -0.0019889)
(340.58 -0.00815185 0.00162042)
(343.194 0.00238413 0.00609109)
(345.808 -0.00395659 -0.0105225)
(348.444 0.0123653 -0.00143031)
(351.078 -0.00880081 0.0153548)
(353.734 0.0030246 -0.00194424)
(356.383 5.0578e-05 -0.025153)
(359.051 0.00532564 0.0137222)
(361.714 -0.00893685 0.0276703)
(364.392 0.00893973 -0.0217698)
(367.059 0.000407987 -0.031698)
(369.744 -0.00248217 0.0316568)
(372.418 -0.00475348 0.0299365)
(375.105 0.0161408 -0.0333034)
(377.772 -0.00221044 -0.0295837)
(380.461 -0.0103053 0.034003)
(383.12 -0.00206579 0.0240798)
(385.792 0.0165705 -0.0262134)
(388.42 -0.00378715 -0.015338)
(391.105 -0.00295564 0.0104309)
(393.995 -0.00731191 0.00761776)
(398.972 -0.00908298 0.0034114)
(347.059 2.35209e-11 -3.07781e-11)
(347.059 2.45425e-11 -2.719e-11)
(347.059 2.30967e-11 -2.66709e-11)
(347.059 2.31106e-11 -2.66736e-11)
(347.059 2.33101e-11 -2.75943e-11)
(347.059 2.23288e-11 -2.74742e-11)
(347.059 2.30219e-11 -2.57746e-11)
(347.059 2.55615e-11 -2.52303e-11)
(347.059 2.67435e-11 -2.57246e-11)
(347.059 3.22497e-11 -2.59924e-11)
(347.059 3.47985e-11 -2.67532e-11)
(347.059 2.9694e-11 -2.67531e-11)
(347.059 1.60236e-11 -2.577e-11)
(347.059 8.70203e-14 -2.58021e-11)
(347.059 -1.40895e-11 -2.37785e-11)
(347.059 -2.08236e-11 -2.26818e-11)
(347.059 -2.02964e-11 -2.36684e-11)
(347.059 -1.57845e-11 -2.40444e-11)
(347.059 -1.02611e-11 -2.57122e-11)
(347.059 -8.19523e-12 -2.58995e-11)
(347.059 -9.75442e-12 -2.58921e-11)
(347.059 -1.59636e-11 -2.61869e-11)
(347.059 -2.46799e-11 -2.30795e-11)
(347.059 -2.98702e-11 -2.33981e-11)
(347.059 -2.88016e-11 -2.17328e-11)
(347.059 -2.75227e-11 -2.25964e-11)
(347.059 -1.98013e-11 -2.25059e-11)
(347.059 -1.21844e-11 -2.1583e-11)
(347.059 -8.5908e-12 -2.15526e-11)
(347.059 -4.50599e-12 -2.14303e-11)
(347.059 -1.11998e-11 -2.11998e-11)
(347.059 4.01449e-10 -3.95216e-11)
(347.058 -1.01391e-08 4.24018e-10)
(347.026 1.69101e-07 -7.52964e-09)
(346.194 -8.42221e-07 3.82298e-08)
(335.258 -2.1503e-05 9.02561e-07)
(319.627 2.43442e-05 -1.03441e-06)
(318.28 4.09198e-05 -1.80059e-06)
(318.288 -6.32153e-07 -5.66276e-09)
(318.295 -1.33212e-05 5.55728e-07)
(318.295 -1.91027e-05 8.18923e-07)
(318.292 -2.27188e-05 9.8945e-07)
(318.289 -1.86702e-05 8.15137e-07)
(318.287 -1.11489e-06 7.51192e-08)
(318.275 1.25845e-05 -5.04634e-07)
(318.262 1.29778e-05 -5.32973e-07)
(318.256 1.53483e-05 -6.48354e-07)
(318.255 1.03569e-05 -4.31102e-07)
(318.259 -2.1681e-06 6.42917e-08)
(318.28 -5.56244e-06 2.08992e-07)
(318.299 -6.53353e-06 2.74343e-07)
(318.311 -7.18209e-06 3.31548e-07)
(318.317 -3.50503e-06 1.93884e-07)
(318.318 -2.79449e-06 1.7269e-07)
(318.315 4.62066e-06 -1.37287e-07)
(318.308 7.37578e-06 -2.70188e-07)
(318.306 8.77827e-06 -3.63692e-07)
(318.311 7.04516e-06 -3.18802e-07)
(318.317 8.71773e-06 -4.0643e-07)
(318.324 5.49633e-06 -2.73829e-07)
(318.33 -8.92886e-06 3.3285e-07)
(318.338 -1.22953e-05 4.84453e-07)
(318.342 -1.24551e-05 5.07487e-07)
(318.344 -1.38173e-05 5.91277e-07)
(318.345 -1.27652e-05 5.68601e-07)
(318.347 -4.81602e-06 2.37049e-07)
(318.346 5.14883e-06 -1.6783e-07)
(318.339 7.55194e-06 -2.66036e-07)
(318.335 1.07039e-05 -3.98263e-07)
(318.331 1.06758e-05 -4.01316e-07)
(318.326 9.47593e-06 -3.70995e-07)
(318.32 3.63995e-06 -1.36645e-07)
(318.319 -2.1639e-06 9.0808e-08)
(318.322 -3.41829e-06 1.37914e-07)
(318.323 -5.1939e-06 2.09127e-07)
(318.322 -4.86404e-06 1.91816e-07)
(318.321 -2.59518e-06 9.12443e-08)
(318.32 2.55091e-06 -1.16547e-07)
(318.313 5.46928e-06 -2.34627e-07)
(318.307 5.65715e-06 -2.43605e-07)
(318.303 5.893e-06 -2.54284e-07)
(318.3 5.46295e-06 -2.34649e-07)
(318.298 2.98716e-06 -1.33535e-07)
(318.296 -2.13099e-06 7.83436e-08)
(318.302 -4.61791e-06 1.81449e-07)
(318.308 -5.36705e-06 2.14341e-07)
(318.314 -5.85869e-06 2.31009e-07)
(318.32 -5.37387e-06 2.00123e-07)
(318.326 -4.46234e-06 1.57688e-07)
(318.333 -3.31955e-06 1.14407e-07)
(318.331 -2.72677e-06 9.78678e-08)
(318.328 -2.65264e-06 1.00451e-07)
(318.325 -2.96723e-06 1.2396e-07)
(318.322 -2.18804e-06 9.04022e-08)
(318.319 -4.71679e-06 2.11841e-07)
(318.316 -2.60213e-06 1.09384e-07)
(318.321 -5.89856e-07 1.39399e-08)
(318.325 -9.51756e-08 -1.25605e-08)
(318.328 8.93934e-07 -5.11126e-08)
(318.33 1.87287e-06 -9.1257e-08)
(318.33 2.25529e-06 -1.03059e-07)
(318.33 2.05027e-06 -9.5182e-08)
(318.325 1.95894e-06 -9.38686e-08)
(318.322 1.20698e-06 -7.06699e-08)
(318.32 -1.41199e-07 -3.45734e-08)
(318.319 -5.99569e-07 -3.40228e-08)
(318.318 -6.65104e-07 -4.36486e-08)
(318.32 -7.40239e-07 -4.50808e-08)
(318.323 -6.96912e-07 -4.92943e-08)
(318.326 -6.90386e-07 -4.15569e-08)
(318.327 -1.24723e-06 -2.32385e-08)
(318.329 -2.13998e-06 1.15273e-10)
(318.332 -2.61062e-06 3.38017e-08)
(318.333 -3.00937e-06 6.99558e-08)
(318.331 -3.10135e-06 7.96216e-08)
(318.33 -3.35452e-06 9.51216e-08)
(318.329 -4.02703e-06 1.23948e-07)
(318.326 -3.86627e-06 1.11674e-07)
(318.322 -3.05619e-06 6.71749e-08)
(318.316 -2.24966e-06 1.23128e-08)
(318.313 -2.58603e-06 1.93394e-08)
(318.312 -2.66049e-06 1.8901e-08)
(318.311 -2.78601e-06 1.22843e-08)
(318.312 -3.59457e-06 5.10746e-08)
(318.313 -4.66812e-06 1.1661e-07)
(318.314 -5.22155e-06 1.46214e-07)
(318.315 -5.2711e-06 1.47934e-07)
(318.315 -4.88648e-06 1.29599e-07)
(318.315 -3.64129e-06 6.90879e-08)
(318.315 -1.49806e-06 -2.48448e-08)
(318.316 -5.70219e-07 -5.57002e-08)
(318.317 5.69421e-07 -8.82163e-08)
(318.319 1.13776e-06 -1.08431e-07)
(318.322 1.22901e-06 -1.05454e-07)
(318.326 1.12228e-06 -9.33655e-08)
(318.331 1.06257e-06 -8.51639e-08)
(318.334 1.19474e-06 -8.59132e-08)
(318.334 1.17594e-06 -8.45932e-08)
(318.334 1.13435e-06 -8.58963e-08)
(318.333 9.50239e-07 -8.43879e-08)
(318.331 8.48606e-07 -7.6318e-08)
(318.329 1.13256e-06 -8.16168e-08)
(318.327 1.77077e-06 -1.0547e-07)
(318.324 2.20886e-06 -1.18792e-07)
(318.322 2.13017e-06 -1.17154e-07)
(318.319 1.99522e-06 -9.98845e-08)
(318.318 1.87268e-06 -8.78666e-08)
(318.316 1.88257e-06 -8.34645e-08)
(318.315 1.89257e-06 -7.84023e-08)
(318.315 2.16335e-06 -9.76205e-08)
(318.316 2.11732e-06 -9.99045e-08)
(318.319 2.07247e-06 -1.06642e-07)
(318.321 2.20791e-06 -1.11104e-07)