/*--------------------------------*- C++ -*----------------------------------*\
| =========                 |                                                 |
| \\      /  F ield         | OpenFOAM: The Open Source CFD Toolbox           |
|  \\    /   O peration     | Version:  2406                                  |
|   \\  /    A nd           | Website:  www.openfoam.com                      |
|    \\/     M anipulation  |                                                 |
\*---------------------------------------------------------------------------*/
FoamFile
{
    version     2.0;
    format      ascii;
    arch        "LSB;label=32;scalar=64";
    class       volScalarField;
    location    "0.005";
    object      Ma;
}
// * * * * * * * * * * * * * * * * * * * * * * * * * * * * * * * * * * * * * //

dimensions      [0 0 0 0 0 0 0];

internalField   nonuniform List<scalar> 
83682
(
1.132
1.13192
1.12852
1.08076
1.02198
1.0191
1.01974
1.02008
1.02016
1.02035
1.0207
1.02072
1.02052
1.02033
1.0203
1.02026
1.02014
1.02
1.01986
1.01972
1.01963
1.01952
1.01933
1.0192
1.01916
1.01912
1.01908
1.01902
1.01894
1.01874
1.01821
1.01673
1.01325
1.00601
0.992413
0.969725
0.936381
0.893775
0.847605
0.80683
0.777568
0.765319
0.764687
0.764519
0.764502
0.764619
0.764886
0.765285
0.765713
0.766028
0.76622
0.766458
0.766862
0.767389
0.767787
0.767863
0.767826
0.767647
0.767253
0.766682
0.766153
0.765964
0.765996
0.766019
0.765795
0.763941
0.751671
0.681985
0.413836
0.0597223
0.000730626
5.95343e-07
2.49375e-11
4.65778e-15
5.24388e-15
4.86612e-15
2.61041e-15
2.88081e-15
4.8683e-15
8.68377e-15
1.01701e-14
9.55257e-15
8.3783e-15
4.64142e-15
6.94028e-15
8.5765e-15
7.82099e-15
3.25214e-15
3.8793e-15
3.60272e-15
5.1036e-15
5.28397e-15
6.0295e-15
8.30911e-15
7.18781e-15
9.17112e-15
7.39197e-15
8.08818e-15
5.23138e-15
4.7557e-15
1.70519e-15
3.0625e-15
2.60849e-15
2.241e-15
2.56225e-15
6.00324e-15
9.59813e-15
6.4997e-15
7.8227e-15
9.15204e-15
1.16152e-14
1.21965e-14
1.35848e-14
1.3844e-14
1.49826e-14
1.41914e-14
1.45443e-14
1.05714e-14
9.03265e-15
7.50095e-15
9.68384e-15
1.17607e-14
1.04026e-14
4.44269e-15
2.7067e-15
2.01553e-15
1.43517e-15
5.31252e-15
7.4802e-15
8.29697e-15
9.81939e-15
6.69786e-15
5.76845e-15
4.49996e-15
3.53072e-15
4.1716e-15
2.36677e-15
2.98714e-15
8.10532e-15
1.16881e-14
6.79702e-15
7.6452e-15
6.00716e-15
7.37543e-15
9.20652e-15
1.1038e-14
1.05865e-14
1.03598e-14
6.04938e-15
4.96156e-15
7.02332e-15
4.4186e-15
5.85677e-15
6.38002e-15
1.7226e-15
2.09674e-15
3.43899e-15
4.82402e-15
6.84297e-15
7.56259e-15
8.06371e-16
5.93672e-15
6.46873e-15
9.88066e-15
9.48484e-15
1.06949e-14
1.08901e-14
9.36574e-15
7.78741e-15
7.53687e-15
8.46108e-15
7.093e-15
8.30146e-15
4.28506e-15
2.67144e-15
4.36533e-15
4.8891e-15
5.44795e-15
4.90799e-15
5.53114e-15
6.28031e-15
4.41923e-15
6.58393e-15
2.28971e-15
4.37092e-15
5.11984e-15
2.8455e-15
8.12854e-16
2.31212e-15
5.73763e-15
6.06461e-15
5.65455e-15
7.34249e-15
9.95731e-15
8.42642e-15
6.39722e-15
2.91141e-15
2.55291e-15
8.1435e-16
2.64066e-15
4.6054e-15
1.01301e-14
4.56431e-15
9.63958e-16
1.90607e-15
4.40487e-15
7.7011e-15
1.04377e-14
1.34461e-14
1.25563e-14
8.20501e-15
7.70028e-15
7.61315e-15
8.50321e-15
1.10029e-14
1.25705e-14
1.40959e-14
1.08045e-14
9.55255e-15
9.18937e-15
6.16528e-15
6.14555e-15
4.96159e-15
3.3477e-15
5.98927e-15
8.7193e-15
9.90037e-15
1.27931e-14
1.24971e-14
1.04818e-14
9.35295e-15
9.89207e-15
1.04389e-14
1.27031e-14
4.19152e-15
8.72695e-15
1.5612e-14
1.19937e-14
1.04905e-14
7.55413e-15
4.01669e-15
3.38037e-15
6.58899e-15
1.04791e-14
1.09545e-14
1.03922e-14
6.02711e-15
4.8346e-15
4.62039e-15
9.05663e-15
1.90635e-14
3.08635e-14
3.39703e-14
3.42416e-14
2.99422e-14
1.79035e-14
7.52719e-15
8.76483e-15
1.05943e-14
7.75945e-15
1.25623e-14
1.21762e-14
8.29533e-15
8.21038e-15
8.72711e-15
1.02141e-14
1.25441e-14
1.14217e-14
9.42805e-15
4.02708e-15
1.78773e-15
2.754e-15
2.71745e-15
3.73029e-15
5.86089e-15
6.07842e-15
6.7338e-15
3.79517e-15
6.25198e-15
5.59393e-15
8.95861e-15
1.36647e-14
1.21133e-14
9.63728e-15
5.9767e-15
8.6208e-15
8.64898e-15
6.72331e-15
8.83324e-15
7.39515e-15
6.81328e-15
4.50442e-15
6.02164e-15
6.95122e-15
5.24164e-15
8.15534e-15
1.24988e-14
1.03271e-14
9.14149e-15
1.29197e-14
1.34755e-14
1.37147e-14
7.65892e-15
6.8318e-15
7.08585e-15
7.22665e-15
5.76535e-15
7.23039e-15
8.56429e-15
1.11552e-14
1.16791e-14
1.07552e-14
1.3523e-14
1.50973e-14
1.08692e-14
8.28193e-15
1.03158e-14
1.02517e-14
5.85856e-15
5.58463e-15
4.24704e-15
7.68699e-15
6.51959e-15
6.53075e-15
1.27672e-14
2.13134e-14
2.50978e-14
2.07529e-14
1.7643e-14
1.32004e-14
9.70525e-15
1.05078e-14
1.49279e-14
1.79068e-14
1.7278e-14
1.42176e-14
8.29503e-15
3.1367e-15
1.44425e-15
4.76688e-15
5.82204e-15
1.20213e-14
1.87944e-14
1.5843e-14
1.07052e-14
5.40189e-15
7.91621e-15
1.44381e-14
2.00033e-14
1.3446e-14
4.61823e-15
5.0756e-15
9.78084e-15
1.21825e-14
1.14533e-14
1.15998e-14
8.65886e-15
2.76374e-15
1.03771e-14
1.63114e-14
1.87194e-14
2.47312e-14
2.82562e-14
2.98932e-14
3.08894e-14
1.92886e-14
1.33259e-14
8.74547e-15
2.76929e-15
1.14987e-15
3.93679e-15
5.85251e-15
5.70711e-15
9.18289e-15
1.19127e-14
1.0206e-14
1.05865e-14
1.37965e-14
1.01558e-14
6.81014e-15
5.33989e-15
5.82133e-15
3.18199e-15
4.02527e-15
7.83363e-15
1.61025e-14
2.10493e-14
1.82528e-14
1.88984e-14
2.14981e-14
1.46611e-14
9.31529e-15
8.64758e-15
1.02856e-14
1.02311e-14
1.34683e-14
1.21682e-14
1.39103e-14
1.66862e-14
7.62288e-15
3.34591e-15
6.74925e-15
1.00287e-14
9.75118e-15
9.45782e-15
1.13605e-14
8.79255e-15
1.18637e-14
7.81015e-15
4.56416e-15
6.88266e-15
5.24119e-15
6.00829e-15
6.1487e-15
2.69074e-15
8.43506e-15
9.40717e-15
6.79764e-15
9.0132e-15
1.2136e-14
1.01268e-14
6.34326e-15
4.93617e-15
1.06078e-14
7.8926e-15
6.86047e-15
8.8162e-15
5.63651e-15
7.52789e-15
8.79168e-15
9.46798e-15
5.15532e-15
8.54339e-15
1.17058e-14
1.09443e-14
1.40231e-14
1.90146e-14
1.10656e-14
1.16832e-14
2.04027e-14
1.60059e-14
1.60653e-14
2.12885e-14
1.92207e-14
1.92559e-14
2.16617e-14
1.22248e-14
7.22361e-15
1.54482e-14
1.23459e-14
8.46292e-15
8.02429e-15
1.10807e-14
1.17773e-14
1.08776e-14
1.16115e-14
1.09142e-14
1.2886e-14
1.32024e-14
1.01269e-14
7.67321e-15
8.28484e-15
9.8282e-15
1.04939e-14
1.23499e-14
1.66337e-14
1.61427e-14
1.41812e-14
1.55137e-14
1.38992e-14
1.16889e-14
1.47723e-14
2.23592e-14
1.83751e-14
1.81998e-14
1.42503e-14
1.12731e-14
1.16486e-14
7.67673e-15
6.29444e-15
5.46002e-15
4.47673e-15
4.01998e-15
5.25643e-15
7.70789e-15
8.3257e-15
1.33e-14
7.89575e-15
3.32044e-15
4.86128e-15
5.1336e-15
5.10838e-15
7.77587e-15
1.18994e-14
1.36135e-14
1.38089e-14
1.28819e-14
1.42364e-14
1.70577e-14
1.3661e-14
7.90346e-15
4.96927e-15
7.0567e-15
9.43572e-15
9.23614e-15
8.30841e-15
7.94243e-15
4.45883e-15
4.28884e-15
7.1376e-15
9.59905e-15
9.3823e-15
1.24272e-14
1.45723e-14
9.37591e-15
3.56709e-15
9.61266e-15
1.7479e-14
1.85711e-14
1.56497e-14
1.36462e-14
1.31739e-14
1.32156e-14
1.34348e-14
1.20784e-14
4.96412e-15
8.6009e-15
4.7195e-15
2.09962e-15
7.58254e-15
1.3082e-14
1.46697e-14
1.61111e-14
1.66038e-14
1.39253e-14
1.17889e-14
1.38954e-14
1.81449e-14
2.81012e-14
3.74481e-14
3.2501e-14
2.2377e-14
1.74523e-14
1.46336e-14
8.47429e-15
7.03369e-15
7.13882e-15
6.33755e-15
6.69301e-15
1.02526e-14
1.57189e-14
1.72758e-14
1.23908e-14
9.73016e-15
1.12339e-14
9.9998e-15
8.35746e-15
5.91351e-15
6.12585e-15
7.28121e-15
9.47572e-15
8.8313e-15
4.32589e-15
4.24988e-15
8.83324e-15
1.01436e-14
1.03729e-14
1.63789e-14
1.47978e-14
1.3127e-14
1.59815e-14
1.24926e-14
1.09039e-14
1.11612e-14
1.27273e-14
1.05402e-14
1.11261e-14
8.38068e-15
4.02017e-15
5.68341e-15
4.79167e-15
6.3619e-15
8.32957e-15
6.80698e-15
9.15367e-15
9.2649e-15
9.53462e-15
9.76006e-15
9.63096e-15
1.46187e-14
1.65353e-14
1.10722e-14
1.27223e-14
1.20711e-14
1.28332e-14
1.11443e-14
6.07279e-15
7.79748e-15
6.2789e-15
1.18421e-14
2.21286e-14
1.62449e-14
1.61052e-14
1.59877e-14
1.68672e-14
7.67342e-15
4.91683e-15
4.91026e-15
7.60178e-15
1.46925e-14
2.38287e-14
1.57846e-14
1.08044e-14
1.02958e-14
1.05582e-14
1.6145e-14
2.18952e-14
1.70032e-14
1.16241e-14
8.55629e-15
5.06414e-15
3.43184e-15
1.0257e-14
9.63734e-15
6.13334e-15
9.58657e-15
8.84867e-15
8.80508e-15
8.20067e-15
1.1383e-14
1.51368e-14
1.4282e-14
1.41392e-14
1.68664e-14
1.58783e-14
1.6452e-14
1.60773e-14
1.14927e-14
8.44616e-15
1.25706e-14
1.5824e-14
1.42385e-14
1.11735e-14
1.84347e-14
1.62201e-14
9.43703e-15
7.48257e-15
6.091e-15
5.70741e-15
4.50561e-15
9.17707e-15
9.6894e-15
7.24629e-15
6.39602e-15
5.97104e-15
7.91548e-15
6.25599e-15
6.06129e-15
4.81047e-15
2.97206e-15
6.62608e-15
1.13913e-14
1.36269e-14
1.03178e-14
1.02734e-14
8.25446e-15
1.08526e-14
1.29638e-14
1.03501e-14
8.69762e-15
8.86752e-15
1.00036e-14
8.61937e-15
9.70693e-15
7.34279e-15
6.78395e-15
1.33726e-14
2.02597e-14
2.3919e-14
1.81951e-14
1.41949e-14
1.22179e-14
9.50766e-15
1.22082e-14
1.27377e-14
1.07711e-14
1.59096e-14
1.88308e-14
2.19666e-14
1.98401e-14
1.75778e-14
1.13043e-14
1.23034e-14
2.49883e-14
2.17421e-14
1.132
1.13192
1.12852
1.08076
1.02198
1.0191
1.01974
1.02008
1.02016
1.02035
1.0207
1.02072
1.02052
1.02033
1.0203
1.02026
1.02014
1.02
1.01986
1.01972
1.01963
1.01952
1.01933
1.0192
1.01916
1.01912
1.01908
1.01902
1.01894
1.01874
1.01821
1.01673
1.01325
1.00601
0.992413
0.969725
0.936381
0.893775
0.847605
0.80683
0.777568
0.765319
0.764687
0.764519
0.764502
0.764619
0.764886
0.765285
0.765713
0.766028
0.76622
0.766458
0.766862
0.767389
0.767787
0.767863
0.767826
0.767647
0.767253
0.766682
0.766153
0.765964
0.765996
0.766019
0.765795
0.763941
0.751671
0.681985
0.413836
0.0597223
0.000730626
5.95343e-07
2.49389e-11
7.64158e-15
8.6837e-15
9.20179e-15
8.32358e-15
4.50524e-15
7.47829e-15
1.25449e-14
1.41047e-14
1.07423e-14
6.90074e-15
4.11698e-15
6.77526e-15
8.23317e-15
6.99983e-15
4.41141e-15
4.06437e-15
2.63587e-15
4.36382e-15
3.43552e-15
3.45214e-15
9.8373e-15
9.58766e-15
1.26214e-14
8.34174e-15
6.93165e-15
5.57029e-15
5.42245e-15
4.76201e-15
5.49755e-15
3.38737e-15
4.52465e-15
6.06656e-15
8.32248e-15
8.11384e-15
6.68269e-15
9.56982e-15
1.20357e-14
1.2728e-14
1.35334e-14
1.43834e-14
1.44768e-14
1.51273e-14
1.47974e-14
1.33527e-14
1.11772e-14
1.00834e-14
8.74482e-15
1.02736e-14
1.07238e-14
8.07458e-15
6.54926e-15
6.43245e-15
6.05437e-15
5.20097e-15
5.84679e-15
4.60338e-15
5.74719e-15
8.24145e-15
7.63791e-15
4.45865e-15
3.83822e-15
5.76547e-15
9.33067e-15
5.40165e-15
5.33124e-15
1.01484e-14
1.27362e-14
6.58835e-15
6.91731e-15
9.69293e-15
1.26164e-14
1.08205e-14
9.28713e-15
8.76342e-15
8.75187e-15
5.09092e-15
4.28498e-15
4.67182e-15
2.87172e-15
4.31838e-15
6.01937e-15
2.77484e-15
4.35836e-15
6.21858e-15
7.1029e-15
8.16287e-15
4.33206e-15
5.6564e-15
7.06142e-15
9.33696e-15
1.05642e-14
1.47313e-14
1.46912e-14
1.32328e-14
1.07351e-14
1.03417e-14
8.69005e-15
7.72003e-15
8.21021e-15
8.0727e-15
7.81633e-15
7.0263e-15
6.40938e-15
7.9197e-15
9.31416e-15
8.72725e-15
1.10918e-14
7.81406e-15
7.13415e-15
9.71287e-15
4.44172e-15
3.92434e-15
7.08727e-15
3.97746e-15
1.69993e-15
3.07429e-15
4.41437e-15
5.68863e-15
6.62524e-15
7.27686e-15
1.0371e-14
1.01985e-14
5.2521e-15
2.57525e-15
2.11395e-15
2.70232e-15
1.00023e-15
2.28225e-15
4.89177e-15
3.32893e-15
1.69357e-15
7.76703e-16
2.59836e-15
6.16679e-15
8.37947e-15
9.8056e-15
5.28291e-15
6.75029e-15
7.29534e-15
8.72103e-15
8.47756e-15
9.50076e-15
1.04311e-14
1.1252e-14
9.13844e-15
8.92599e-15
7.4961e-15
5.1525e-15
4.8931e-15
4.66993e-15
3.65972e-15
6.70194e-15
1.09872e-14
1.21511e-14
1.49314e-14
1.24452e-14
9.53619e-15
1.01832e-14
9.60431e-15
8.9012e-15
7.34842e-15
1.56979e-15
8.22159e-15
1.26356e-14
1.13844e-14
1.05686e-14
6.68425e-15
3.91623e-15
5.05415e-15
7.97173e-15
9.44525e-15
1.11344e-14
1.17932e-14
8.37729e-15
5.78453e-15
5.97913e-15
9.31457e-15
1.47284e-14
2.27113e-14
2.57932e-14
2.44007e-14
2.17053e-14
1.39885e-14
7.26265e-15
7.30366e-15
6.7525e-15
6.61114e-15
1.23746e-14
1.10739e-14
8.57821e-15
7.38535e-15
6.4264e-15
7.11654e-15
7.04953e-15
6.38775e-15
3.67021e-15
1.1372e-15
2.85176e-15
2.51338e-15
3.65513e-15
1.73383e-15
3.0183e-15
4.31414e-15
4.88209e-15
5.8647e-15
4.58206e-15
5.31995e-15
9.25495e-15
1.38387e-14
1.30585e-14
1.24064e-14
7.4616e-15
9.55379e-15
9.22812e-15
9.19553e-15
9.68732e-15
7.68291e-15
5.98159e-15
3.02227e-15
3.73384e-15
7.21671e-15
6.13789e-15
8.91613e-15
1.15841e-14
1.12585e-14
9.65618e-15
9.9739e-15
1.36146e-14
1.19999e-14
7.87971e-15
9.51531e-15
7.55096e-15
7.93433e-15
4.98216e-15
8.41617e-15
1.16147e-14
1.37351e-14
1.39041e-14
1.34318e-14
1.42791e-14
1.50057e-14
1.27199e-14
1.02726e-14
9.05863e-15
7.16636e-15
4.87101e-15
5.16992e-15
2.16874e-15
5.57667e-15
8.0811e-15
8.20861e-15
1.30269e-14
1.99023e-14
1.88698e-14
1.85474e-14
1.59569e-14
1.54425e-14
1.23997e-14
1.1174e-14
1.39622e-14
1.36687e-14
8.30345e-15
1.13367e-14
9.44675e-15
7.58178e-15
1.5681e-15
5.90959e-15
8.02533e-15
1.19579e-14
1.41583e-14
1.14924e-14
9.49668e-15
5.80673e-15
7.04452e-15
1.28603e-14
1.21001e-14
1.06177e-14
5.25657e-15
4.35624e-15
6.99122e-15
8.84107e-15
8.23033e-15
8.18865e-15
8.39828e-15
2.90506e-15
8.35809e-15
1.46696e-14
1.69969e-14
2.03447e-14
2.24663e-14
2.32071e-14
1.98009e-14
1.62975e-14
1.32686e-14
8.58811e-15
2.60224e-15
2.11734e-15
3.51953e-15
6.31321e-15
6.21103e-15
7.22645e-15
9.32016e-15
8.92537e-15
8.42081e-15
1.12137e-14
9.78051e-15
7.36463e-15
6.81426e-15
5.83024e-15
3.99004e-15
5.26233e-15
7.98992e-15
1.4485e-14
1.60432e-14
1.61231e-14
1.56217e-14
1.61178e-14
1.3528e-14
1.04537e-14
8.55008e-15
8.43412e-15
1.03129e-14
1.01481e-14
9.40712e-15
1.12152e-14
1.06876e-14
6.79585e-15
1.15845e-15
4.98724e-15
7.17106e-15
9.50569e-15
1.03062e-14
9.6135e-15
7.84154e-15
7.7662e-15
7.3264e-15
3.21558e-15
3.55918e-15
3.98198e-15
5.86365e-15
6.49036e-15
3.41991e-15
8.61376e-15
8.62411e-15
7.8806e-15
1.1282e-14
1.25497e-14
1.07102e-14
5.98518e-15
6.12882e-15
1.04616e-14
1.06244e-14
1.0871e-14
9.21651e-15
7.72804e-15
9.50149e-15
8.56411e-15
6.91345e-15
3.73771e-15
5.90548e-15
7.24875e-15
9.20743e-15
1.05318e-14
1.2088e-14
9.29131e-15
9.57973e-15
1.42188e-14
1.36296e-14
1.32608e-14
1.55291e-14
1.70516e-14
1.60599e-14
1.48293e-14
1.11044e-14
6.40432e-15
9.59559e-15
1.02692e-14
8.27439e-15
8.16738e-15
9.97097e-15
9.16819e-15
9.11275e-15
9.22094e-15
8.56377e-15
1.03178e-14
1.07125e-14
8.5946e-15
7.19866e-15
7.20013e-15
9.90006e-15
1.00011e-14
1.00085e-14
1.33878e-14
1.42517e-14
1.31667e-14
1.42471e-14
1.26517e-14
1.34884e-14
1.63889e-14
1.70233e-14
1.62391e-14
1.58535e-14
1.47647e-14
1.23349e-14
9.79497e-15
5.06456e-15
4.64591e-15
3.97452e-15
4.34089e-15
3.27853e-15
3.73007e-15
5.42672e-15
7.89831e-15
7.78674e-15
6.12427e-15
5.12834e-15
4.26102e-15
3.56888e-15
5.12245e-15
7.379e-15
9.90664e-15
9.8109e-15
1.21879e-14
1.31196e-14
1.22872e-14
1.28303e-14
1.16393e-14
9.16832e-15
5.61369e-15
7.71627e-15
9.74797e-15
9.27368e-15
8.35843e-15
8.13162e-15
9.22979e-15
5.83485e-15
6.86318e-15
6.46497e-15
7.49578e-15
8.05853e-15
8.5921e-15
9.19249e-15
6.0448e-15
4.88278e-15
1.16786e-14
1.46687e-14
1.33921e-14
1.42472e-14
1.32419e-14
1.32027e-14
1.44257e-14
1.24448e-14
5.94802e-15
8.30325e-15
3.28631e-15
2.53388e-15
6.4022e-15
1.07582e-14
1.1425e-14
1.40259e-14
1.53772e-14
1.38269e-14
1.17145e-14
1.43191e-14
1.83957e-14
2.34314e-14
2.70179e-14
2.59923e-14
1.86018e-14
1.50186e-14
1.14558e-14
7.39717e-15
6.88519e-15
8.38366e-15
7.24072e-15
7.00749e-15
8.26438e-15
1.14662e-14
1.17572e-14
1.22237e-14
7.98681e-15
8.68387e-15
9.44742e-15
7.86562e-15
5.55477e-15
7.87165e-15
9.1172e-15
6.74208e-15
9.7058e-15
5.10729e-15
5.30819e-15
8.40807e-15
1.15224e-14
1.1248e-14
1.24445e-14
1.34808e-14
1.17987e-14
1.28334e-14
1.20334e-14
1.04207e-14
1.0341e-14
1.27084e-14
1.02907e-14
1.00962e-14
7.46522e-15
3.55589e-15
3.39212e-15
5.22975e-15
8.84612e-15
8.80239e-15
7.26794e-15
1.13382e-14
1.07619e-14
9.25169e-15
9.71416e-15
8.24563e-15
1.29139e-14
1.76087e-14
1.07581e-14
1.38914e-14
1.22513e-14
1.46513e-14
9.68701e-15
6.57449e-15
7.56559e-15
7.99365e-15
1.40618e-14
1.8067e-14
1.84383e-14
1.63781e-14
1.52412e-14
1.23916e-14
5.87371e-15
6.97397e-15
5.57034e-15
9.21395e-15
1.22562e-14
1.49945e-14
1.00176e-14
8.32332e-15
8.76355e-15
9.19832e-15
1.1877e-14
1.64815e-14
1.62572e-14
1.28809e-14
7.6387e-15
4.22112e-15
3.70993e-15
8.74195e-15
1.07133e-14
7.53302e-15
9.23669e-15
9.95897e-15
1.0393e-14
1.0589e-14
1.11545e-14
1.45914e-14
1.46216e-14
1.38082e-14
1.70787e-14
1.82132e-14
1.607e-14
1.55604e-14
9.60352e-15
8.84581e-15
1.28579e-14
1.51513e-14
1.64164e-14
1.04913e-14
1.35345e-14
1.55158e-14
1.17727e-14
7.54957e-15
2.20066e-15
3.06111e-15
3.78187e-15
8.9216e-15
1.22711e-14
1.0879e-14
7.33488e-15
8.8391e-15
7.02957e-15
4.08908e-15
7.65806e-15
7.03303e-15
6.0811e-15
1.01159e-14
1.40752e-14
1.1715e-14
8.86986e-15
9.09092e-15
6.85955e-15
9.47658e-15
1.17321e-14
1.27981e-14
8.32501e-15
9.4743e-15
1.05938e-14
1.02511e-14
7.46978e-15
5.86517e-15
5.67786e-15
1.23136e-14
1.86941e-14
2.26207e-14
1.83145e-14
1.45025e-14
1.26528e-14
9.69653e-15
1.15446e-14
1.55231e-14
1.22808e-14
1.54385e-14
1.87707e-14
1.79442e-14
1.62227e-14
1.41133e-14
1.14437e-14
8.65563e-15
1.71174e-14
1.66738e-14
1.132
1.13192
1.12852
1.08076
1.02198
1.0191
1.01974
1.02008
1.02016
1.02035
1.0207
1.02072
1.02052
1.02033
1.0203
1.02026
1.02014
1.02
1.01986
1.01972
1.01963
1.01952
1.01933
1.0192
1.01916
1.01912
1.01908
1.01902
1.01894
1.01874
1.01821
1.01673
1.01325
1.00601
0.992413
0.969725
0.936381
0.893775
0.847605
0.80683
0.777568
0.765319
0.764687
0.764519
0.764502
0.764619
0.764886
0.765285
0.765713
0.766028
0.76622
0.766458
0.766862
0.767389
0.767787
0.767863
0.767826
0.767647
0.767253
0.766682
0.766153
0.765964
0.765996
0.766019
0.765795
0.763941
0.751671
0.681985
0.413836
0.0597223
0.000730626
5.95343e-07
2.49447e-11
3.90806e-15
6.32644e-15
7.95486e-15
8.84103e-15
7.81726e-15
9.40156e-15
1.35931e-14
1.27995e-14
9.16267e-15
6.17917e-15
2.63412e-15
4.48342e-15
6.09185e-15
5.80745e-15
4.99496e-15
4.20327e-15
4.5761e-15
7.09473e-15
1.94271e-15
3.21035e-15
6.18688e-15
9.6902e-15
1.13495e-14
8.50728e-15
8.59093e-15
6.77321e-15
4.51848e-15
4.97605e-15
4.71008e-15
5.63439e-15
7.61843e-15
1.15419e-14
1.42693e-14
8.8007e-15
3.4399e-15
1.08701e-14
1.83986e-14
1.58228e-14
1.47159e-14
1.28789e-14
1.30728e-14
1.13707e-14
1.04357e-14
9.87351e-15
1.07606e-14
1.32891e-14
9.37155e-15
6.29889e-15
7.06451e-15
6.61205e-15
7.69005e-15
1.26218e-14
1.25441e-14
7.96341e-15
3.8307e-15
2.8187e-16
2.65414e-15
6.36414e-15
5.26064e-15
2.86272e-15
2.30207e-15
7.08082e-15
6.8915e-15
4.10965e-15
4.76983e-15
7.93296e-15
1.09472e-14
5.3577e-15
5.21999e-15
1.2474e-14
1.72189e-14
1.58975e-14
1.30039e-14
1.27452e-14
1.3666e-14
7.91853e-15
5.97641e-15
7.64334e-15
8.79028e-15
9.16912e-15
1.1329e-14
4.91446e-15
8.61719e-15
8.96019e-15
8.32205e-15
8.05805e-15
7.24209e-15
9.03487e-15
7.79575e-15
6.9957e-15
9.05083e-15
9.7245e-15
8.53573e-15
1.23016e-14
1.1342e-14
1.20749e-14
9.21762e-15
7.85502e-15
9.41564e-15
1.00311e-14
1.28051e-14
8.56005e-15
5.85882e-15
7.36845e-15
6.96014e-15
4.82532e-15
5.28339e-15
8.89279e-15
7.08521e-15
5.59533e-15
2.62507e-15
1.03116e-14
1.11619e-14
6.44343e-15
2.46755e-15
3.22459e-15
6.33011e-15
1.02423e-14
6.77895e-15
8.64422e-15
8.97445e-15
9.22484e-15
8.42366e-15
4.9776e-15
2.27207e-15
3.496e-15
4.29962e-15
2.78894e-15
2.07613e-15
3.45123e-15
2.64492e-15
1.79023e-15
1.09518e-15
3.62631e-15
5.24689e-15
6.7818e-15
1.12753e-14
1.04838e-14
1.06149e-14
8.04937e-15
7.62968e-15
6.72759e-15
6.95146e-15
7.74926e-15
8.52877e-15
7.13524e-15
4.74862e-15
5.64045e-15
5.42909e-15
4.7067e-15
3.80576e-15
6.83387e-15
1.17357e-14
1.57113e-14
1.89891e-14
1.41083e-14
7.87826e-15
1.27294e-14
7.70884e-15
1.02267e-14
5.05291e-15
1.93952e-15
5.0451e-15
7.84322e-15
8.64304e-15
9.61836e-15
6.8329e-15
5.95625e-15
7.06801e-15
1.05039e-14
1.02193e-14
1.11331e-14
1.09703e-14
9.76145e-15
9.22249e-15
7.12029e-15
5.39228e-15
6.71214e-15
1.11153e-14
1.13505e-14
9.77539e-15
8.93419e-15
7.56475e-15
6.19344e-15
5.04802e-15
4.54433e-15
8.30356e-15
1.35236e-14
1.0087e-14
6.20621e-15
7.74376e-15
7.10168e-15
4.79652e-15
2.36295e-15
2.43008e-15
3.00106e-15
3.63394e-15
3.82835e-15
2.30985e-15
5.75855e-15
1.99701e-15
4.18104e-15
3.86317e-15
9.39143e-16
1.49561e-15
3.46055e-15
5.25885e-15
7.16557e-15
1.08265e-14
9.87251e-15
9.07413e-15
7.33567e-15
7.40466e-15
6.67469e-15
7.69718e-15
1.0356e-14
5.05411e-15
3.70187e-15
5.31564e-15
1.28592e-15
2.89168e-15
2.32818e-15
6.02786e-15
9.6964e-15
1.12431e-14
9.9976e-15
8.47762e-15
1.19497e-14
1.22481e-14
6.43966e-15
6.47044e-15
7.62156e-15
5.53996e-15
5.62647e-15
1.08118e-14
1.29957e-14
1.40805e-14
1.31734e-14
1.24622e-14
1.31725e-14
1.25521e-14
1.06737e-14
7.93473e-15
5.91666e-15
5.48167e-15
6.80396e-15
9.93373e-15
4.53912e-15
6.6266e-15
6.1853e-15
6.36753e-15
1.24511e-14
1.96003e-14
1.7072e-14
1.33538e-14
1.18531e-14
1.24895e-14
1.1069e-14
1.26097e-14
1.21451e-14
1.08577e-14
1.22459e-14
1.78805e-14
1.19e-14
6.82287e-15
1.38872e-15
6.20305e-15
7.76706e-15
7.48174e-15
8.87186e-15
9.07397e-15
5.94356e-15
4.38732e-15
3.12451e-15
6.01927e-15
7.44726e-15
9.00632e-15
5.27884e-15
4.60458e-15
3.08997e-15
1.51092e-15
3.78514e-15
4.34801e-15
5.21042e-15
2.47216e-15
7.48388e-15
1.48403e-14
1.5576e-14
1.42753e-14
1.53312e-14
1.48252e-14
1.37558e-14
1.27358e-14
9.32002e-15
7.29356e-15
3.80146e-15
1.38696e-15
2.5438e-15
4.36089e-15
5.99469e-15
5.75173e-15
5.90729e-15
6.71471e-15
6.43399e-15
5.64294e-15
7.02413e-15
6.24051e-15
6.25653e-15
6.50614e-15
4.67309e-15
5.54361e-15
6.95794e-15
9.2793e-15
8.17542e-15
8.3615e-15
8.71369e-15
7.48821e-15
7.80221e-15
8.77448e-15
9.33849e-15
7.38771e-15
6.0891e-15
6.5727e-15
7.0818e-15
5.73716e-15
3.32188e-15
2.92238e-15
2.39707e-15
4.90063e-15
6.9097e-15
7.6981e-15
8.14514e-15
1.01275e-14
7.17322e-15
8.91818e-15
6.37783e-15
4.02193e-15
5.23247e-15
5.69999e-15
6.94425e-15
6.2056e-15
5.05407e-15
5.56608e-15
7.01245e-15
1.00643e-14
9.14607e-15
8.249e-15
6.69366e-15
4.77835e-15
3.97886e-15
8.87148e-15
1.07647e-14
1.51736e-14
8.53663e-15
7.64259e-15
1.20507e-14
9.63304e-15
4.99094e-15
3.42869e-15
3.64146e-15
3.93311e-15
6.21388e-15
8.63691e-15
7.99859e-15
6.46095e-15
7.35054e-15
1.11794e-14
1.21317e-14
1.09966e-14
8.9324e-15
1.00758e-14
8.87764e-15
7.95179e-15
6.39726e-15
4.49934e-15
5.82028e-15
7.18351e-15
5.81668e-15
4.72611e-15
6.53331e-15
6.14171e-15
6.13819e-15
5.08164e-15
5.83533e-15
5.41134e-15
6.60052e-15
6.30427e-15
3.92266e-15
5.44024e-15
6.97349e-15
6.66799e-15
6.33072e-15
6.9364e-15
6.92822e-15
7.09324e-15
8.32732e-15
1.09775e-14
1.21549e-14
1.19924e-14
1.12824e-14
1.05085e-14
1.00496e-14
1.02766e-14
8.21867e-15
6.16639e-15
4.51128e-15
1.50076e-15
1.51478e-15
2.11436e-15
1.93445e-15
1.55281e-15
3.55151e-15
5.36242e-15
3.67357e-15
3.88083e-15
2.69927e-15
2.27592e-15
3.09454e-15
4.6932e-15
6.97398e-15
7.44442e-15
4.89307e-15
7.8271e-15
8.76077e-15
8.36846e-15
8.29514e-15
9.82885e-15
1.00969e-14
7.86262e-15
9.76953e-15
1.12756e-14
9.54171e-15
8.44034e-15
8.02456e-15
6.81337e-15
7.94232e-15
5.286e-15
3.91651e-15
4.81584e-15
5.81777e-15
5.15098e-15
7.64612e-15
8.93846e-15
1.84775e-15
7.07958e-15
9.39771e-15
1.02122e-14
1.06988e-14
1.03503e-14
1.03464e-14
9.5927e-15
7.25648e-15
3.44891e-15
5.50407e-15
2.87836e-15
2.15088e-15
4.48717e-15
6.03374e-15
8.14102e-15
1.11747e-14
1.30085e-14
1.16931e-14
1.11018e-14
1.25539e-14
1.24879e-14
1.4299e-14
1.47504e-14
1.43345e-14
1.06953e-14
7.61968e-15
5.11327e-15
2.35473e-15
3.00357e-15
7.0233e-15
8.49547e-15
6.51216e-15
5.0601e-15
7.11012e-15
8.55535e-15
6.71544e-15
5.76713e-15
9.12467e-15
8.44143e-15
5.9165e-15
4.40406e-15
9.60396e-15
7.24796e-15
5.87799e-15
8.61478e-15
5.09122e-15
3.96016e-15
5.67704e-15
8.76992e-15
1.073e-14
9.65381e-15
8.08146e-15
7.61965e-15
8.01299e-15
6.90237e-15
7.42226e-15
8.30179e-15
8.98693e-15
9.4561e-15
1.05951e-14
5.96988e-15
4.11122e-15
4.55752e-15
5.86748e-15
6.51907e-15
7.0726e-15
3.34007e-15
6.50187e-15
7.34473e-15
5.32528e-15
4.85951e-15
3.93988e-15
8.19622e-15
1.15077e-14
8.43393e-15
8.25122e-15
9.54724e-15
9.79009e-15
6.93989e-15
5.69657e-15
5.03566e-15
7.10702e-15
8.73408e-15
9.75746e-15
1.08869e-14
1.22909e-14
1.4571e-14
6.82413e-15
7.98595e-15
6.45895e-15
4.52977e-15
6.54065e-15
8.33964e-15
8.09399e-15
6.034e-15
4.47988e-15
6.63539e-15
7.8599e-15
9.08842e-15
1.14096e-14
1.21623e-14
9.84746e-15
7.32034e-15
5.8705e-15
5.0543e-15
7.89775e-15
1.04616e-14
1.12835e-14
9.47786e-15
7.15189e-15
6.2037e-15
8.40849e-15
1.05726e-14
1.26921e-14
1.42771e-14
1.42601e-14
1.29092e-14
1.36596e-14
1.09748e-14
8.81645e-15
6.48739e-15
7.36682e-15
1.07947e-14
1.17188e-14
1.35455e-14
1.21657e-14
9.72836e-15
9.92646e-15
8.53357e-15
5.78779e-15
5.25311e-15
4.46916e-15
4.96217e-15
5.09269e-15
5.82576e-15
8.33344e-15
9.58158e-15
6.64119e-15
5.32727e-15
4.54298e-15
9.3064e-15
1.26339e-14
7.46821e-15
8.5537e-15
1.029e-14
8.38689e-15
9.55671e-15
7.22798e-15
6.33378e-15
7.92118e-15
9.86379e-15
1.01036e-14
8.62312e-15
1.06691e-14
1.08677e-14
1.24248e-14
7.07538e-15
5.19761e-15
5.90406e-15
7.18198e-15
1.13393e-14
1.32708e-14
9.6736e-15
8.07577e-15
7.14533e-15
6.30035e-15
6.92814e-15
7.83146e-15
7.99799e-15
1.05903e-14
1.33296e-14
1.26464e-14
9.73545e-15
9.89947e-15
8.50152e-15
5.08666e-15
7.1401e-15
8.77926e-15
1.132
1.13192
1.12852
1.08076
1.02198
1.0191
1.01974
1.02008
1.02016
1.02035
1.0207
1.02072
1.02052
1.02033
1.0203
1.02026
1.02014
1.02
1.01986
1.01972
1.01963
1.01952
1.01933
1.0192
1.01916
1.01912
1.01908
1.01902
1.01894
1.01874
1.01821
1.01673
1.01325
1.00601
0.992413
0.969725
0.936381
0.893775
0.847605
0.80683
0.777568
0.765319
0.764687
0.764519
0.764502
0.764619
0.764886
0.765285
0.765713
0.766028
0.76622
0.766458
0.766862
0.767389
0.767787
0.767863
0.767826
0.767647
0.767253
0.766682
0.766153
0.765964
0.765996
0.766019
0.765795
0.763941
0.751671
0.681985
0.413836
0.0597223
0.000730626
5.95343e-07
2.49435e-11
4.57472e-15
2.93849e-15
7.87311e-15
7.55727e-15
6.08651e-15
7.67696e-15
8.5972e-15
1.1069e-14
7.74758e-15
5.6482e-15
4.99126e-15
4.82229e-15
5.34814e-15
7.10139e-15
6.26949e-15
4.70966e-15
5.56511e-15
5.22428e-15
4.03731e-15
2.64713e-15
2.2573e-15
4.31267e-15
6.0808e-15
4.61662e-15
6.76057e-15
6.99691e-15
5.46881e-15
2.52541e-15
9.63834e-16
3.73219e-15
4.9269e-15
6.15193e-15
8.47157e-15
7.09946e-15
6.55744e-15
1.29352e-14
2.03507e-14
1.73913e-14
1.30154e-14
1.04144e-14
9.66246e-15
8.73127e-15
7.74823e-15
8.86335e-15
8.76259e-15
8.62767e-15
8.56236e-15
8.09132e-15
6.04598e-15
7.1086e-15
5.68603e-15
8.08526e-15
1.00593e-14
7.86448e-15
5.26237e-15
5.41033e-15
7.12759e-15
6.35289e-15
5.08163e-15
4.08382e-15
4.7415e-15
7.4664e-15
8.44698e-15
6.6545e-15
9.52413e-15
1.18597e-14
1.28877e-14
1.16089e-14
9.96682e-15
1.30921e-14
1.91706e-14
2.19732e-14
1.93611e-14
1.6089e-14
1.44978e-14
1.17262e-14
9.31537e-15
1.00242e-14
8.77532e-15
9.70393e-15
1.02548e-14
7.95281e-15
7.90328e-15
1.12322e-14
1.11656e-14
1.08854e-14
8.21451e-15
8.82189e-15
8.52103e-15
8.22623e-15
7.6708e-15
8.41202e-15
6.31473e-15
9.274e-15
9.49349e-15
9.99573e-15
8.83814e-15
6.80529e-15
7.71275e-15
3.4864e-15
5.84189e-15
5.00608e-15
3.53214e-15
2.9887e-15
4.01134e-15
7.98745e-15
3.53636e-15
5.85716e-15
8.63245e-15
7.02596e-15
4.69085e-15
1.01458e-14
1.53256e-14
1.13148e-14
4.09984e-15
3.97327e-15
6.10978e-15
7.76835e-15
6.591e-15
7.72407e-15
8.43507e-15
7.67715e-15
7.03329e-15
7.1083e-15
5.28281e-15
3.94435e-15
5.3584e-15
5.06672e-15
4.26124e-15
2.96546e-15
3.50594e-15
3.13788e-15
2.01036e-15
2.32341e-15
5.21637e-15
7.4345e-15
9.44781e-15
1.04143e-14
1.13969e-14
9.99202e-15
7.86458e-15
6.34032e-15
6.38565e-15
8.13152e-15
7.10801e-15
5.44337e-15
4.16114e-15
4.1091e-15
5.9209e-15
4.86979e-15
3.23012e-15
5.48929e-15
1.4478e-14
1.86788e-14
1.70383e-14
1.55071e-14
9.33488e-15
8.98222e-15
5.31448e-15
7.28379e-15
7.45437e-15
4.46984e-15
6.79033e-15
1.03279e-14
1.01518e-14
7.14649e-15
5.6611e-15
6.95881e-15
1.12958e-14
1.25965e-14
1.31866e-14
1.31029e-14
1.36732e-14
1.25933e-14
1.09635e-14
8.69035e-15
4.02461e-15
6.74241e-15
1.00323e-14
8.57139e-15
8.17505e-15
3.97124e-15
4.05866e-15
2.93662e-15
3.33217e-15
6.10809e-15
1.01803e-14
8.75242e-15
7.01533e-15
7.04315e-15
6.584e-15
6.6232e-15
4.52058e-15
6.73912e-15
8.98347e-15
7.7394e-15
5.29959e-15
2.19253e-15
5.74733e-15
4.46284e-15
2.96688e-15
2.60808e-15
5.40475e-15
5.69947e-15
3.00046e-15
1.47854e-15
3.62371e-15
6.8837e-15
9.4114e-15
9.69432e-15
8.84732e-15
8.64561e-15
6.5595e-15
5.25247e-15
5.71861e-15
4.77783e-15
2.18367e-15
3.64547e-15
3.21695e-15
1.84645e-15
1.66719e-15
1.98165e-15
4.48974e-15
8.08613e-15
1.03052e-14
1.17145e-14
1.12283e-14
1.28327e-14
1.14778e-14
8.64824e-15
7.07091e-15
6.59868e-15
3.22256e-15
7.22021e-15
1.12627e-14
1.27211e-14
1.39553e-14
1.34551e-14
1.1396e-14
1.01298e-14
8.04464e-15
8.34486e-15
6.58501e-15
4.29831e-15
4.55955e-15
4.56233e-15
6.40889e-15
5.93711e-15
7.0675e-15
8.1339e-15
8.73234e-15
1.12967e-14
1.5456e-14
1.62764e-14
1.29317e-14
1.10851e-14
9.6929e-15
6.48113e-15
9.52128e-15
9.22523e-15
8.2202e-15
9.08814e-15
1.2914e-14
1.09775e-14
7.6407e-15
3.30301e-15
4.5354e-15
7.89372e-15
8.37845e-15
7.85666e-15
8.50793e-15
5.94516e-15
3.98533e-15
3.96729e-15
6.12311e-15
5.22352e-15
5.05726e-15
8.23071e-15
8.34443e-15
5.99137e-15
3.98714e-15
2.94684e-15
1.05784e-15
2.91911e-15
5.70565e-15
7.72874e-15
1.15131e-14
1.3471e-14
1.25316e-14
1.31344e-14
1.25408e-14
1.2228e-14
1.13614e-14
8.04229e-15
3.86159e-15
1.45826e-15
7.51055e-16
2.88071e-15
5.5659e-15
2.65924e-15
4.84672e-15
5.71243e-15
5.91001e-15
5.36404e-15
4.99325e-15
6.16692e-15
3.06533e-15
4.42306e-15
3.28036e-15
3.25381e-15
4.44357e-15
5.47587e-15
5.0374e-15
4.05059e-15
3.66302e-15
4.70991e-15
4.30676e-15
4.35482e-15
6.26684e-15
8.13285e-15
8.25764e-15
3.54388e-15
3.63895e-15
3.19341e-15
3.52455e-15
3.68565e-15
2.84632e-15
4.22184e-15
5.90609e-15
6.32368e-15
7.38581e-15
9.69142e-15
9.44569e-15
7.36236e-15
7.2716e-15
5.78125e-15
7.86707e-15
7.83307e-15
9.17213e-15
1.06705e-14
6.36429e-15
5.11239e-15
5.12387e-15
6.93442e-15
7.62662e-15
6.55273e-15
5.89127e-15
8.34522e-15
7.39532e-15
3.74338e-15
5.16055e-15
9.14269e-15
1.0058e-14
7.91114e-15
4.53297e-15
6.51012e-15
5.8161e-15
6.00881e-15
4.87076e-15
5.19448e-15
3.79216e-15
1.85493e-15
4.6871e-15
6.61227e-15
3.56811e-15
7.80806e-15
1.18208e-14
1.17063e-14
1.01664e-14
6.02948e-15
4.66883e-15
5.99654e-15
5.19194e-15