/*--------------------------------*- C++ -*----------------------------------*\
| =========                 |                                                 |
| \\      /  F ield         | OpenFOAM: The Open Source CFD Toolbox           |
|  \\    /   O peration     | Version:  2406                                  |
|   \\  /    A nd           | Website:  www.openfoam.com                      |
|    \\/     M anipulation  |                                                 |
\*---------------------------------------------------------------------------*/
FoamFile
{
    version     2.0;
    format      ascii;
    arch        "LSB;label=32;scalar=64";
    class       volVectorField;
    location    "0.005";
    object      U;
}
// * * * * * * * * * * * * * * * * * * * * * * * * * * * * * * * * * * * * * //

dimensions      [0 1 -1 0 0 0 0];

internalField   nonuniform List<vector> 
83682
(
(347.059 -4.79576e-12 -2.51595e-12)
(347.039 -3.92561e-12 -2.34871e-12)
(346.189 -2.45441e-12 -2.07753e-12)
(334.137 -7.33594e-13 -3.34617e-12)
(319.069 5.67285e-12 3.44113e-12)
(318.326 2.33147e-12 5.00485e-14)
(318.493 -1.86231e-12 -3.19131e-12)
(318.582 -1.17203e-12 -3.69537e-12)
(318.602 1.17755e-13 -2.97659e-12)
(318.652 -6.3208e-14 -2.91903e-12)
(318.745 -8.31119e-13 -2.93786e-12)
(318.745 1.68064e-12 -1.33145e-12)
(318.692 1.35254e-12 -7.13617e-13)
(318.642 1.00395e-12 -5.10584e-13)
(318.636 5.76418e-13 -5.30011e-13)
(318.625 6.42446e-13 -3.50183e-13)
(318.596 -3.11909e-13 -5.69288e-13)
(318.559 3.81157e-13 -5.88717e-13)
(318.524 2.78358e-13 -6.12027e-13)
(318.486 2.69012e-13 -5.09393e-13)
(318.467 1.16993e-12 -4.86464e-13)
(318.443 9.78482e-13 -4.90672e-13)
(318.401 3.36714e-13 -6.13771e-13)
(318.377 -5.44345e-13 -5.57004e-13)
(318.368 2.52415e-13 -6.13267e-13)
(318.355 2.50792e-13 -6.40255e-13)
(318.337 -5.93192e-13 -6.61934e-13)
(318.318 -9.65725e-13 -7.89525e-13)
(318.304 -1.54499e-12 -5.75357e-13)
(318.293 -6.03951e-13 -7.00219e-13)
(318.294 -1.1174e-12 -4.74766e-13)
(318.288 -1.22378e-13 -5.22523e-13)
(318.28 -5.60561e-13 -5.85279e-13)
(318.29 -1.69671e-12 3.3703e-13)
(318.32 -1.69214e-12 -1.37756e-13)
(318.4 -1.49147e-12 2.37381e-13)
(318.552 -9.38785e-13 4.83036e-13)
(318.735 -4.41375e-13 1.95364e-13)
(318.913 -5.88722e-13 -1.50546e-13)
(319.057 -5.70689e-13 1.01701e-14)
(318.088 -5.99041e-13 1.23881e-12)
(317.766 -1.26012e-12 9.60492e-13)
(318.66 6.29986e-13 1.12772e-12)
(318.654 1.04643e-12 1.17677e-12)
(318.604 3.48075e-13 6.12191e-13)
(318.514 5.59126e-13 7.33037e-13)
(318.383 1.14897e-12 1.65901e-13)
(318.244 5.45637e-13 7.98684e-13)
(318.127 1.21995e-12 5.81757e-13)
(318.035 6.49904e-14 7.59009e-13)
(317.991 8.68194e-13 5.3844e-14)
(318.048 9.78787e-13 -1.60584e-13)
(318.216 2.10898e-12 -5.37322e-13)
(318.458 2.6816e-12 -7.19299e-13)
(318.658 2.09654e-12 -7.2592e-13)
(318.708 3.76665e-12 -4.20705e-13)
(318.707 3.57206e-12 -6.27762e-13)
(318.644 4.43965e-12 -7.87122e-13)
(318.483 3.90331e-12 -8.02641e-13)
(318.239 2.829e-12 -7.10273e-13)
(318.014 2.24634e-12 -5.4638e-13)
(317.953 3.59566e-12 6.17415e-13)
(317.998 2.39793e-12 1.02821e-12)
(318.028 1.84917e-12 1.72323e-12)
(317.932 1.6356e-12 1.6855e-12)
(317.04 2.11772e-12 1.4564e-12)
(311.028 2.18323e-13 2.5752e-13)
(277.406 8.49151e-13 -1.51407e-12)
(157.847 -1.6856e-12 -9.01176e-13)
(20.8368 5.04983e-12 -6.70879e-13)
(0.251132 -2.60922e-12 -2.66342e-12)
(0.000204598 -8.78276e-13 6.02532e-14)
(8.57013e-09 -9.98007e-13 -2.70759e-13)
(-1.23909e-12 -8.07243e-13 6.12608e-13)
(-1.04716e-12 -1.25839e-12 7.53395e-13)
(-9.97992e-13 -1.27588e-12 4.15649e-13)
(-8.20472e-13 -1.78915e-13 3.15615e-13)
(-4.47519e-13 8.43784e-13 -2.6061e-13)
(2.18188e-13 9.79808e-13 1.33847e-12)
(7.30823e-13 7.02105e-13 2.80696e-12)
(4.68948e-13 -4.42753e-13 3.43507e-12)
(9.83005e-13 -7.92515e-13 3.03033e-12)
(5.17196e-14 -1.65834e-12 2.35323e-12)
(3.3167e-13 -7.75127e-13 1.35406e-12)
(2.18086e-12 -3.15826e-13 9.12648e-13)
(2.6995e-12 3.13851e-13 1.14087e-12)
(2.45842e-12 4.92379e-13 9.68496e-13)
(9.44141e-13 2.65816e-13 5.35783e-13)
(-7.713e-13 1.08231e-12 1.05151e-13)
(-4.79116e-13 1.13916e-12 -7.56649e-14)
(-1.52361e-13 1.7374e-12 -1.85639e-13)
(7.46732e-15 1.75093e-12 -4.8137e-13)
(-6.36919e-13 1.13773e-12 -1.61047e-12)
(-1.30357e-12 2.38354e-13 -2.52943e-12)
(-1.24607e-12 -4.62135e-13 -2.08221e-12)
(-8.02989e-13 -1.40351e-12 -2.70539e-12)
(-7.25791e-13 -1.37639e-12 -2.00803e-12)
(-1.71563e-12 -1.20254e-12 -1.82668e-12)
(-1.55532e-12 -7.68189e-13 -4.72321e-13)
(-1.02314e-12 -1.09725e-12 -6.48365e-13)
(-5.12773e-13 -1.53094e-13 2.38825e-13)
(-3.67354e-13 -1.88761e-13 9.68046e-13)
(2.68017e-14 6.4381e-13 6.23218e-13)
(4.38168e-13 2.23046e-13 5.92784e-13)
(7.20887e-13 1.70842e-13 4.75932e-13)
(1.70294e-12 5.66136e-13 1.01776e-12)
(2.26425e-12 1.35836e-13 2.39479e-12)
(8.23689e-13 3.44585e-13 2.0475e-12)
(1.39618e-13 -1.62029e-14 2.6847e-12)
(1.10197e-12 -3.88868e-13 2.92008e-12)
(4.25079e-13 -6.0438e-13 3.92275e-12)
(-1.91864e-13 -9.89541e-13 4.06848e-12)
(1.06538e-12 -9.02019e-13 4.45504e-12)
(1.34442e-12 -2.05853e-12 4.07315e-12)
(7.57462e-13 -3.69864e-12 3.50121e-12)
(6.38434e-13 -3.43871e-12 3.39906e-12)
(5.06877e-13 -3.16188e-12 3.83784e-12)
(4.11232e-14 -2.10291e-12 2.96223e-12)
(-5.70743e-13 -1.62571e-12 2.58213e-12)
(4.78492e-14 -1.24697e-12 2.25563e-12)
(7.12978e-14 -1.50621e-12 2.96678e-12)
(-7.86238e-13 -1.0523e-12 3.82233e-12)
(-5.74593e-13 -6.61933e-13 3.46587e-12)
(-5.5276e-14 -7.8275e-13 1.30971e-12)
(7.10569e-13 -4.65695e-13 -3.78787e-13)
(-6.09477e-14 -6.7589e-13 1.38719e-13)
(3.83549e-13 -6.69396e-14 3.02776e-13)
(7.055e-13 -1.67522e-12 1.70803e-13)
(2.2362e-13 -1.79683e-12 -1.82477e-12)
(-2.15865e-13 -1.86517e-12 -2.14589e-12)
(-1.32008e-12 -2.00898e-12 -2.36836e-12)
(-1.24662e-12 -1.37312e-12 -1.36339e-12)
(-9.8256e-13 -9.04591e-13 -1.46501e-12)
(-6.74271e-13 -8.10817e-13 -1.13116e-12)
(5.39966e-13 -6.64383e-13 -8.59841e-13)
(1.85768e-13 -8.02414e-13 -1.17342e-12)
(-1.01298e-13 -4.14342e-13 -6.92557e-13)
(3.0478e-13 -8.06194e-13 -5.57688e-13)
(1.19226e-13 -1.72376e-12 -2.18483e-12)
(-6.23928e-13 -1.9852e-12 -3.43573e-12)
(-3.06417e-13 -2.0892e-12 -9.9887e-13)
(-1.88124e-13 -1.75301e-12 1.948e-12)
(-1.05672e-14 -8.82507e-13 1.86628e-12)
(3.91766e-13 -5.05705e-13 2.45262e-12)
(6.88618e-13 -1.14103e-12 2.86957e-12)
(-4.05879e-13 -1.05832e-12 3.62006e-12)
(-5.24144e-13 1.45962e-14 3.60021e-12)
(8.59983e-13 5.99713e-13 3.4024e-12)
(7.02209e-13 -6.10365e-13 1.85914e-12)
(1.66949e-12 -3.09772e-13 1.55677e-13)
(2.1487e-12 -9.38174e-13 -5.73331e-13)
(5.34684e-13 -1.02849e-12 -9.80922e-13)
(-2.76389e-14 -7.89343e-13 -1.85132e-12)
(-8.35484e-13 -8.34839e-13 -1.84728e-12)
(-4.97257e-13 1.83215e-14 -3.20717e-13)
(-3.43898e-13 -5.75961e-13 -2.63113e-13)
(-1.00933e-12 2.69275e-13 5.52754e-13)
(-1.59625e-12 4.41435e-13 7.46687e-14)
(-2.28676e-12 -8.21144e-14 5.4259e-13)
(-1.82273e-12 1.91955e-13 1.8427e-12)
(-1.37766e-13 2.26657e-13 -8.02694e-14)
(-3.1247e-13 -1.68893e-12 -1.10111e-12)
(-3.86342e-13 -7.03054e-13 -2.07328e-12)
(1.35281e-12 -5.64355e-13 -3.06296e-12)
(6.58288e-13 -7.75029e-13 -3.09693e-12)
(-1.21779e-13 -1.53478e-12 -3.33744e-12)
(9.56303e-13 -1.38028e-12 -3.3447e-12)
(1.40987e-12 -9.86604e-13 -2.72005e-12)
(1.45606e-14 -6.13773e-13 -2.60488e-12)
(-1.04083e-12 -2.50025e-13 -2.35861e-12)
(-1.1236e-12 -4.4419e-13 -2.64487e-12)
(-2.97372e-13 -9.13878e-13 -2.24016e-12)
(5.88118e-15 -6.39969e-13 -2.7802e-12)
(8.21487e-14 -1.24412e-13 -1.46506e-12)
(9.1448e-14 -7.32225e-13 -5.46218e-13)
(1.94159e-13 -1.48701e-12 -4.15062e-14)
(7.60666e-14 -1.62741e-12 -4.10921e-13)
(2.77203e-13 -1.80598e-12 -4.08599e-13)
(9.43702e-13 -1.29112e-12 -5.361e-13)
(1.12838e-12 -1.44963e-12 -4.88442e-13)
(7.76837e-13 -2.01216e-12 -7.7997e-14)
(-9.45796e-13 -1.05026e-12 -5.55841e-13)
(-2.12513e-12 -7.69936e-13 1.03313e-13)
(-3.71013e-13 9.78203e-14 -6.87006e-13)
(1.27415e-12 5.65827e-13 -5.59253e-13)
(1.51903e-12 5.92766e-13 6.61089e-13)
(7.77607e-13 -2.94837e-13 5.14471e-13)
(5.61196e-15 -2.13747e-13 1.79768e-13)
(-6.85245e-13 2.17536e-13 3.38374e-13)
(-1.7142e-12 -5.79592e-13 7.83354e-13)
(-8.51633e-13 -1.21567e-12 1.46312e-12)
(-7.02749e-13 -1.57775e-12 8.90582e-13)
(-1.98969e-12 -1.49287e-12 4.23977e-13)
(-2.86359e-12 -1.47573e-12 1.1541e-12)
(-2.83332e-12 -5.97285e-13 3.91881e-14)
(-2.08419e-12 -4.09167e-13 -5.67543e-13)
(-4.30737e-13 -7.68201e-13 -4.74794e-13)
(2.32299e-13 -6.87223e-13 -4.93451e-13)
(-7.43069e-14 -8.23243e-14 2.56952e-13)
(2.54687e-13 8.71006e-13 6.54722e-15)
(-3.00256e-14 8.84173e-13 1.31237e-12)
(1.65696e-13 1.00584e-12 3.32875e-12)
(3.91194e-14 8.71516e-13 1.30361e-12)
(-3.26779e-13 -5.42148e-14 -4.58143e-15)
(-2.25232e-13 2.14042e-13 -5.76665e-13)
(-6.61998e-13 -1.16183e-12 -7.0957e-13)
(-1.52624e-12 -2.08985e-12 -5.54551e-13)
(-1.88268e-12 -2.14087e-12 -2.17696e-12)
(-1.37457e-12 -2.60405e-12 -3.56125e-12)
(-3.18627e-13 -1.85462e-12 -3.8832e-12)
(9.84355e-13 -2.07968e-12 -1.63005e-12)
(2.19548e-12 -1.45161e-12 -2.7508e-13)
(1.55158e-12 -1.04057e-12 1.83171e-12)
(1.4147e-13 -1.57786e-12 2.45558e-12)
(-2.14348e-14 -2.91607e-12 2.40716e-12)
(1.12226e-12 -3.37599e-12 2.45069e-12)
(1.9842e-12 -3.33036e-12 2.90488e-12)
(2.7294e-12 -2.115e-12 1.36546e-12)
(2.80312e-12 -1.21012e-12 -1.20638e-12)
(1.52264e-12 -7.03436e-13 -2.67583e-12)
(7.16222e-13 -4.45049e-13 -1.94376e-12)
(-3.57309e-13 7.16632e-13 -1.95431e-12)
(-1.45438e-12 5.02424e-13 -7.34708e-13)
(-1.11223e-12 2.86615e-13 -6.64199e-14)
(-1.94897e-12 2.66513e-13 6.05876e-13)
(-2.91121e-12 2.06403e-13 6.79192e-13)
(-2.80671e-12 3.9106e-13 1.88303e-12)
(-3.43832e-12 -1.87876e-13 2.73352e-12)
(-2.74535e-12 -7.64979e-13 3.21297e-12)
(-9.43703e-13 -1.38707e-12 3.18768e-12)
(-2.03239e-13 -9.4274e-13 3.06619e-12)
(-6.64217e-13 -1.46088e-12 2.99693e-12)
(-1.27474e-12 -9.53074e-13 3.21506e-12)
(-3.0168e-13 -1.23351e-12 4.17683e-12)
(1.16398e-12 -3.69113e-13 7.64114e-13)
(1.00716e-12 1.05116e-12 -2.62212e-12)
(1.07351e-12 9.18569e-13 -5.17592e-12)
(1.49182e-12 1.0326e-12 -3.70103e-12)
(1.76256e-12 7.52428e-13 -3.05366e-12)
(1.21579e-13 4.64898e-13 -2.55122e-12)
(-5.31585e-13 1.69276e-13 -1.26263e-12)
(2.3334e-13 8.66479e-13 -7.37794e-13)
(1.42697e-12 8.42747e-13 -1.54306e-12)
(1.33883e-12 1.57785e-12 -2.94741e-12)
(6.09689e-13 1.25206e-12 -3.49764e-12)
(1.15617e-12 2.67848e-13 -3.36848e-12)
(7.5626e-13 -4.14457e-13 -1.88324e-12)
(-4.91304e-13 -1.41316e-12 -7.22566e-13)
(-1.78953e-13 -8.65032e-13 -1.31947e-12)
(-3.97564e-13 2.4585e-13 -3.07714e-12)
(-2.1772e-12 -3.22153e-13 -6.17067e-12)
(-2.39714e-12 -1.93023e-13 -1.03305e-11)
(-2.88511e-12 1.23925e-12 -1.12442e-11)
(-2.43247e-12 7.59897e-13 -1.14884e-11)
(-8.23371e-13 -5.56919e-13 -1.02419e-11)
(3.57062e-13 -2.17115e-12 -5.7459e-12)
(-1.44907e-14 -2.08038e-12 -1.53736e-12)
(-4.48289e-13 -2.77853e-12 1.07327e-12)
(6.06267e-13 -2.52978e-12 2.54727e-12)
(2.12722e-12 -1.54815e-12 4.34937e-13)
(4.18822e-12 -9.70593e-13 -3.93821e-13)
(3.89089e-12 -1.91482e-13 -1.52791e-12)
(2.11819e-12 1.78839e-13 -1.89958e-12)
(1.90421e-12 -3.81686e-13 -2.0469e-12)
(1.89374e-12 3.68912e-14 -2.32541e-12)
(8.03651e-13 1.05598e-13 -3.41536e-12)
(4.12425e-13 5.75607e-13 -4.2524e-12)
(-5.12563e-13 1.46348e-12 -3.60596e-12)
(-1.533e-12 4.72567e-13 -2.81509e-12)
(-1.06181e-12 -2.09851e-13 -8.6248e-13)
(-3.45036e-13 -5.08231e-13 -1.06225e-14)
(6.8149e-13 6.54929e-13 -4.90645e-14)
(-3.69111e-13 8.53936e-13 8.18538e-14)
(-6.52426e-13 1.01594e-13 1.09884e-12)
(9.20032e-13 -5.89219e-13 1.69212e-12)
(1.25254e-12 -6.48409e-13 1.54089e-12)
(8.86276e-13 -7.80411e-13 1.99019e-12)
(9.37203e-13 -5.65421e-13 7.09261e-13)
(2.0951e-12 -3.14025e-13 3.58262e-13)
(1.4803e-12 1.18406e-12 -3.20106e-13)
(2.32693e-12 1.77058e-12 -9.63934e-13)
(3.97325e-12 2.27712e-12 -1.03967e-12)
(2.65407e-12 2.82417e-12 -1.51983e-12)
(5.78195e-13 3.12607e-12 -9.28783e-13)
(2.43055e-13 1.98646e-12 -4.62276e-13)
(4.79237e-13 2.68004e-12 1.16837e-12)
(3.53638e-13 2.29899e-12 1.85052e-12)
(-2.94923e-15 2.24359e-12 5.5227e-13)
(-2.35297e-12 1.91388e-12 1.25879e-13)
(-2.16058e-12 1.33811e-12 -1.83943e-14)
(-1.6135e-12 1.67773e-12 -2.53683e-13)
(-1.03636e-12 1.10632e-12 -3.13614e-13)
(1.321e-12 1.56658e-12 -2.88589e-13)
(9.74895e-13 2.16239e-12 -2.83623e-13)
(1.6163e-13 1.78961e-12 1.26778e-13)
(1.12928e-12 1.73495e-12 1.88938e-12)
(1.82844e-12 1.27748e-12 3.67085e-12)
(1.57278e-12 8.69967e-13 3.06029e-12)
(1.14159e-12 -2.25021e-13 2.91819e-12)
(3.50722e-12 3.00403e-13 2.7061e-12)
(4.4115e-12 1.36903e-12 -3.3293e-13)
(2.88658e-12 1.01734e-12 -3.58431e-12)
(2.3741e-12 1.0931e-12 -3.10995e-13)
(5.45429e-13 9.51266e-13 2.07605e-12)
(5.69312e-13 -5.34231e-14 2.36707e-12)
(9.68847e-13 8.11952e-13 2.13776e-12)
(-6.69577e-13 1.41666e-12 1.21262e-12)
(-2.12599e-12 1.2808e-12 1.1867e-13)
(-2.23225e-12 1.54924e-12 -1.13119e-12)
(-3.14279e-12 1.79152e-12 -1.26891e-12)
(-2.88615e-12 2.47976e-12 -1.27693e-12)
(-2.40148e-12 2.33664e-12 -1.56038e-12)
(-3.80343e-12 2.19548e-12 -1.52043e-12)
(-4.56692e-12 1.5681e-12 -1.89836e-12)
(-3.24701e-12 1.71109e-12 -6.94162e-13)
(-1.96222e-12 1.8511e-12 -9.07731e-13)
(-3.14551e-12 1.51206e-12 -6.22558e-13)
(-3.10427e-12 -4.57967e-13 -1.60195e-12)
(-6.20211e-13 -1.1955e-12 -1.4966e-12)
(5.28343e-13 -1.63639e-12 -8.52383e-13)
(1.07299e-12 -9.82799e-13 1.14415e-13)
(2.6189e-12 1.39181e-13 3.17455e-13)
(1.93334e-12 6.84538e-13 9.02034e-13)
(1.53624e-12 5.4498e-13 1.54279e-12)
(4.20485e-12 8.85995e-13 8.86374e-13)
(6.73963e-12 2.42088e-12 -1.53856e-12)
(6.47447e-12 3.33784e-12 -4.61891e-12)
(4.10066e-12 4.69306e-12 -3.46776e-12)
(2.99704e-12 5.19086e-12 -9.1425e-13)
(1.79867e-12 4.0876e-12 7.97503e-13)
(-3.83738e-13 3.08124e-12 1.21789e-12)
(-7.67666e-13 2.45992e-12 2.52981e-12)
(-3.13317e-12 2.52933e-12 3.17879e-12)
(-3.93652e-12 1.47859e-12 4.49313e-12)
(-3.09136e-12 7.16771e-13 5.01873e-12)
(-4.32626e-12 -4.85719e-14 2.27042e-12)
(-2.57328e-12 -1.15487e-12 4.13552e-13)
(-9.24227e-13 -1.48474e-13 -5.34585e-13)
(2.68656e-13 -1.27691e-13 3.97327e-13)
(8.69398e-13 -3.91505e-13 1.33214e-12)
(-2.17788e-13 -1.05425e-12 1.68654e-12)
(8.57833e-13 -1.77577e-12 3.63018e-12)
(3.82787e-13 -1.69298e-12 6.22137e-12)
(1.63146e-12 -6.57118e-13 5.15276e-12)
(2.58629e-12 1.00586e-12 2.41544e-12)
(1.10314e-12 1.2689e-12 7.86979e-13)
(2.87153e-14 2.27087e-12 1.49785e-12)
(-2.49549e-12 3.05199e-12 3.01295e-12)
(-3.81088e-12 2.40123e-12 5.19316e-12)
(-2.91633e-12 1.00837e-12 3.43962e-12)
(-4.89295e-13 9.34863e-13 1.18557e-12)
(1.66815e-12 -9.59939e-14 -5.00664e-13)
(1.50565e-12 4.0113e-13 -2.97836e-12)
(-2.45319e-13 -3.18558e-13 -4.16733e-12)
(4.17974e-13 -2.40872e-13 -3.90643e-12)
(2.93734e-13 4.7564e-13 -3.94705e-12)
(-9.21311e-13 2.9709e-13 -2.81388e-12)
(-7.49592e-13 -4.4774e-13 -3.73844e-13)
(-2.97334e-12 -5.97671e-13 1.8762e-12)
(-3.55848e-12 -1.79402e-12 3.94232e-12)
(-4.66369e-12 -1.16615e-12 4.27506e-12)
(-5.18095e-12 -2.84897e-12 6.10555e-12)
(-2.31471e-12 -4.01505e-12 8.53336e-12)
(-1.33298e-13 -2.38322e-12 9.99209e-12)
(7.26286e-13 -3.37005e-13 1.05854e-11)
(1.45234e-13 1.11754e-12 6.5323e-12)
(-2.58365e-12 1.29291e-12 3.55334e-12)
(-2.7282e-12 1.45898e-13 1.25248e-12)
(-9.32664e-13 9.35446e-14 1.64709e-13)
(3.74633e-13 2.79625e-16 1.25736e-13)
(6.65691e-13 5.10083e-13 1.06165e-12)
(8.28101e-13 1.58778e-12 9.157e-13)
(1.19076e-12 1.55709e-12 6.62893e-14)
(1.60099e-12 2.71839e-12 8.02335e-14)
(1.07236e-12 3.72951e-12 1.30438e-12)
(6.41023e-13 3.35152e-12 8.11532e-13)
(1.28012e-12 3.21374e-12 -1.1268e-12)
(4.363e-13 3.7216e-12 -2.90515e-12)
(-5.82036e-13 2.45042e-12 -2.41621e-12)
(1.97112e-13 1.86604e-12 -1.39876e-12)
(-8.99463e-13 1.49139e-12 -5.78293e-13)
(-1.82463e-12 8.06937e-13 -1.48085e-13)
(-9.54137e-13 5.27294e-13 -8.60388e-14)
(-9.14572e-13 -2.76469e-13 -1.00038e-12)
(4.80469e-13 4.93574e-13 -2.60253e-12)
(2.36504e-12 1.75731e-12 -4.68422e-12)
(1.09449e-12 2.48945e-12 -6.70326e-12)
(6.09502e-13 2.51998e-12 -5.71196e-12)
(1.23938e-12 2.59696e-12 -5.82243e-12)
(1.08685e-12 2.56245e-12 -6.84375e-12)
(5.45223e-13 1.98173e-12 -4.6002e-12)
(1.29021e-12 1.27178e-12 -2.63941e-12)
(1.61864e-12 6.31508e-13 -2.41105e-12)
(1.84658e-12 9.48443e-13 -2.861e-12)
(4.60862e-13 1.58722e-12 -3.1034e-12)
(-2.29752e-13 1.17598e-12 -4.47078e-12)
(4.03045e-13 5.27473e-13 -4.12873e-12)
(1.05209e-12 3.09243e-13 -4.653e-12)
(5.05895e-13 3.25193e-13 -5.70283e-12)
(-9.15714e-13 7.84002e-14 -2.4532e-12)
(3.06073e-14 -5.00411e-13 1.03482e-12)
(8.25253e-13 8.13646e-13 2.0092e-12)
(1.86982e-12 1.15596e-12 2.6544e-12)
(1.68355e-12 2.35565e-12 1.68721e-12)
(-1.59976e-12 2.60567e-12 1.10261e-12)
(-3.31841e-12 1.65464e-12 1.22196e-12)
(-1.99883e-12 1.10841e-12 1.97653e-12)
(-1.68183e-12 9.37457e-13 3.59381e-12)
(-2.09303e-12 1.44151e-12 8.63416e-13)
(-4.70031e-13 9.82099e-13 -1.1291e-12)
(-1.0788e-13 -1.23233e-13 -2.35964e-12)
(-5.69005e-13 1.99472e-13 -1.69729e-12)
(-1.44116e-12 1.65915e-14 -1.47863e-12)
(-1.89281e-12 4.77405e-13 -8.09005e-13)
(-7.42326e-13 2.37578e-13 4.97592e-13)
(-9.68801e-13 6.45056e-13 2.65491e-12)
(-1.8814e-12 7.38791e-13 2.52313e-12)
(-5.52706e-13 1.24843e-12 1.89561e-12)
(-1.21022e-12 2.52841e-12 1.31799e-12)
(-2.98379e-12 2.697e-12 1.10361e-12)
(-1.5509e-12 2.82467e-12 1.31444e-12)
(-7.48545e-13 2.02966e-12 2.68994e-13)
(1.23693e-12 8.9265e-13 -7.42217e-13)
(3.14277e-12 1.03445e-12 -1.53058e-12)
(1.24771e-12 1.32072e-12 -2.01397e-12)
(8.81509e-13 1.22129e-12 -1.81387e-12)
(2.4072e-12 1.31503e-12 -1.28679e-12)
(6.45701e-13 1.82613e-12 2.3483e-14)
(3.53695e-13 1.64051e-12 1.96889e-12)
(4.21809e-13 5.89563e-13 2.93313e-12)
(-9.74266e-13 -2.99552e-13 3.09003e-12)
(7.74328e-13 -1.09821e-12 1.15468e-12)
(2.20645e-12 -8.25311e-13 -1.75239e-12)
(1.3152e-12 -3.74698e-13 -3.78331e-12)
(1.11056e-12 -7.20005e-14 -3.59275e-12)
(1.27367e-12 3.56477e-13 -4.6342e-12)
(9.29636e-13 1.14569e-12 -6.36588e-12)
(1.50606e-12 1.35189e-12 -3.2196e-12)
(2.07367e-12 2.90438e-12 1.83992e-12)
(1.58961e-12 2.37012e-12 6.40461e-12)
(8.73096e-13 2.05041e-12 5.029e-12)
(-1.38648e-13 1.15777e-12 5.39653e-12)
(1.78389e-13 1.30723e-12 7.19615e-12)
(-8.08306e-13 1.9953e-12 6.24482e-12)
(-8.45979e-13 2.2427e-12 6.16819e-12)
(6.05195e-15 1.99703e-12 7.1715e-12)
(-1.56665e-12 2.18733e-12 3.2267e-12)
(-1.12031e-12 1.05652e-12 -1.94716e-12)
(-3.6486e-13 1.40185e-12 -5.10755e-12)
(-2.32759e-12 1.86745e-12 -3.01608e-12)
(-1.67057e-12 2.28453e-12 -6.70013e-13)
(5.89756e-14 2.74493e-12 -2.58034e-13)
(-7.52043e-13 3.61068e-12 -9.47932e-13)
(-9.503e-13 3.66011e-12 -1.44304e-12)
(-1.23794e-12 3.21887e-12 -1.44251e-12)
(-1.83627e-12 3.36245e-12 -1.11619e-12)
(-7.41999e-13 3.60582e-12 -7.18374e-13)
(-2.75149e-13 4.36653e-12 -6.84708e-13)
(-1.87613e-12 4.09266e-12 -5.62348e-13)
(-1.77765e-12 2.9867e-12 -1.78376e-13)
(-1.81725e-13 2.62765e-12 1.27397e-13)
(1.43222e-12 2.46075e-12 1.92596e-15)
(1.20796e-12 2.97427e-12 -1.05011e-12)
(-1.87573e-14 2.7783e-12 -2.29926e-12)
(1.77608e-12 3.59871e-12 -1.38137e-12)
(2.21813e-12 5.18904e-12 -9.117e-13)
(5.29827e-13 5.45059e-12 -8.87084e-13)
(9.8378e-13 4.73121e-12 -6.32155e-13)
(9.99589e-13 5.23589e-12 1.06481e-13)
(-1.08294e-13 4.56552e-12 1.40032e-12)
(-4.312e-14 3.67316e-12 -1.62567e-12)
(1.31461e-12 2.14935e-12 -4.40739e-12)
(1.00188e-12 2.83121e-12 -7.07284e-12)
(1.49259e-12 2.84596e-12 -5.43601e-12)
(2.52644e-12 3.57485e-12 -4.4674e-12)
(5.62323e-13 3.07479e-12 -3.77005e-12)
(-2.50093e-13 1.19752e-12 -3.67594e-12)
(3.25632e-13 -1.82371e-14 -3.98989e-12)
(-4.34167e-13 -7.61873e-13 -2.48822e-12)
(4.75243e-13 -1.67223e-12 -1.28729e-12)
(1.13389e-12 -1.18958e-12 -9.05599e-13)
(7.41488e-13 -1.06074e-12 -8.31848e-13)
(3.25027e-13 -1.25322e-12 -4.82079e-13)
(2.66847e-13 -1.67121e-12 -6.31732e-13)
(-2.53046e-13 -1.90398e-12 -1.82417e-12)
(-3.77232e-13 -3.9252e-13 -2.80898e-12)
(-5.13081e-13 -1.00076e-13 -4.54073e-12)
(-1.39012e-12 -5.7377e-13 -2.25862e-12)
(2.85142e-14 -9.12894e-13 -6.84072e-13)
(7.75854e-13 -1.19245e-12 -8.75879e-13)
(7.08252e-13 -9.32646e-13 -1.3195e-12)
(6.21726e-13 -3.97432e-13 -1.59296e-12)
(9.682e-13 1.71595e-13 -2.48481e-12)
(1.91004e-12 1.89638e-12 -3.07873e-12)
(1.25888e-12 4.11476e-12 -1.83629e-12)
(-7.33389e-13 4.46508e-12 -1.43049e-12)
(-1.62428e-12 3.47399e-12 -2.21175e-12)
(-2.97814e-12 2.53139e-12 -2.94271e-12)
(-4.12303e-12 9.15765e-13 -4.06527e-12)
(-3.54995e-12 -4.29246e-13 -3.04214e-12)
(-1.86155e-12 -2.20411e-13 -1.96557e-12)
(-1.38132e-12 -2.56247e-13 -9.70941e-13)
(-1.02643e-12 -2.82555e-13 -2.17896e-12)
(-1.62656e-13 4.73726e-13 -3.2038e-12)
(-7.46276e-13 1.11286e-12 -2.87745e-12)
(-9.92345e-13 6.35613e-13 -2.60077e-12)
(7.57293e-14 9.02796e-13 -2.57479e-12)
(2.22671e-13 7.55766e-13 -1.31427e-12)
(2.94484e-13 2.64597e-13 -1.41976e-12)
(1.42992e-12 -6.78727e-13 -1.87392e-12)
(1.45981e-12 -1.10224e-12 -2.74526e-12)
(1.95287e-12 -1.13483e-12 -2.30108e-12)
(3.24801e-12 -5.76525e-13 -2.7125e-12)
(2.74671e-12 7.51173e-13 -4.11961e-12)
(1.83355e-12 1.5644e-12 -2.13848e-12)
(-1.05476e-12 2.73416e-13 -5.617e-13)
(-1.09285e-12 -1.12253e-12 2.90842e-12)
(-3.08222e-13 -7.39825e-13 5.95318e-12)
(-1.28603e-12 -4.83747e-13 6.23256e-12)
(-1.78801e-12 -5.25899e-13 5.045e-12)
(-7.705e-13 -1.71145e-13 4.6228e-12)
(1.64708e-13 7.50207e-13 4.46178e-12)
(-2.48917e-13 1.57977e-12 4.25083e-12)
(6.61587e-13 2.76597e-12 3.63717e-12)
(1.51065e-13 3.60119e-12 2.05883e-12)
(2.02897e-13 1.65833e-12 -3.45207e-13)
(1.90153e-13 1.33971e-12 -2.62791e-12)
(-6.90159e-13 1.07137e-12 -1.00323e-12)
(-1.13747e-13 7.34276e-14 7.0875e-13)
(-7.20651e-13 2.20069e-13 2.49453e-12)
(-6.39658e-13 4.09143e-13 4.43121e-12)
(5.35016e-14 1.23938e-12 4.88644e-12)
(3.81827e-13 6.97832e-13 5.47938e-12)
(2.20112e-12 1.16799e-12 5.13332e-12)
(1.9087e-12 2.3561e-12 3.7024e-12)
(-1.34536e-12 2.61681e-12 2.78504e-12)
(-2.14426e-12 3.57445e-12 2.33014e-12)
(-5.64292e-13 5.17779e-12 3.42878e-12)
(-1.7066e-12 6.29073e-12 7.12597e-12)
(-1.70686e-12 5.9298e-12 1.12938e-11)
(-2.52716e-12 6.39776e-12 8.79989e-12)
(-1.85824e-12 4.99958e-12 5.53986e-12)
(-1.38524e-12 4.88283e-12 3.1956e-12)
(-2.34641e-12 3.60059e-12 2.61175e-12)
(-6.32924e-13 2.37752e-12 1.55832e-12)
(1.08039e-12 2.09884e-12 5.20224e-13)
(3.24627e-13 2.04501e-12 1.31587e-12)
(-9.44264e-14 8.11979e-13 2.01876e-12)
(4.48304e-13 2.37877e-13 2.24346e-12)
(2.522e-13 -1.51162e-13 3.51117e-12)
(1.00988e-12 -9.26486e-13 5.22527e-12)
(7.98717e-13 -6.95607e-13 5.84182e-12)
(1.33629e-12 -3.14429e-13 4.03092e-12)
(2.95675e-12 6.38943e-13 1.42516e-12)
(2.85622e-12 2.58943e-12 -2.04116e-13)
(2.31046e-12 2.32338e-12 -1.03621e-12)
(1.68568e-12 2.27797e-12 -4.67582e-13)
(6.34953e-13 1.88235e-12 -4.28605e-13)
(1.20636e-13 2.00497e-12 6.30512e-13)
(-1.6535e-12 1.53914e-12 1.07631e-12)
(-3.15881e-12 1.0598e-13 7.84376e-13)
(-2.89599e-12 -4.24575e-13 8.02611e-13)
(-1.29383e-12 2.97763e-13 6.68944e-13)
(1.20813e-12 5.73924e-13 5.86664e-13)
(2.31973e-12 1.7515e-12 8.75431e-13)
(1.5225e-12 2.8767e-12 1.24846e-12)
(1.85196e-12 1.66056e-12 2.55355e-12)
(2.61648e-12 1.5794e-12 4.7269e-12)
(9.11482e-13 2.18355e-12 4.50148e-12)
(7.10126e-13 1.87941e-12 4.0392e-12)
(1.78815e-12 2.25512e-12 4.6778e-12)
(8.2017e-13 2.82948e-12 3.12307e-12)
(-5.88882e-13 3.11079e-12 2.00459e-12)
(-2.17963e-12 2.25416e-12 2.20922e-12)
(-2.77295e-12 1.95908e-12 2.75749e-12)
(-1.59599e-12 1.4395e-12 2.91573e-12)
(-6.59995e-13 8.9071e-13 3.65942e-12)
(6.57671e-13 8.97586e-13 2.6565e-12)
(5.80925e-14 -2.91375e-13 1.34926e-12)
(-1.28451e-12 -1.44327e-12 2.86227e-13)
(-2.91439e-13 -1.57713e-12 -3.73386e-13)
(-7.10883e-13 -1.37766e-12 -1.54171e-12)
(-1.53574e-12 -1.51499e-12 -1.88166e-12)
(-2.66729e-13 -8.42746e-13 -2.16588e-12)
(8.78875e-13 -5.21178e-13 -2.97522e-12)
(1.19217e-12 -4.67592e-13 -2.91514e-12)
(2.09458e-12 -1.40813e-13 -2.51589e-12)
(1.92307e-12 9.76194e-13 -2.56893e-12)
(5.91853e-13 1.92018e-12 -2.63011e-12)
(4.54271e-13 3.44754e-12 -3.62602e-12)
(-1.04795e-12 3.16669e-12 -4.6006e-12)
(-8.89505e-15 3.43918e-12 -1.62816e-12)
(2.40609e-12 3.64799e-12 1.38371e-13)
(1.27457e-12 3.89747e-12 6.27988e-13)
(-1.77738e-12 4.03476e-12 -1.11388e-13)
(-2.63597e-12 2.77781e-12 6.02906e-14)
(-5.49505e-13 1.98333e-12 3.46432e-13)
(7.21613e-14 2.66391e-12 2.81487e-13)
(-7.91182e-13 2.00068e-12 1.65937e-13)
(9.57282e-14 1.83012e-12 -3.63374e-12)
(9.44072e-13 2.45939e-12 -7.13394e-12)
(4.56908e-13 2.05937e-12 -5.16893e-12)
(1.46978e-12 2.04958e-12 -4.92674e-12)
(1.3003e-12 1.05414e-12 -5.23321e-12)
(-4.96931e-13 9.35493e-13 -5.69905e-12)
(-7.98232e-13 2.25457e-13 -2.50324e-12)
(-1.33272e-12 1.02862e-12 1.44943e-13)
(-9.73968e-13 9.38531e-13 -1.00903e-12)
(6.1586e-13 1.3017e-12 -2.17974e-12)
(-1.38841e-13 1.74125e-12 -4.7375e-12)
(-1.88073e-12 1.45586e-12 -7.83609e-12)
(-1.46179e-12 -1.49652e-13 -5.22177e-12)
(1.0023e-12 -9.53745e-13 -3.44568e-12)
(1.72226e-12 -8.15525e-13 -2.98133e-12)
(1.47708e-12 -2.69916e-13 -3.30321e-12)
(1.80323e-12 8.30252e-13 -5.18115e-12)
(9.51955e-13 9.77959e-13 -7.39979e-12)
(5.24097e-13 1.26543e-12 -5.6806e-12)
(-4.0799e-13 1.83039e-12 -3.52725e-12)
(-1.6509e-12 4.91982e-13 -2.38306e-12)
(-6.02837e-13 -4.80301e-13 -1.56037e-12)
(-1.14391e-12 -2.86319e-13 -2.17839e-14)
(-3.37962e-12 -5.55802e-13 8.33439e-13)
(-3.09842e-12 -4.13313e-13 1.09471e-12)
(-2.04921e-12 4.49144e-13 -2.04637e-13)
(-2.41244e-12 5.62171e-13 -2.17215e-12)
(-2.04187e-12 8.71662e-13 -2.0781e-12)
(-7.40624e-13 1.59213e-12 -2.46439e-12)
(-2.43239e-14 1.49573e-12 -2.38849e-12)
(4.31114e-13 1.86797e-12 -3.40999e-12)
(1.53779e-12 2.28122e-12 -4.41496e-12)
(5.5729e-13 2.61681e-12 -4.1149e-12)
(5.77967e-13 3.3036e-12 -3.51616e-12)
(2.40046e-12 3.87349e-12 -3.58218e-12)
(8.66415e-13 4.4646e-12 -3.01554e-12)
(-2.88413e-13 5.01215e-12 -2.60048e-12)
(-1.83213e-13 5.20412e-12 -1.84691e-12)
(-5.52938e-13 3.77333e-12 -1.02748e-12)
(1.70393e-12 2.34936e-12 -4.9875e-14)
(3.79106e-12 1.57928e-12 1.34036e-12)
(5.09054e-12 1.35073e-12 1.35479e-12)
(4.4711e-12 1.75342e-12 9.37424e-13)
(3.48507e-12 9.6473e-13 -1.29181e-12)
(4.17293e-12 2.49764e-12 -4.06019e-12)
(2.81773e-12 3.55428e-12 -3.24036e-12)
(7.56086e-13 2.42992e-12 -2.01046e-12)
(-1.79652e-12 1.45154e-12 -1.13053e-12)
(-1.49906e-12 -1.40718e-12 -3.92907e-13)
(8.48574e-13 -1.75948e-12 1.77092e-13)
(9.84026e-13 8.70239e-13 8.1974e-13)
(9.96596e-13 2.24293e-12 1.98058e-12)
(1.50569e-12 2.69266e-12 1.25327e-12)
(4.30732e-14 2.29378e-12 9.68635e-13)
(-9.59468e-13 1.40255e-12 -1.39422e-12)
(-1.32955e-12 1.53442e-12 2.97769e-13)
(-2.16603e-12 1.55166e-12 5.4819e-13)
(-2.08162e-12 1.9332e-13 5.01789e-13)
(-1.95308e-12 1.9522e-13 6.9747e-13)
(-1.21405e-12 4.8393e-13 1.01239e-12)
(7.03597e-13 5.83833e-13 4.5533e-13)
(-6.37725e-14 2.26355e-12 2.40153e-13)
(-2.46138e-12 3.03243e-12 -2.67125e-13)
(-3.54528e-12 3.03922e-12 3.5399e-13)
(-2.90829e-12 1.96863e-12 4.89278e-13)
(-2.59278e-12 1.96575e-12 1.37055e-12)
(-2.14174e-12 3.83272e-13 1.82024e-12)
(-2.70332e-12 -4.59356e-13 2.52813e-12)
(-3.68225e-12 -1.11784e-12 2.24503e-12)
(-2.81117e-12 -4.13005e-13 2.1398e-12)
(-2.4152e-12 4.33055e-13 1.70697e-12)
(-3.03689e-12 -2.92286e-14 2.51824e-13)
(-2.80451e-12 8.37761e-13 -1.8033e-12)
(-1.01383e-12 9.35672e-14 -2.7817e-12)
(-3.39896e-14 -1.49081e-13 -3.33242e-12)
(-2.55323e-13 -4.32632e-13 -2.47294e-12)
(1.2472e-12 1.05573e-13 -1.96692e-12)
(3.78982e-12 9.1208e-13 -2.43424e-12)
(4.74363e-12 2.81315e-12 -4.24981e-12)
(3.2524e-12 4.06609e-12 -6.36075e-12)
(1.63282e-12 5.3373e-12 -2.8191e-12)
(-6.6021e-13 4.83284e-12 7.44038e-14)
(-1.55192e-12 3.82036e-12 7.91759e-13)
(-8.5708e-19 3.22689e-12 -5.13169e-13)
(2.37812e-12 3.22841e-12 -1.23462e-12)
(1.78843e-12 3.5674e-12 -1.79936e-12)
(7.52726e-13 3.60459e-12 -3.77312e-13)
(2.71967e-12 4.59492e-12 1.17652e-12)
(1.34825e-12 5.24705e-12 3.53984e-12)
(7.23188e-13 4.95027e-12 5.65344e-12)
(5.08385e-13 4.88716e-12 4.72723e-12)
(5.78175e-13 3.77648e-12 4.67928e-12)
(3.87531e-13 3.55845e-12 1.50983e-12)
(5.66189e-13 1.91747e-12 -3.72568e-12)
(1.6811e-12 1.97115e-12 -8.18749e-12)
(1.56547e-12 1.23976e-12 -7.2002e-12)
(347.059 -1.17614e-13 -4.00123e-12)
(347.039 -1.4389e-12 -3.60651e-12)
(346.189 -2.2922e-12 -3.55181e-12)
(334.137 -1.95846e-12 -3.84358e-12)
(319.069 5.38566e-12 3.00685e-12)
(318.326 1.29474e-12 -6.59918e-13)
(318.493 -3.42625e-12 -3.8819e-12)
(318.582 -2.89284e-12 -4.49784e-12)
(318.602 -1.32319e-12 -4.56768e-12)
(318.652 -1.61404e-12 -3.67892e-12)
(318.745 -1.91024e-12 -3.61532e-12)
(318.745 5.76109e-13 -1.72256e-12)
(318.692 -4.84107e-14 -7.73446e-13)
(318.642 1.31512e-13 -4.94664e-13)
(318.636 8.57186e-14 -2.45398e-13)
(318.625 4.5602e-13 -1.03433e-13)
(318.596 -7.55439e-13 -2.77618e-13)
(318.559 -3.76989e-14 -3.42985e-13)
(318.524 5.80213e-13 -4.7429e-13)
(318.486 8.45138e-13 -5.73545e-13)
(318.467 9.80389e-13 -6.17703e-13)
(318.443 3.79162e-13 -6.65476e-13)
(318.401 7.80941e-13 -7.96288e-13)
(318.377 5.82433e-14 -8.23199e-13)
(318.368 5.77145e-13 -8.19089e-13)
(318.355 4.49207e-13 -6.71399e-13)
(318.337 -1.44487e-12 -6.43694e-13)
(318.318 -1.80983e-12 -7.45442e-13)
(318.304 -1.58969e-12 -6.77642e-13)
(318.293 -5.90342e-13 -7.66946e-13)
(318.294 -9.47688e-13 -5.28277e-13)
(318.288 -1.30879e-12 -3.8086e-13)
(318.28 -2.00397e-12 -3.66081e-13)
(318.29 -2.24917e-12 1.26693e-13)
(318.32 -1.65668e-12 -1.29263e-13)
(318.4 -2.22173e-12 2.58037e-13)
(318.552 -1.99408e-13 5.72728e-13)
(318.735 -1.1566e-12 5.65853e-13)
(318.913 -4.72003e-13 1.68266e-13)
(319.057 -1.58695e-12 5.23868e-13)
(318.088 1.23171e-13 1.34335e-12)
(317.766 -2.00405e-12 1.13197e-12)
(318.66 9.54803e-13 1.08286e-12)
(318.654 6.32342e-13 1.12602e-12)
(318.604 8.66143e-14 7.25915e-13)
(318.514 4.45761e-13 7.38761e-13)
(318.383 8.81201e-13 5.3011e-13)
(318.244 2.42075e-13 4.32243e-13)
(318.127 9.27249e-13 2.78124e-13)
(318.035 1.04451e-12 3.37679e-13)
(317.991 7.62604e-13 2.02795e-13)
(318.048 6.48087e-13 2.76525e-14)
(318.216 1.11387e-12 -4.35877e-13)
(318.458 1.61743e-12 -3.81466e-13)
(318.658 1.59624e-12 -2.21922e-13)
(318.708 2.11048e-12 5.3753e-14)
(318.707 2.19283e-12 -1.07914e-13)
(318.644 3.076e-12 -3.68352e-13)
(318.483 2.98522e-12 -8.82782e-13)
(318.239 3.10301e-12 -9.51651e-13)
(318.014 1.65681e-12 -2.7225e-13)
(317.953 1.64565e-12 -1.16366e-13)
(317.998 1.99764e-12 4.9969e-13)
(318.028 1.40568e-12 1.22969e-12)
(317.932 5.07562e-13 1.05293e-12)