/*--------------------------------*- C++ -*----------------------------------*\
| =========                 |                                                 |
| \\      /  F ield         | OpenFOAM: The Open Source CFD Toolbox           |
|  \\    /   O peration     | Version:  2406                                  |
|   \\  /    A nd           | Website:  www.openfoam.com                      |
|    \\/     M anipulation  |                                                 |
\*---------------------------------------------------------------------------*/
FoamFile
{
    version     2.0;
    format      ascii;
    arch        "LSB;label=32;scalar=64";
    class       volScalarField;
    location    "0.009";
    object      Ma;
}
// * * * * * * * * * * * * * * * * * * * * * * * * * * * * * * * * * * * * * //

dimensions      [0 0 0 0 0 0 0];

internalField   nonuniform List<scalar> 
81000
(
0.00127143
0.00127126
0.00127096
0.00127042
0.0012697
0.0012689
0.00126814
0.00126749
0.00126696
0.00126655
0.00126625
0.00126605
0.00126592
0.00126584
0.00126581
0.00126581
0.00126584
0.00126596
0.00126622
0.00126665
0.00126722
0.00126789
0.00126861
0.00126934
0.00127005
0.00127072
0.00127133
0.00127189
0.00127238
0.00127281
0.00127316
0.00127345
0.0012737
0.00127396
0.00127421
0.00127447
0.00127472
0.00127496
0.00127519
0.00127542
0.00127565
0.00127588
0.00127611
0.00127633
0.00127653
0.00127669
0.00127681
0.00127686
0.00127684
0.00127674
0.00127655
0.00127626
0.00127587
0.00127539
0.00127479
0.00127409
0.00127329
0.00127239
0.00127139
0.00127031
0.00126915
0.00126791
0.0012666
0.00126524
0.00126382
0.00126235
0.00126086
0.00125935
0.00125784
0.00125632
0.00125474
0.00125304
0.00125117
0.00124914
0.00124696
0.00124466
0.00124228
0.00123986
0.00123742
0.00123501
0.00123269
0.00123049
0.00122848
0.00122675
0.00122535
0.00122433
0.0012237
0.00122338
0.00122328
0.00122326
0.00122329
0.00122342
0.00122374
0.00122435
0.00122529
0.00122655
0.00122796
0.00122926
0.00123017
0.00123063
0.00362201
0.00362144
0.0036209
0.00362009
0.00361914
0.00361818
0.00361732
0.00361662
0.0036161
0.00361575
0.00361554
0.00361544
0.00361544
0.00361551
0.00361567
0.00361594
0.00361632
0.00361678
0.00361731
0.00361789
0.00361848
0.00361908
0.00361966
0.00362021
0.00362073
0.0036212
0.00362162
0.00362198
0.00362227
0.00362252
0.00362275
0.00362296
0.00362318
0.00362339
0.00362361
0.00362382
0.00362403
0.00362426
0.0036245
0.00362477
0.00362508
0.00362541
0.00362576
0.00362613
0.00362649
0.00362685
0.0036272
0.00362754
0.00362786
0.00362816
0.00362844
0.00362869
0.00362891
0.00362909
0.00362921
0.00362926
0.00362923
0.00362912
0.00362893
0.00362866
0.00362831
0.00362787
0.00362735
0.00362675
0.00362605
0.00362523
0.00362425
0.00362308
0.00362172
0.00362014
0.00361834
0.00361631
0.00361407
0.00361164
0.00360903
0.00360628
0.00360345
0.00360058
0.00359775
0.00359503
0.0035925
0.00359023
0.00358825
0.00358659
0.00358526
0.00358424
0.00358351
0.00358306
0.00358283
0.00358276
0.00358277
0.00358296
0.00358363
0.00358505
0.00358729
0.00359011
0.00359298
0.00359531
0.00359672
0.00359753
0.00428472
0.00428297
0.00428078
0.00427818
0.00427566
0.00427348
0.00427167
0.00427019
0.00426896
0.00426794
0.00426711
0.00426645
0.00426595
0.00426559
0.00426535
0.00426522
0.00426517
0.00426516
0.00426519
0.00426527
0.00426543
0.00426569
0.00426597
0.00426625
0.00426646
0.0042666
0.00426666
0.00426666
0.00426661
0.00426652
0.0042664
0.00426625
0.0042661
0.00426597
0.00426586
0.00426581
0.00426585
0.00426599
0.00426625
0.00426661
0.0042671
0.00426773
0.00426852
0.00426952
0.00427077
0.00427231
0.00427418
0.00427642
0.00427906
0.00428211
0.00428557
0.00428943
0.00429364
0.00429813
0.00430281
0.00430759
0.00431235
0.004317
0.00432148
0.00432574
0.00432977
0.00433355
0.00433714
0.00434057
0.00434383
0.00434685
0.00434953
0.00435174
0.00435333
0.00435405
0.0043536
0.00435189
0.00434887
0.00434448
0.00433874
0.00433178
0.00432381
0.00431518
0.00430616
0.00429712
0.00428833
0.00428012
0.00427267
0.00426616
0.00426062
0.00425612
0.00425264
0.00425024
0.00424882
0.00424825
0.00424825
0.00424882
0.00425057
0.00425369
0.00425738
0.0042607
0.00426287
0.00426389
0.00426416
0.00426227
0.00662062
0.00661826
0.00661624
0.00661367
0.00661109
0.00660882
0.00660697
0.0066055
0.00660435
0.00660347
0.00660283
0.00660239
0.00660214
0.00660202
0.00660198
0.00660199
0.00660205
0.00660222
0.0066025
0.00660285
0.00660322
0.00660356
0.00660384
0.00660404
0.00660418
0.00660427
0.00660432
0.00660435
0.00660436
0.00660437
0.00660437
0.00660436
0.00660433
0.00660427
0.0066042
0.0066041
0.00660401
0.00660393
0.00660387
0.00660384
0.00660383
0.00660383
0.00660385
0.00660388
0.00660392
0.00660399
0.00660411
0.00660432
0.00660464
0.00660513
0.00660578
0.00660661
0.00660758
0.00660864
0.00660976
0.00661092
0.00661213
0.00661338
0.00661471
0.00661615
0.00661777
0.00661961
0.00662173
0.00662417
0.00662696
0.00663012
0.00663362
0.0066374
0.0066414
0.00664555
0.00664976
0.00665394
0.00665804
0.006662
0.00666575
0.00666924
0.00667244
0.00667533
0.00667801
0.00668055
0.00668297
0.00668528
0.00668746
0.00668951
0.00669144
0.00669327
0.00669501
0.00669668
0.00669829
0.00669981
0.00670121
0.00670246
0.00670352
0.00670435
0.00670497
0.00670539
0.00670566
0.00670582
0.00670607
0.00667792
0.0130165
0.0130126
0.0130116
0.0130103
0.013009
0.0130079
0.013007
0.0130063
0.0130058
0.0130054
0.0130051
0.0130049
0.0130048
0.0130047
0.0130046
0.0130046
0.0130046
0.0130047
0.0130047
0.0130048
0.013005
0.0130051
0.0130052
0.0130052
0.0130053
0.0130053
0.0130053
0.0130053
0.0130053
0.0130052
0.0130052
0.0130051
0.013005
0.0130049
0.0130048
0.0130047
0.0130047
0.0130048
0.0130048
0.0130049
0.0130049
0.013005
0.0130051
0.0130052
0.0130053
0.0130054
0.0130054
0.0130053
0.0130051
0.0130047
0.0130042
0.0130035
0.0130027
0.0130018
0.0130008
0.0129997
0.0129985
0.0129974
0.0129964
0.0129954
0.0129946
0.0129941
0.012994
0.0129942
0.0129951
0.0129965
0.0129983
0.0130007
0.0130035
0.0130068
0.0130103
0.013014
0.0130178
0.0130217
0.0130255
0.0130293
0.0130329
0.0130363
0.0130394
0.0130423
0.0130448
0.013047
0.0130488
0.0130505
0.0130519
0.0130533
0.0130546
0.0130559
0.0130572
0.0130584
0.0130596
0.0130607
0.0130616
0.0130624
0.013063
0.0130635
0.0130638
0.0130641
0.0130642
0.0130656
0.0250713
0.0251478
0.0251474
0.0251472
0.0251471
0.025147
0.025147
0.025147
0.0251469
0.0251469
0.0251468
0.0251468
0.0251468
0.0251468
0.0251468
0.0251468
0.0251468
0.0251468
0.0251468
0.0251468
0.0251468
0.0251469
0.025147
0.025147
0.0251471
0.0251472
0.0251473
0.0251474
0.0251475
0.0251476
0.0251478
0.0251479
0.0251481
0.0251482
0.0251484
0.0251486
0.0251488
0.0251489
0.0251491
0.0251493
0.0251494
0.0251497
0.0251499
0.0251502
0.0251505
0.0251508
0.0251512
0.0251516
0.0251519
0.0251523
0.0251525
0.0251527
0.0251527
0.0251526
0.0251522
0.0251517
0.025151
0.0251501
0.025149
0.0251478
0.0251465
0.0251452
0.0251439
0.0251426
0.0251415
0.0251406
0.0251399
0.0251394
0.0251392
0.0251393
0.0251396
0.0251401
0.025141
0.025142
0.0251432
0.0251445
0.0251459
0.0251473
0.0251487
0.0251501
0.0251514
0.0251527
0.0251538
0.0251548
0.0251557
0.0251565
0.0251572
0.0251579
0.0251586
0.0251591
0.0251596
0.0251601
0.0251605
0.0251609
0.0251613
0.0251616
0.0251619
0.0251623
0.0251624
0.0251088
0.0413386
0.0414634
0.0414646
0.0414647
0.0414647
0.0414647
0.0414647
0.0414647
0.0414647
0.0414646
0.0414646
0.0414646
0.0414645
0.0414644
0.0414643
0.0414642
0.0414641
0.0414639
0.0414637
0.0414634
0.0414632
0.0414628
0.0414625
0.0414621
0.0414617
0.0414613
0.0414608
0.0414603
0.0414598
0.0414593
0.0414587
0.0414581
0.0414575
0.0414569
0.0414563
0.0414556
0.041455
0.0414543
0.0414535
0.0414528
0.041452
0.0414513
0.0414506
0.0414499
0.0414494
0.0414488
0.0414484
0.041448
0.0414477
0.0414475
0.0414474
0.0414474
0.0414475
0.0414477
0.041448
0.0414484
0.0414489
0.0414495
0.0414502
0.041451
0.041452
0.0414531
0.0414543
0.0414556
0.041457
0.0414585
0.04146
0.0414615
0.0414632
0.0414648
0.0414665
0.0414683
0.04147
0.0414718
0.0414735
0.0414754
0.0414772
0.0414791
0.0414809
0.0414827
0.0414843
0.0414857
0.0414869
0.041488
0.041489
0.0414897
0.0414904
0.0414909
0.0414913
0.0414916
0.0414919
0.0414921
0.0414922
0.0414923
0.0414924
0.0414925
0.0414925
0.0414926
0.0414928
0.0413803
0.0561291
0.0562073
0.0562069
0.0562066
0.0562064
0.0562063
0.056206
0.0562058
0.0562054
0.056205
0.0562046
0.056204
0.0562034
0.0562027
0.056202
0.0562012
0.0562003
0.0561994
0.0561984
0.0561975
0.0561965
0.0561955
0.0561945
0.0561935
0.0561926
0.0561916
0.0561907
0.0561899
0.056189
0.0561883
0.0561875
0.0561869
0.0561862
0.0561857
0.0561851
0.0561847
0.0561842
0.0561838
0.0561835
0.0561831
0.0561828
0.0561826
0.0561823
0.0561821
0.0561819
0.0561817
0.0561816
0.0561814
0.0561813
0.0561811
0.0561809
0.0561807
0.0561805
0.0561803
0.0561802
0.0561801
0.05618
0.05618
0.0561801
0.0561803
0.0561805
0.0561809
0.0561814
0.0561821
0.0561829
0.056184
0.0561853
0.0561868
0.0561887
0.0561909
0.0561933
0.0561961
0.0561991
0.0562023
0.0562057
0.0562092
0.0562129
0.0562166
0.0562203
0.0562239
0.0562274
0.0562309
0.0562341
0.0562371
0.0562399
0.0562424
0.0562446
0.0562466
0.0562482
0.0562495
0.0562506
0.0562514
0.056252
0.0562524
0.0562526
0.0562528
0.0562529
0.0562532
0.0562536
0.0562049
0.0652279
0.0654082
0.0654084
0.0654085
0.0654081
0.0654076
0.0654071
0.0654065
0.0654059
0.0654052
0.0654044
0.0654035
0.0654026
0.0654017
0.0654007
0.0653996
0.0653986
0.0653975
0.0653964
0.0653954
0.0653944
0.0653935
0.0653926
0.0653918
0.0653911
0.0653905
0.06539
0.0653895
0.0653892
0.0653889
0.0653887
0.0653885
0.0653884
0.0653883
0.0653883
0.0653882
0.0653882
0.0653883
0.0653883
0.0653884
0.0653884
0.0653885
0.0653887
0.0653888
0.065389
0.0653893
0.0653896
0.06539
0.0653904
0.0653909
0.0653914
0.065392
0.0653927
0.0653934
0.0653942
0.065395
0.0653959
0.0653968
0.0653977
0.0653986
0.0653995
0.0654004
0.0654013
0.065402
0.0654027
0.0654033
0.0654038
0.0654042
0.0654045
0.0654047
0.0654048
0.0654048
0.0654048
0.0654049
0.065405
0.0654053
0.0654056
0.065406
0.0654065
0.0654072
0.0654079
0.0654088
0.0654099
0.065411
0.0654123
0.0654136
0.0654149
0.0654163
0.0654177
0.0654191
0.0654204
0.0654217
0.0654229
0.0654241
0.0654252
0.0654263
0.0654269
0.0654277
0.0654272
0.0652323
0.0661629
0.0662731
0.0662733
0.0662727
0.0662729
0.066273
0.0662727
0.0662726
0.0662735
0.0662733
0.0662735
0.0662731
0.0662723
0.0662725
0.0662724
0.0662725
0.0662725
0.0662727
0.0662716
0.0662729
0.0662714
0.0662718
0.0662718
0.0662717
0.0662713
0.066272
0.0662708
0.0662722
0.0662705
0.066272
0.0662709
0.0662721
0.0662708
0.0662705
0.0662712
0.0662703
0.0662714
0.0662701
0.0662705
0.0662703
0.0662708
0.0662705
0.0662706
0.0662707
0.0662714
0.0662707
0.0662706
0.0662703
0.066271
0.0662698
0.0662708
0.0662705
0.0662704
0.0662701
0.0662702
0.0662706
0.0662707
0.0662708
0.0662706
0.0662696
0.0662702
0.0662702
0.0662703
0.0662702
0.0662707
0.0662698
0.0662708
0.0662698
0.0662705
0.0662699
0.0662705
0.0662699
0.0662705
0.0662703
0.0662698
0.0662698
0.0662708
0.0662711
0.0662704
0.0662716
0.0662703
0.0662713
0.0662704
0.0662714
0.0662703
0.0662714
0.0662704
0.0662702
0.0662722
0.0662718
0.0662719
0.0662711
0.0662716
0.0662713
0.0662718
0.0662712
0.0662721
0.066271
0.066271
0.0661637
0.00128925
0.0012889
0.00128853
0.001288
0.00128737
0.00128672
0.00128611
0.00128558
0.00128515
0.00128484
0.00128463
0.0012845
0.00128445
0.00128443
0.00128444
0.00128447
0.00128455
0.00128472
0.001285
0.00128539
0.00128588
0.00128645
0.00128707
0.00128771
0.00128833
0.00128893
0.00128948
0.00128998
0.00129042
0.0012908
0.00129112
0.00129138
0.00129161
0.00129184
0.00129208
0.00129232
0.00129255
0.00129279
0.00129302
0.00129325
0.00129349
0.00129372
0.00129395
0.00129418
0.00129438
0.00129455
0.00129468
0.00129475
0.00129475
0.00129467
0.0012945
0.00129425
0.0012939
0.00129346
0.00129292
0.00129227
0.00129152
0.00129066
0.00128971
0.00128867
0.00128754
0.00128633
0.00128505
0.00128371
0.00128232
0.00128089
0.00127943
0.00127795
0.00127646
0.00127496
0.00127338
0.0012717
0.00126988
0.00126793
0.00126586
0.0012637
0.00126147
0.00125918
0.00125689
0.00125462
0.00125243
0.00125038
0.00124855
0.00124699
0.00124576
0.00124487
0.00124432
0.00124404
0.00124393
0.00124391
0.00124393
0.00124402
0.00124429
0.00124482
0.00124572
0.001247
0.00124852
0.00125002
0.00125114
0.00125184
0.00364738
0.00364625
0.00364549
0.00364449
0.00364341
0.0036424
0.00364153
0.00364082
0.00364029
0.00363992
0.00363968
0.00363954
0.00363948
0.00363951
0.0036396
0.00363977
0.00364
0.00364031
0.00364069
0.00364111
0.00364157
0.00364204
0.00364251
0.00364296
0.00364339
0.00364377
0.0036441
0.00364438
0.00364461
0.0036448
0.00364497
0.00364514
0.00364532
0.0036455
0.00364569
0.00364587
0.00364606
0.00364626
0.00364647
0.00364671
0.00364697
0.00364725
0.00364754
0.00364783
0.0036481
0.00364836
0.00364859
0.00364879
0.00364895
0.00364908
0.00364917
0.00364922
0.00364922
0.00364917
0.00364907
0.00364892
0.00364874
0.00364851
0.00364825
0.00364795
0.00364761
0.00364722
0.00364677
0.00364627
0.00364571
0.00364506
0.00364432
0.00364346
0.00364246
0.0036413
0.00363996
0.00363843
0.00363673
0.00363486
0.00363284
0.0036307
0.00362847
0.00362622
0.00362399
0.00362183
0.00361982
0.003618
0.0036164
0.00361508
0.00361404
0.00361329
0.00361281
0.00361256
0.00361248
0.00361248
0.00361261
0.0036131
0.00361419
0.00361601
0.00361852
0.00362144
0.00362436
0.00362685
0.00362853
0.00363008
0.00431441
0.00431295
0.00431224
0.00431101
0.00430944
0.00430782
0.00430635
0.00430515
0.00430424
0.00430363
0.00430326
0.00430307
0.004303
0.00430298
0.004303
0.00430307
0.00430325
0.00430355
0.00430397
0.00430448
0.00430506
0.00430566
0.00430624
0.00430675
0.00430716
0.00430747
0.00430769
0.00430782
0.00430788
0.00430787
0.00430782
0.00430774
0.00430763
0.00430751
0.0043074
0.00430732
0.00430729
0.00430733
0.00430745
0.00430764
0.00430791
0.00430823
0.00430861
0.00430906
0.00430961
0.00431026
0.00431103
0.00431192
0.00431295
0.00431414
0.00431549
0.004317
0.00431869
0.00432055
0.00432258
0.00432477
0.0043271
0.00432958
0.0043322
0.00433493
0.00433778
0.00434072
0.00434376
0.00434689
0.00435005
0.00435319
0.00435623
0.00435909
0.00436167
0.00436388
0.0043656
0.00436671
0.00436703
0.00436649
0.00436506
0.00436274
0.00435954
0.00435551
0.00435094
0.00434615
0.0043415
0.00433726
0.0043337
0.00433093
0.00432904
0.00432794
0.00432747
0.00432746
0.00432791
0.00432924
0.00433182
0.00433565
0.00434047
0.00434564
0.00435041
0.00435415
0.00435674
0.00435853
0.00435994
0.00436212
0.00661549
0.00662095
0.00662081
0.00662034
0.00661945
0.00661821
0.00661683
0.00661554
0.0066145
0.00661382
0.00661345
0.0066133
0.00661327
0.00661328
0.00661332
0.00661343
0.00661361
0.00661386
0.00661417
0.00661453
0.00661489
0.00661524
0.00661553
0.00661576
0.00661592
0.00661603
0.00661609
0.00661612
0.00661613
0.00661614
0.00661613
0.00661612
0.00661607
0.006616
0.0066159
0.00661576
0.00661562
0.00661547
0.00661533
0.00661521
0.00661511
0.00661503
0.00661495
0.00661488
0.00661484
0.00661483
0.00661489
0.00661504
0.00661532
0.00661576
0.00661638
0.00661717
0.00661811
0.00661915
0.00662028
0.00662149
0.00662279
0.0066242
0.00662574
0.0066274
0.00662921
0.00663117
0.0066333
0.00663555
0.00663791
0.00664034
0.00664285
0.00664549
0.00664823
0.00665103
0.00665384
0.00665665
0.00665941
0.0066621
0.0066647
0.00666722
0.00666962
0.00667195
0.00667427
0.00667662
0.00667904
0.00668155
0.00668412
0.00668671
0.0066893
0.00669186
0.00669439
0.00669689
0.00669935
0.00670174
0.00670403
0.00670615
0.00670804
0.00670962
0.00671081
0.00671157
0.00671193
0.00671203
0.00671195
0.0066699
0.0129513
0.0129606
0.0129605
0.0129602
0.0129598
0.0129591
0.0129585
0.012958
0.0129576
0.0129575
0.0129574
0.0129573
0.0129573
0.0129574
0.0129574
0.0129575
0.0129576
0.0129578
0.012958
0.0129582
0.0129584
0.0129585
0.0129586
0.0129587
0.0129588
0.0129589
0.0129589
0.0129589
0.0129589
0.0129589
0.0129589
0.0129589
0.0129589
0.0129589
0.0129589
0.0129589
0.012959
0.0129592
0.0129595
0.0129598
0.0129602
0.0129608
0.0129614
0.0129621
0.0129628
0.0129636
0.0129645
0.0129653
0.0129661
0.0129668
0.0129673
0.0129677
0.0129679
0.012968
0.0129678
0.0129675
0.0129671
0.0129666
0.0129662
0.0129659
0.0129658
0.0129661
0.0129668
0.0129678
0.0129692
0.012971
0.0129731
0.0129756
0.0129783
0.0129812
0.0129844
0.0129876
0.012991
0.0129944
0.0129978
0.0130012
0.0130045
0.0130076
0.0130105
0.0130132
0.0130156
0.0130179
0.0130199
0.0130219
0.0130237
0.0130256
0.0130273
0.0130291
0.0130307
0.0130323
0.0130337
0.0130351
0.0130363
0.0130373
0.013038
0.0130385
0.0130387
0.0130388
0.013039
0.0130107
0.024982
0.025064
0.0250641
0.0250639
0.0250638
0.0250637
0.0250637
0.0250636
0.0250636
0.0250636
0.0250636
0.0250635
0.0250635
0.0250635
0.0250635
0.0250635
0.0250635
0.0250635
0.0250635
0.0250635
0.0250635
0.0250635
0.0250634
0.0250634
0.0250633
0.0250633
0.0250632
0.0250631
0.025063
0.0250629
0.0250628
0.0250627
0.0250625
0.0250624
0.0250623
0.0250622
0.025062
0.0250619
0.0250619
0.0250619
0.0250619
0.025062
0.0250622
0.0250625
0.0250628
0.0250633
0.0250638
0.0250644
0.0250652
0.025066
0.0250669
0.025068
0.0250691
0.0250702
0.0250714
0.0250727
0.0250739
0.0250752
0.0250764
0.0250775
0.0250786
0.0250795
0.0250804
0.0250813
0.0250821
0.025083
0.0250839
0.025085
0.0250862
0.0250875
0.025089
0.0250907
0.0250925
0.0250943
0.0250962
0.0250981
0.0251
0.0251018
0.0251036
0.0251052
0.0251067
0.0251081
0.0251093
0.0251104
0.0251113
0.0251122
0.0251129
0.0251136
0.0251143
0.0251148
0.0251154
0.0251158
0.0251163
0.0251167
0.025117
0.0251173
0.0251176
0.0251179
0.0251178
0.0250608
0.0412762
0.0413876
0.041388
0.0413881
0.0413881
0.0413881
0.0413881
0.0413881
0.0413881
0.0413881
0.041388
0.041388
0.0413879
0.0413879
0.0413878
0.0413877
0.0413875
0.0413873
0.0413872
0.0413869
0.0413867
0.0413864
0.0413861
0.0413858
0.0413854
0.0413851
0.0413847
0.0413843
0.041384
0.0413836
0.0413833
0.041383
0.0413827
0.0413824
0.0413822
0.041382
0.0413819
0.0413817
0.0413816
0.0413816
0.0413815
0.0413815
0.0413814
0.0413814
0.0413814
0.0413814
0.0413814
0.0413814
0.0413814
0.0413815
0.0413817
0.0413819
0.0413822
0.0413826
0.0413829
0.0413834
0.0413838
0.0413842
0.0413847
0.0413852
0.0413857
0.0413863
0.0413868
0.0413874
0.0413881
0.0413888
0.0413895
0.0413904
0.0413914
0.0413926
0.0413939
0.0413954
0.041397
0.0413987
0.0414006
0.0414027
0.0414048
0.041407
0.0414092
0.0414114
0.0414134
0.0414154
0.0414172
0.0414188
0.0414201
0.0414213
0.0414223
0.0414232
0.0414238
0.0414244
0.0414248
0.0414251
0.0414254
0.0414255
0.0414257
0.0414257
0.0414258
0.0414259
0.0414259
0.0413335
0.0560916
0.0561588
0.0561584
0.056158
0.0561578
0.0561576
0.0561574
0.0561572
0.0561568
0.0561564
0.056156
0.0561555
0.0561549
0.0561542
0.0561534
0.0561526
0.0561518
0.0561509
0.0561499
0.056149
0.056148
0.056147
0.0561461
0.0561451
0.0561442
0.0561434
0.0561426
0.0561418
0.0561411
0.0561405
0.05614
0.0561395
0.0561391
0.0561388
0.0561386
0.0561385
0.0561384
0.0561383
0.0561384
0.0561384
0.0561385
0.0561385
0.0561386
0.0561386
0.0561387
0.0561386
0.0561386
0.0561385
0.0561384
0.0561383
0.056138
0.0561378
0.0561375
0.0561371
0.0561368
0.0561363
0.0561359
0.0561354
0.0561349
0.0561344
0.0561339
0.0561334
0.0561329
0.0561326
0.0561323
0.0561322
0.0561323
0.0561328
0.0561335
0.0561346
0.056136
0.0561378
0.0561399
0.0561424
0.0561451
0.0561481
0.0561512
0.0561544
0.0561577
0.056161
0.0561643
0.0561675
0.0561705
0.0561734
0.0561761
0.0561785
0.0561807
0.0561825
0.0561841
0.0561855
0.0561865
0.0561873
0.0561879
0.0561884
0.0561887
0.0561889
0.056189
0.0561892
0.0561893
0.0561526
0.0652428
0.0654362
0.0654367
0.0654366
0.0654362
0.0654358
0.0654353
0.0654347
0.0654341
0.0654334
0.0654326
0.0654318
0.0654309
0.0654299
0.0654288
0.0654278
0.0654267
0.0654255
0.0654244
0.0654234
0.0654223
0.0654214
0.0654205
0.0654196
0.0654189
0.0654183
0.0654178
0.0654174
0.0654171
0.0654169
0.0654168
0.0654168
0.0654169
0.065417
0.0654172
0.0654174
0.0654176
0.0654179
0.0654182
0.0654185
0.0654189
0.0654192
0.0654196
0.06542
0.0654204
0.0654208
0.0654212
0.0654216
0.0654221
0.0654226
0.0654231
0.0654236
0.0654241
0.0654246
0.0654251
0.0654256
0.0654261
0.0654265
0.0654268
0.0654271
0.0654272
0.0654273
0.0654272
0.065427
0.0654267
0.0654263
0.0654259
0.0654254
0.0654248
0.0654242
0.0654236
0.0654231
0.0654226
0.0654223
0.0654221
0.0654221
0.0654222
0.0654225
0.065423
0.0654237
0.0654245
0.0654255
0.0654266
0.0654279
0.0654292
0.0654306
0.065432
0.0654335
0.0654349
0.0654363
0.0654377
0.065439
0.0654403
0.0654415
0.0654426
0.0654436
0.0654443
0.0654454
0.0654447
0.0652398
0.0663783
0.0666352
0.0666355
0.0666361
0.0666359
0.0666358
0.0666359
0.0666356
0.0666351
0.0666351
0.0666351
0.0666347
0.0666358
0.0666352
0.066635
0.0666347
0.0666346
0.0666343
0.0666347
0.0666338
0.0666347
0.0666344
0.066634
0.0666338
0.0666338
0.0666333
0.0666336
0.0666329
0.0666334
0.0666328
0.0666328
0.0666324
0.0666325
0.0666331
0.0666324
0.0666329
0.066632
0.0666329
0.0666328
0.0666325
0.0666325
0.0666322
0.0666318
0.0666315
0.0666307
0.0666315
0.0666318
0.066632
0.0666318
0.0666322
0.0666314
0.0666316
0.0666317
0.066632
0.0666319
0.0666317
0.0666315
0.0666317
0.0666315
0.0666323
0.0666322
0.0666321
0.0666319
0.0666322
0.0666324
0.0666325
0.0666324
0.0666329
0.0666328
0.0666331
0.0666331
0.0666333
0.0666334
0.0666337
0.0666339
0.066635
0.0666335
0.0666344
0.0666344
0.0666342
0.0666349
0.0666348
0.0666352
0.066635
0.0666356
0.0666354
0.066636
0.0666357
0.0666355
0.0666352
0.0666353
0.0666361
0.0666361
0.0666362
0.0666362
0.0666361
0.066636
0.0666363
0.0666361
0.0663793
0.00131012
0.00131052
0.00131049
0.00131036
0.00131011
0.00130975
0.00130932
0.00130889
0.00130853
0.00130827
0.00130811
0.00130804
0.00130803
0.00130805
0.00130811
0.00130822
0.00130838
0.00130861
0.0013089
0.00130925
0.00130968
0.00131015
0.00131066
0.00131119
0.00131171
0.00131221
0.00131268
0.00131311
0.00131348
0.0013138
0.00131406
0.00131427
0.00131447
0.00131466
0.00131487
0.00131508
0.00131529
0.00131551
0.00131573
0.00131596
0.00131619
0.00131643
0.00131667
0.0013169
0.00131711
0.00131729
0.00131743
0.00131752
0.00131755
0.0013175
0.00131738
0.00131717
0.00131687
0.00131648
0.001316
0.00131542
0.00131474
0.00131397
0.00131309
0.00131212
0.00131106
0.00130991
0.00130869
0.0013074
0.00130606
0.00130469
0.0013033
0.00130191
0.00130051
0.0012991
0.00129764
0.00129608
0.00129437
0.00129252
0.00129052
0.0012884
0.00128616
0.00128383
0.00128144
0.00127904
0.00127669
0.00127445
0.00127241
0.00127061
0.0012691
0.0012679
0.00126702
0.00126641
0.00126605
0.00126587
0.00126582
0.00126582
0.0012659
0.0012662
0.00126686
0.00126786
0.00126907
0.00127019
0.00127098
0.0012716
0.00367592
0.00367464
0.00367411
0.00367326
0.00367221
0.00367116
0.00367027
0.00366961
0.00366919
0.00366896
0.00366887
0.00366888
0.00366898
0.00366914
0.00366937
0.00366967
0.00367004
0.00367045
0.0036709
0.00367138
0.00367187
0.00367235
0.00367281
0.00367325
0.00367365
0.00367401
0.00367432
0.00367458
0.00367479
0.00367497
0.00367514
0.00367531
0.00367548
0.00367567
0.00367585
0.00367604
0.00367623
0.00367643
0.00367662
0.00367683
0.00367704
0.00367727
0.00367749
0.00367771
0.00367791
0.00367808
0.0036782
0.00367826
0.00367826
0.00367819
0.00367805
0.00367785
0.00367758
0.00367725
0.00367685
0.0036764
0.00367591
0.00367538
0.00367483
0.00367425
0.00367365
0.00367303
0.00367239
0.00367173
0.00367106
0.00367039
0.00366972
0.00366905
0.00366834
0.00366758
0.00366672
0.00366577
0.0036647
0.00366352
0.00366222
0.00366081
0.00365929
0.00365767
0.00365599
0.00365429
0.00365264
0.00365113
0.00364984
0.00364883
0.00364814
0.00364776
0.00364759
0.00364756
0.00364759
0.00364776
0.00364822
0.00364916
0.00365071
0.00365295
0.00365582
0.00365907
0.00366232
0.00366508
0.00366693
0.00366901
0.00434448
0.00435286
0.00435278
0.00435242
0.0043517
0.00435069
0.00434962
0.00434874
0.00434819
0.00434794
0.00434788
0.00434788
0.00434792
0.00434806
0.00434832
0.00434871
0.00434923
0.00434986
0.0043506
0.00435142
0.00435228
0.00435316
0.00435399
0.00435476
0.00435542
0.00435596
0.00435639
0.00435671
0.00435693
0.00435709
0.00435717
0.00435718
0.00435716
0.00435711
0.00435704
0.00435697
0.00435692
0.00435689
0.00435689
0.00435691
0.00435695
0.00435696
0.00435693
0.00435684
0.00435665
0.00435636
0.00435595
0.00435541
0.00435473
0.00435395
0.00435309
0.00435219
0.00435129
0.00435046
0.00434976
0.00434929
0.00434912
0.00434934
0.00435002
0.00435117
0.00435278
0.00435482
0.00435727
0.00436006
0.00436315
0.00436646
0.00436994
0.00437358
0.00437734
0.00438119
0.00438507
0.00438889
0.00439256
0.00439598
0.00439907
0.00440173
0.00440392
0.00440564
0.00440689
0.00440782
0.00440871
0.00440982
0.00441127
0.00441308
0.00441528
0.00441787
0.00442087
0.00442431
0.00442829
0.00443289
0.00443816
0.00444412
0.00445063
0.00445752
0.00446451
0.00447128
0.00447745
0.00448254
0.00448603
0.00448971
0.00664895
0.00664864
0.00664859
0.00664834
0.00664774
0.00664673
0.00664549
0.00664429
0.00664339
0.00664287
0.00664267
0.00664262
0.00664263
0.00664266
0.00664272
0.00664283
0.00664299
0.0066432
0.00664346
0.00664376
0.00664407
0.00664437
0.00664463
0.00664484
0.00664499
0.00664508
0.00664512
0.00664514
0.00664514
0.00664514
0.00664512
0.00664509
0.00664503
0.00664494
0.00664481
0.00664466
0.00664449
0.0066443
0.00664413
0.00664397
0.00664383
0.00664369
0.00664355
0.00664342
0.00664331
0.00664324
0.00664324
0.00664335
0.00664358
0.00664397
0.00664454
0.00664528
0.00664615
0.00664712
0.00664815
0.00664923
0.00665037
0.00665157
0.00665282
0.00665411
0.00665544
0.00665678
0.00665815
0.00665959
0.0066611
0.00666274
0.00666443
0.00666608
0.00666771
0.00666933
0.00667103
0.00667283
0.00667471
0.00667662
0.00667854
0.00668049
0.00668249
0.0066846
0.00668687
0.00668936
0.00669208
0.00669506
0.00669825
0.00670157
0.00670497
0.00670836
0.00671168
0.00671489
0.00671797
0.0067209
0.00672373
0.00672642
0.00672913
0.00673154
0.00673382
0.00673565
0.00673685
0.00673742
0.00673756
0.00673131
0.0128933
0.0129022
0.0129023
0.0129023
0.0129022
0.012902
0.0129019
0.0129017
0.0129017
0.0129016
0.0129017
0.0129017
0.0129018
0.0129019
0.0129021
0.0129022
0.0129024
0.0129025
0.0129026
0.0129027
0.0129027
0.0129028
0.0129028
0.0129029
0.0129029
0.0129029
0.0129029
0.0129029
0.0129028
0.0129028
0.0129028
0.0129028
0.0129028
0.0129029
0.0129029
0.0129031
0.0129032
0.0129035
0.0129039
0.0129044
0.0129051
0.0129059
0.0129069
0.0129081
0.0129095
0.012911
0.0129127
0.0129145
0.0129164
0.0129183
0.0129203
0.0129222
0.0129242
0.0129261
0.012928
0.0129299
0.0129318
0.0129338
0.0129359
0.0129381
0.0129404
0.0129428
0.0129453
0.0129479
0.0129504
0.0129531
0.0129558
0.0129587
0.0129617
0.0129648
0.012968
0.0129713
0.0129747
0.0129782
0.0129817
0.0129851
0.0129883
0.0129914
0.0129944
0.0129971
0.0129996
0.013002
0.0130042
0.0130064
0.0130085
0.0130105
0.0130124
0.0130142
0.0130158
0.0130174
0.0130189
0.0130204
0.0130217
0.0130227
0.0130236
0.0130243
0.0130247
0.0130249
0.0130249
0.0130215
0.0250105
0.0250836
0.0250836
0.0250834
0.0250833
0.0250832
0.0250831
0.0250831
0.025083
0.025083
0.025083
0.025083
0.0250829
0.0250829
0.0250829
0.0250829
0.0250829
0.0250829
0.0250828
0.0250828
0.0250827
0.0250826
0.0250825
0.0250824
0.0250823
0.0250821
0.025082
0.0250818
0.0250816
0.0250813
0.0250811
0.0250808
0.0250806
0.0250803
0.02508
0.0250798
0.0250795
0.0250794
0.0250792
0.0250792
0.0250792
0.0250793
0.0250795
0.0250799
0.0250804
0.025081
0.0250818
0.0250827
0.0250837
0.025085
0.0250864
0.0250881
0.0250899
0.0250919
0.025094
0.0250963
0.0250988
0.0251013
0.0251039
0.0251066
0.0251094
0.025112
0.0251146
0.0251171
0.0251195
0.0251219
0.0251242
0.0251264
0.0251286
0.0251308
0.0251329
0.0251352
0.0251374
0.0251397
0.0251419
0.0251441
0.0251463
0.0251484
0.0251504
0.0251523
0.025154
0.0251556
0.025157
0.0251582
0.0251593
0.0251602
0.0251611
0.0251619
0.0251626
0.0251632
0.0251638
0.0251643
0.0251648
0.0251652
0.0251656
0.0251659
0.0251662
0.0251667
0.0251669
0.0251149
0.0413405
0.0414442
0.0414443
0.0414442
0.0414442
0.0414442
0.0414442
0.0414442
0.0414442
0.0414442
0.0414442
0.0414441
0.0414441
0.041444
0.0414439
0.0414438
0.0414437
0.0414435
0.0414433
0.0414431
0.0414429
0.0414426
0.0414423
0.041442
0.0414417
0.0414414
0.0414411
0.0414408
0.0414405
0.0414402
0.04144
0.0414398
0.0414397
0.0414397
0.0414397
0.0414398
0.04144
0.0414402
0.0414404
0.0414406
0.0414409
0.0414412
0.0414415
0.0414418
0.0414421
0.0414424
0.0414427
0.041443
0.0414433
0.0414437
0.0414441
0.0414445
0.0414449
0.0414453
0.0414458
0.0414462
0.0414468
0.0414473
0.0414479
0.0414484
0.0414488
0.0414493
0.0414496
0.04145
0.0414502
0.0414504
0.0414507
0.0414509
0.0414512
0.0414516
0.0414522
0.0414529
0.0414539
0.0414551
0.0414566
0.0414583
0.0414601
0.0414621
0.0414641
0.0414662
0.0414682
0.0414703
0.0414722
0.0414739
0.0414755
0.0414769
0.0414781
0.0414791
0.0414799
0.0414806
0.0414811
0.0414815
0.0414818
0.041482
0.0414822
0.0414823
0.0414824
0.0414824
0.0414821
0.0414039
0.0562072
0.0562788
0.0562782
0.0562779
0.0562776
0.0562774
0.0562772
0.0562769
0.0562766
0.0562762
0.0562758
0.0562752
0.0562746
0.056274
0.0562732
0.0562724
0.0562716
0.0562707
0.0562697
0.0562688
0.0562678
0.0562668
0.0562659
0.0562649
0.056264
0.0562632
0.0562623
0.0562616
0.0562608
0.0562602
0.0562596
0.0562591
0.0562586
0.0562582
0.0562579
0.0562576
0.0562574
0.0562572
0.0562569
0.0562568
0.0562566
0.0562564
0.0562562
0.056256
0.0562559
0.0562557
0.0562555
0.0562554
0.0562552
0.056255
0.0562548
0.0562546
0.0562544
0.0562541
0.0562539
0.0562537
0.0562535
0.0562533
0.056253
0.0562528
0.0562526
0.0562524
0.0562522
0.0562519
0.0562516
0.0562514
0.0562511
0.056251
0.056251
0.0562512
0.0562515
0.0562521
0.056253
0.0562541
0.0562554
0.056257
0.0562587
0.0562607
0.0562628
0.056265
0.0562673
0.0562696
0.0562718
0.056274
0.0562761
0.056278
0.0562798
0.0562814
0.0562828
0.0562841
0.0562851
0.056286
0.0562866
0.0562871
0.0562874
0.0562875
0.0562876
0.0562877
0.0562878
0.0562506
0.0654285
0.0656758
0.0656767
0.0656765
0.0656763
0.0656759
0.0656755
0.0656751
0.0656745
0.0656738
0.0656731
0.0656723
0.0656713
0.0656704
0.0656693
0.0656682