/*--------------------------------*- C++ -*----------------------------------*\
| =========                 |                                                 |
| \\      /  F ield         | OpenFOAM: The Open Source CFD Toolbox           |
|  \\    /   O peration     | Version:  2406                                  |
|   \\  /    A nd           | Website:  www.openfoam.com                      |
|    \\/     M anipulation  |                                                 |
\*---------------------------------------------------------------------------*/
FoamFile
{
    version     2.0;
    format      ascii;
    arch        "LSB;label=32;scalar=64";
    class       volVectorField;
    location    "0.009";
    object      U;
}
// * * * * * * * * * * * * * * * * * * * * * * * * * * * * * * * * * * * * * //

dimensions      [0 1 -1 0 0 0 0];

internalField   nonuniform List<vector> 
81000
(
(0.0334829 0.435684 0)
(0.0334781 0.435596 0)
(0.0334771 0.435492 0)
(0.0334759 0.435306 0)
(0.0334749 0.435057 0)
(0.0334748 0.434784 0)
(0.0334772 0.434522 0)
(0.033483 0.434295 0)
(0.0334917 0.434111 0)
(0.033501 0.433971 0)
(0.0335094 0.433868 0)
(0.0335166 0.433796 0)
(0.0335226 0.43375 0)
(0.0335272 0.433725 0)
(0.033531 0.433713 0)
(0.0335368 0.433712 0)
(0.0335434 0.433723 0)
(0.033555 0.433764 0)
(0.0335723 0.433853 0)
(0.0335945 0.433998 0)
(0.0336209 0.434192 0)
(0.0336511 0.434421 0)
(0.033685 0.434668 0)
(0.0337231 0.434917 0)
(0.0337656 0.435158 0)
(0.0338134 0.435384 0)
(0.0338683 0.435592 0)
(0.0339331 0.435779 0)
(0.0340116 0.435942 0)
(0.0341083 0.436081 0)
(0.0342247 0.436193 0)
(0.034356 0.436282 0)
(0.0344937 0.43636 0)
(0.034632 0.436436 0)
(0.0347689 0.436513 0)
(0.0349046 0.436591 0)
(0.0350398 0.436666 0)
(0.0351747 0.436739 0)
(0.035309 0.436809 0)
(0.0354418 0.436877 0)
(0.0355715 0.436945 0)
(0.0356971 0.437014 0)
(0.0358185 0.437083 0)
(0.0359368 0.43715 0)
(0.0360537 0.437208 0)
(0.0361708 0.437255 0)
(0.0362898 0.437286 0)
(0.0364111 0.437294 0)
(0.0365344 0.437277 0)
(0.0366584 0.43723 0)
(0.0367823 0.437154 0)
(0.036905 0.437044 0)
(0.0370259 0.436901 0)
(0.0371447 0.436723 0)
(0.0372616 0.436508 0)
(0.0373779 0.436257 0)
(0.0374954 0.43597 0)
(0.0376162 0.435648 0)
(0.0377426 0.435294 0)
(0.0378766 0.434908 0)
(0.0380199 0.434494 0)
(0.0381734 0.434054 0)
(0.0383375 0.433589 0)
(0.0385133 0.433102 0)
(0.0387031 0.432595 0)
(0.0389106 0.432072 0)
(0.0391405 0.431536 0)
(0.0393981 0.430993 0)
(0.0396864 0.430444 0)
(0.040001 0.429889 0)
(0.0403209 0.429315 0)
(0.0406092 0.428701 0)
(0.0408386 0.428034 0)
(0.0410068 0.427315 0)
(0.0411265 0.426551 0)
(0.041211 0.42575 0)
(0.04127 0.424923 0)
(0.0413106 0.424081 0)
(0.0413376 0.423237 0)
(0.0413544 0.422405 0)
(0.0413635 0.4216 0)
(0.0413667 0.42084 0)
(0.0413661 0.420148 0)
(0.0413635 0.419549 0)
(0.0413606 0.419066 0)
(0.0413587 0.418715 0)
(0.0413578 0.418497 0)
(0.0413578 0.418388 0)
(0.0413581 0.418351 0)
(0.0413586 0.418346 0)
(0.041359 0.418357 0)
(0.0413601 0.418402 0)
(0.0413624 0.418512 0)
(0.0413665 0.418721 0)
(0.041373 0.419047 0)
(0.0413817 0.41948 0)
(0.0413911 0.419966 0)
(0.0413988 0.420413 0)
(0.0414035 0.420727 0)
(0.0414098 0.420909 0)
(0.0363278 1.24432 0)
(0.0363216 1.24402 0)
(0.0363242 1.24383 0)
(0.0363323 1.24355 0)
(0.0363495 1.24322 0)
(0.0363767 1.24289 0)
(0.036411 1.2426 0)
(0.0364477 1.24235 0)
(0.0364829 1.24217 0)
(0.0365144 1.24205 0)
(0.0365421 1.24198 0)
(0.0365673 1.24195 0)
(0.0365961 1.24194 0)
(0.036624 1.24197 0)
(0.0366563 1.24202 0)
(0.0366945 1.24212 0)
(0.0367383 1.24224 0)
(0.0367867 1.2424 0)
(0.0368393 1.24258 0)
(0.0368962 1.24278 0)
(0.0369577 1.24298 0)
(0.0370244 1.24318 0)
(0.0370971 1.24338 0)
(0.0371765 1.24357 0)
(0.0372637 1.24374 0)
(0.0373598 1.2439 0)
(0.0374665 1.24404 0)
(0.0375858 1.24416 0)
(0.0377188 1.24426 0)
(0.0378617 1.24434 0)
(0.0380088 1.24442 0)
(0.0381577 1.24449 0)
(0.0383076 1.24456 0)
(0.0384589 1.24463 0)
(0.0386127 1.2447 0)
(0.0387697 1.24476 0)
(0.0389298 1.24483 0)
(0.0390921 1.2449 0)
(0.0392549 1.24498 0)
(0.039416 1.24507 0)
(0.0395743 1.24517 0)
(0.0397295 1.24528 0)
(0.0398821 1.2454 0)
(0.0400327 1.24552 0)
(0.0401818 1.24564 0)
(0.0403294 1.24576 0)
(0.0404754 1.24587 0)
(0.040619 1.24598 0)
(0.0407592 1.24609 0)
(0.040895 1.24619 0)
(0.0410254 1.24628 0)
(0.0411494 1.24636 0)
(0.0412667 1.24643 0)
(0.0413776 1.24649 0)
(0.0414827 1.24653 0)
(0.041583 1.24654 0)
(0.0416784 1.24653 0)
(0.0417687 1.24649 0)
(0.0418553 1.24642 0)
(0.0419417 1.24632 0)
(0.042033 1.2462 0)
(0.0421352 1.24605 0)
(0.0422544 1.24586 0)
(0.0423958 1.24565 0)
(0.0425596 1.24541 0)
(0.0427371 1.24512 0)
(0.0429205 1.24477 0)
(0.0431051 1.24437 0)
(0.0432854 1.24389 0)
(0.0434572 1.24334 0)
(0.0436147 1.24272 0)
(0.0437493 1.24202 0)
(0.0438572 1.24124 0)
(0.0439415 1.2404 0)
(0.0440074 1.2395 0)
(0.0440604 1.23855 0)
(0.0441038 1.23758 0)
(0.0441397 1.23659 0)
(0.0441689 1.23561 0)
(0.0441919 1.23468 0)
(0.0442087 1.23381 0)
(0.0442199 1.23302 0)
(0.0442261 1.23234 0)
(0.0442279 1.23177 0)
(0.0442251 1.23131 0)
(0.0442189 1.23096 0)
(0.0442111 1.23071 0)
(0.0442035 1.23056 0)
(0.0441976 1.23048 0)
(0.0441939 1.23045 0)
(0.044187 1.23046 0)
(0.0441794 1.23052 0)
(0.0441673 1.23075 0)
(0.0441524 1.23124 0)
(0.0441375 1.23201 0)
(0.0441249 1.23298 0)
(0.0441153 1.23397 0)
(0.0441082 1.23477 0)
(0.0441034 1.23526 0)
(0.0441086 1.23564 0)
(0.484304 1.39075 0)
(0.484169 1.38996 0)
(0.484154 1.38917 0)
(0.484126 1.38823 0)
(0.484082 1.38733 0)
(0.484038 1.38655 0)
(0.484012 1.3859 0)
(0.483999 1.38536 0)
(0.483992 1.38492 0)
(0.483988 1.38455 0)
(0.483984 1.38425 0)
(0.483982 1.38401 0)
(0.483982 1.38383 0)
(0.483984 1.3837 0)
(0.483987 1.38361 0)
(0.483991 1.38356 0)
(0.483996 1.38354 0)
(0.484001 1.38354 0)
(0.484007 1.38355 0)
(0.484018 1.38357 0)
(0.484036 1.38363 0)
(0.48406 1.38371 0)
(0.484089 1.38381 0)
(0.484121 1.38389 0)
(0.484155 1.38396 0)
(0.48419 1.384 0)
(0.484226 1.38401 0)
(0.484263 1.384 0)
(0.484298 1.38397 0)
(0.484335 1.38392 0)
(0.484373 1.38386 0)
(0.484414 1.3838 0)
(0.484458 1.38373 0)
(0.484507 1.38366 0)
(0.484563 1.3836 0)
(0.484631 1.38356 0)
(0.484713 1.38355 0)
(0.484808 1.38357 0)
(0.484917 1.38362 0)
(0.48504 1.38371 0)
(0.485182 1.38384 0)
(0.485345 1.38401 0)
(0.485525 1.38423 0)
(0.485717 1.38453 0)
(0.485917 1.38492 0)
(0.486123 1.38541 0)
(0.486339 1.38601 0)
(0.486566 1.38675 0)
(0.486806 1.38762 0)
(0.487063 1.38864 0)
(0.48734 1.3898 0)
(0.487642 1.3911 0)
(0.487972 1.39252 0)
(0.488337 1.39403 0)
(0.488738 1.39559 0)
(0.48918 1.39717 0)
(0.489666 1.39874 0)
(0.4902 1.40024 0)
(0.490791 1.40167 0)
(0.491448 1.40299 0)
(0.492183 1.4042 0)
(0.492992 1.40529 0)
(0.493844 1.4063 0)
(0.494697 1.40725 0)
(0.495528 1.40814 0)
(0.496341 1.40896 0)
(0.497143 1.40965 0)
(0.497939 1.41018 0)
(0.498743 1.41047 0)
(0.499561 1.41044 0)
(0.500355 1.41 0)
(0.501097 1.40911 0)
(0.501801 1.40776 0)
(0.502478 1.40592 0)
(0.503134 1.40359 0)
(0.50377 1.40081 0)
(0.504385 1.39768 0)
(0.504972 1.39432 0)
(0.505512 1.39083 0)
(0.505994 1.38734 0)
(0.506407 1.38397 0)
(0.506749 1.38084 0)
(0.507024 1.37802 0)
(0.507244 1.37555 0)
(0.507423 1.37346 0)
(0.507573 1.37175 0)
(0.507705 1.37043 0)
(0.50782 1.36951 0)
(0.507912 1.36895 0)
(0.507983 1.36872 0)
(0.508067 1.36868 0)
(0.508148 1.36886 0)
(0.508264 1.36946 0)
(0.508388 1.37056 0)
(0.508483 1.37188 0)
(0.508544 1.37307 0)
(0.508576 1.37385 0)
(0.508591 1.37422 0)
(0.508596 1.37432 0)
(0.508802 1.37375 0)
(1.57931 1.63823 0)
(1.57874 1.6372 0)
(1.57871 1.63626 0)
(1.57866 1.63508 0)
(1.5786 1.63391 0)
(1.57854 1.63288 0)
(1.5785 1.63203 0)
(1.57848 1.63135 0)
(1.57847 1.63082 0)
(1.57846 1.63041 0)
(1.57845 1.63011 0)
(1.57844 1.62991 0)
(1.57843 1.6298 0)
(1.57843 1.62975 0)
(1.57843 1.62973 0)
(1.57842 1.62974 0)
(1.57842 1.62977 0)
(1.57841 1.62986 0)
(1.57841 1.63 0)
(1.5784 1.63018 0)
(1.5784 1.63036 0)
(1.5784 1.63053 0)
(1.5784 1.63066 0)
(1.5784 1.63076 0)
(1.5784 1.63083 0)
(1.5784 1.63087 0)
(1.5784 1.63089 0)
(1.5784 1.6309 0)
(1.57841 1.63091 0)
(1.57841 1.63091 0)
(1.57841 1.63091 0)
(1.57841 1.6309 0)
(1.57842 1.63088 0)
(1.57844 1.63084 0)
(1.57846 1.63078 0)
(1.5785 1.6307 0)
(1.57855 1.6306 0)
(1.57862 1.63049 0)
(1.57872 1.63037 0)
(1.57885 1.63023 0)
(1.579 1.63008 0)
(1.57918 1.62991 0)
(1.57938 1.62972 0)
(1.57962 1.62951 0)
(1.57989 1.62927 0)
(1.58019 1.62901 0)
(1.58053 1.62873 0)
(1.58092 1.62846 0)
(1.58135 1.62819 0)
(1.58185 1.62794 0)
(1.5824 1.62772 0)
(1.58301 1.62752 0)
(1.58369 1.62733 0)
(1.58441 1.62713 0)
(1.58519 1.62691 0)
(1.58601 1.62667 0)
(1.58688 1.6264 0)
(1.5878 1.62611 0)
(1.58875 1.62581 0)
(1.58973 1.62555 0)
(1.59075 1.62533 0)
(1.5918 1.62519 0)
(1.59287 1.62516 0)
(1.59397 1.62525 0)
(1.59509 1.6255 0)
(1.59624 1.6259 0)
(1.5974 1.62644 0)
(1.5986 1.62709 0)
(1.59983 1.62781 0)
(1.60108 1.62858 0)
(1.60235 1.62936 0)
(1.60364 1.63011 0)
(1.60493 1.63081 0)
(1.60623 1.63144 0)
(1.60754 1.63196 0)
(1.60884 1.63236 0)
(1.61012 1.63264 0)
(1.61135 1.63282 0)
(1.61251 1.63297 0)
(1.61357 1.63314 0)
(1.61452 1.63338 0)
(1.61535 1.63367 0)
(1.61607 1.63401 0)
(1.61669 1.63439 0)
(1.61724 1.63477 0)
(1.61773 1.63517 0)
(1.61818 1.63556 0)
(1.61859 1.63596 0)
(1.61897 1.63637 0)
(1.61929 1.63679 0)
(1.61954 1.63722 0)
(1.61973 1.63763 0)
(1.61985 1.63802 0)
(1.61994 1.63833 0)
(1.62 1.63858 0)
(1.62004 1.63874 0)
(1.62008 1.63883 0)
(1.62011 1.63888 0)
(1.62029 1.63881 0)
(1.62104 1.62481 0)
(3.97443 2.05366 0)
(3.97282 2.05244 0)
(3.97288 2.0516 0)
(3.97295 2.05049 0)
(3.97302 2.04938 0)
(3.97307 2.04843 0)
(3.9731 2.04771 0)
(3.9731 2.04719 0)
(3.97309 2.04682 0)
(3.97308 2.04655 0)
(3.97308 2.04635 0)
(3.97308 2.0462 0)
(3.97309 2.04608 0)
(3.97309 2.046 0)
(3.9731 2.04596 0)
(3.9731 2.04594 0)
(3.97311 2.04594 0)
(3.97312 2.04594 0)
(3.97313 2.04597 0)
(3.97315 2.04602 0)
(3.97316 2.04608 0)
(3.97318 2.04614 0)
(3.9732 2.04619 0)
(3.97321 2.04622 0)
(3.97322 2.04623 0)
(3.97323 2.04623 0)
(3.97323 2.04622 0)
(3.97324 2.04621 0)
(3.97325 2.04617 0)
(3.97326 2.04612 0)
(3.97327 2.04605 0)
(3.97329 2.04596 0)
(3.97331 2.04585 0)
(3.97333 2.04573 0)
(3.97337 2.04559 0)
(3.97342 2.04545 0)
(3.97351 2.04529 0)
(3.97361 2.0451 0)
(3.97374 2.04489 0)
(3.9739 2.04462 0)
(3.97409 2.04431 0)
(3.97433 2.04392 0)
(3.97461 2.04346 0)
(3.97494 2.04291 0)
(3.97531 2.04226 0)
(3.97572 2.0415 0)
(3.97617 2.04062 0)
(3.97665 2.03962 0)
(3.97714 2.03851 0)
(3.97764 2.03728 0)
(3.97813 2.03595 0)
(3.9786 2.03455 0)
(3.97904 2.03309 0)
(3.97944 2.03161 0)
(3.9798 2.03014 0)
(3.98011 2.0287 0)
(3.98038 2.02733 0)
(3.9806 2.02605 0)
(3.9808 2.02488 0)
(3.98096 2.02383 0)
(3.98112 2.02293 0)
(3.98131 2.02219 0)
(3.98154 2.02162 0)
(3.98184 2.02123 0)
(3.98226 2.02108 0)
(3.98276 2.02113 0)
(3.98336 2.02136 0)
(3.98407 2.02175 0)
(3.9849 2.02228 0)
(3.98582 2.02291 0)
(3.98681 2.02362 0)
(3.98786 2.02436 0)
(3.98895 2.02511 0)
(3.99007 2.02585 0)
(3.9912 2.02655 0)
(3.99231 2.02719 0)
(3.99341 2.02776 0)
(3.99448 2.02821 0)
(3.99552 2.02854 0)
(3.99653 2.02872 0)
(3.99748 2.02874 0)
(3.99837 2.02863 0)
(3.99919 2.02843 0)
(3.99993 2.0282 0)
(4.00059 2.028 0)
(4.00118 2.02786 0)
(4.00171 2.0278 0)
(4.00217 2.02787 0)
(4.00256 2.02809 0)
(4.00286 2.02845 0)
(4.00307 2.0289 0)
(4.00323 2.02941 0)
(4.00334 2.02991 0)
(4.00342 2.03035 0)
(4.00347 2.03071 0)
(4.00351 2.03097 0)
(4.00356 2.03113 0)
(4.00365 2.03119 0)
(4.00369 2.0312 0)
(4.00564 2.0297 0)
(8.20891 2.61654 0)
(8.23625 2.61451 0)
(8.23627 2.61401 0)
(8.23621 2.61392 0)
(8.23618 2.61391 0)
(8.23617 2.61389 0)
(8.23617 2.61386 0)
(8.23616 2.61382 0)
(8.23616 2.61379 0)
(8.23615 2.61375 0)
(8.23615 2.61371 0)
(8.23615 2.61368 0)
(8.23615 2.61366 0)
(8.23615 2.61364 0)
(8.23616 2.61363 0)
(8.23616 2.61363 0)
(8.23616 2.61363 0)
(8.23616 2.61363 0)
(8.23616 2.61364 0)
(8.23617 2.61366 0)
(8.23617 2.61371 0)
(8.23617 2.61377 0)
(8.23616 2.61385 0)
(8.23616 2.61395 0)
(8.23616 2.61406 0)
(8.23615 2.61419 0)
(8.23615 2.61432 0)
(8.23614 2.61446 0)
(8.23613 2.61461 0)
(8.23613 2.61476 0)
(8.23613 2.61492 0)
(8.23614 2.61509 0)
(8.23614 2.61526 0)
(8.23614 2.61543 0)
(8.23615 2.61561 0)
(8.23616 2.61577 0)
(8.23617 2.61593 0)
(8.23619 2.61608 0)
(8.23621 2.61621 0)
(8.23623 2.61632 0)
(8.23627 2.61641 0)
(8.23633 2.61648 0)
(8.23641 2.61652 0)
(8.23651 2.61653 0)
(8.23663 2.6165 0)
(8.23677 2.61643 0)
(8.23695 2.6163 0)
(8.23715 2.6161 0)
(8.23738 2.61581 0)
(8.23763 2.6154 0)
(8.2379 2.61485 0)
(8.23819 2.61412 0)
(8.2385 2.61319 0)
(8.23882 2.61202 0)
(8.23916 2.6106 0)
(8.23951 2.60892 0)
(8.23987 2.60698 0)
(8.24024 2.60479 0)
(8.24061 2.60238 0)
(8.241 2.59979 0)
(8.24139 2.59707 0)
(8.2418 2.59428 0)
(8.24221 2.59147 0)
(8.24264 2.58869 0)
(8.24309 2.58598 0)
(8.24357 2.58338 0)
(8.24408 2.58093 0)
(8.24463 2.57865 0)
(8.24522 2.57654 0)
(8.24584 2.57462 0)
(8.24649 2.57289 0)
(8.24717 2.57135 0)
(8.24789 2.57 0)
(8.24862 2.56883 0)
(8.24935 2.56783 0)
(8.25009 2.56697 0)
(8.25081 2.56625 0)
(8.25151 2.56564 0)
(8.25219 2.56511 0)
(8.25283 2.56464 0)
(8.25343 2.56422 0)
(8.25398 2.56383 0)
(8.25449 2.56348 0)
(8.25494 2.56316 0)
(8.25535 2.56289 0)
(8.25571 2.56268 0)
(8.25602 2.56252 0)
(8.2563 2.56243 0)
(8.25654 2.56238 0)
(8.25674 2.56238 0)
(8.25692 2.56241 0)
(8.25706 2.56247 0)
(8.25719 2.56256 0)
(8.2573 2.56266 0)
(8.25739 2.56278 0)
(8.25747 2.56291 0)
(8.25754 2.56304 0)
(8.25766 2.56314 0)
(8.25759 2.56347 0)
(8.23992 2.56144 0)
(13.8183 3.28687 0)
(13.854 3.31854 0)
(13.8545 3.31805 0)
(13.8546 3.31796 0)
(13.8546 3.31795 0)
(13.8546 3.31794 0)
(13.8546 3.31794 0)
(13.8546 3.31794 0)
(13.8546 3.31794 0)
(13.8546 3.31793 0)
(13.8546 3.31792 0)
(13.8546 3.31791 0)
(13.8545 3.3179 0)
(13.8545 3.31787 0)
(13.8545 3.31785 0)
(13.8544 3.31781 0)
(13.8544 3.31777 0)
(13.8544 3.31771 0)
(13.8543 3.31765 0)
(13.8542 3.31758 0)
(13.8541 3.3175 0)
(13.8541 3.31741 0)
(13.854 3.31731 0)
(13.8539 3.31719 0)
(13.8538 3.31706 0)
(13.8536 3.31691 0)
(13.8535 3.31672 0)
(13.8534 3.31651 0)
(13.8533 3.31625 0)
(13.8532 3.31594 0)
(13.8531 3.31557 0)
(13.853 3.31514 0)
(13.8529 3.31464 0)
(13.8528 3.31406 0)
(13.8527 3.3134 0)
(13.8527 3.31265 0)
(13.8527 3.31182 0)
(13.8526 3.31092 0)
(13.8526 3.30995 0)
(13.8526 3.30894 0)
(13.8526 3.30792 0)
(13.8526 3.3069 0)
(13.8525 3.30591 0)
(13.8525 3.30497 0)
(13.8525 3.30409 0)
(13.8526 3.30329 0)
(13.8526 3.30258 0)
(13.8526 3.30195 0)
(13.8526 3.30139 0)
(13.8527 3.30091 0)
(13.8527 3.30049 0)
(13.8528 3.30014 0)
(13.8529 3.29984 0)
(13.8531 3.29961 0)
(13.8532 3.29944 0)
(13.8534 3.29932 0)
(13.8535 3.29929 0)
(13.8537 3.29934 0)
(13.8539 3.2995 0)
(13.8542 3.29976 0)
(13.8544 3.30012 0)
(13.8547 3.30057 0)
(13.855 3.30108 0)
(13.8553 3.30164 0)
(13.8556 3.30222 0)
(13.856 3.30278 0)
(13.8564 3.30331 0)
(13.8568 3.30378 0)
(13.8573 3.30416 0)
(13.8578 3.30445 0)
(13.8583 3.30461 0)
(13.8589 3.30464 0)
(13.8595 3.30454 0)
(13.8602 3.30431 0)
(13.8609 3.30398 0)
(13.8616 3.30354 0)
(13.8624 3.30303 0)
(13.8631 3.30245 0)
(13.8639 3.30182 0)
(13.8647 3.30115 0)
(13.8654 3.30043 0)
(13.8661 3.29968 0)
(13.8667 3.29892 0)
(13.8673 3.29817 0)
(13.8677 3.29744 0)
(13.8682 3.29676 0)
(13.8685 3.29614 0)
(13.8689 3.29558 0)
(13.8691 3.2951 0)
(13.8693 3.29471 0)
(13.8695 3.29439 0)
(13.8696 3.29415 0)
(13.8697 3.29397 0)
(13.8698 3.29385 0)
(13.8698 3.29377 0)
(13.8698 3.29373 0)
(13.8699 3.29371 0)
(13.8699 3.29372 0)
(13.87 3.29347 0)
(13.8396 3.25933 0)
(18.8525 4.04887 0)
(18.8749 4.07061 0)
(18.8747 4.07086 0)
(18.8747 4.07083 0)
(18.8746 4.07084 0)
(18.8745 4.07087 0)
(18.8744 4.0709 0)
(18.8743 4.07092 0)
(18.8742 4.07092 0)
(18.8741 4.07093 0)
(18.8739 4.07093 0)
(18.8737 4.07092 0)
(18.8735 4.07091 0)
(18.8733 4.0709 0)
(18.873 4.07088 0)
(18.8727 4.07086 0)
(18.8724 4.07083 0)
(18.8721 4.07079 0)
(18.8718 4.07075 0)
(18.8715 4.0707 0)
(18.8711 4.07065 0)
(18.8708 4.07058 0)
(18.8705 4.07052 0)
(18.8701 4.07044 0)
(18.8698 4.07035 0)
(18.8695 4.07025 0)
(18.8692 4.07013 0)
(18.869 4.06998 0)
(18.8687 4.06981 0)
(18.8685 4.06959 0)
(18.8683 4.06934 0)
(18.8681 4.06906 0)
(18.8679 4.06873 0)
(18.8678 4.06837 0)
(18.8677 4.06798 0)
(18.8676 4.06756 0)
(18.8676 4.06712 0)
(18.8675 4.06668 0)
(18.8675 4.06623 0)
(18.8675 4.0658 0)
(18.8675 4.06539 0)
(18.8675 4.06502 0)
(18.8674 4.06469 0)
(18.8674 4.06441 0)
(18.8674 4.06419 0)
(18.8674 4.06401 0)
(18.8674 4.06389 0)
(18.8673 4.0638 0)
(18.8673 4.06376 0)
(18.8672 4.06375 0)
(18.8672 4.06378 0)
(18.8671 4.06384 0)
(18.867 4.06394 0)
(18.8669 4.06408 0)
(18.8668 4.06427 0)
(18.8667 4.06453 0)
(18.8666 4.06486 0)
(18.8665 4.06526 0)
(18.8665 4.06576 0)
(18.8664 4.06635 0)
(18.8663 4.06703 0)
(18.8663 4.0678 0)
(18.8663 4.06865 0)
(18.8663 4.06956 0)
(18.8664 4.07052 0)
(18.8666 4.07153 0)
(18.8668 4.07255 0)
(18.8671 4.07358 0)
(18.8676 4.07461 0)
(18.8681 4.07562 0)
(18.8687 4.07659 0)
(18.8695 4.07753 0)
(18.8704 4.07841 0)
(18.8713 4.07925 0)
(18.8723 4.08003 0)
(18.8734 4.08075 0)
(18.8745 4.08141 0)
(18.8757 4.082 0)
(18.8769 4.08252 0)
(18.878 4.08298 0)
(18.8792 4.08337 0)
(18.8803 4.08371 0)
(18.8814 4.08398 0)
(18.8824 4.08418 0)
(18.8834 4.08432 0)
(18.8842 4.08441 0)
(18.885 4.08445 0)
(18.8857 4.08446 0)
(18.8862 4.08443 0)
(18.8867 4.08438 0)
(18.8871 4.08432 0)
(18.8874 4.08425 0)
(18.8876 4.08419 0)
(18.8878 4.08413 0)
(18.8879 4.08408 0)
(18.8879 4.08404 0)
(18.888 4.08399 0)
(18.8881 4.084 0)
(18.8883 4.0838 0)
(18.8749 4.06718 0)
(22.1799 3.17881 0)
(22.2382 3.18776 0)
(22.2381 3.18897 0)
(22.238 3.18928 0)
(22.2379 3.18934 0)
(22.2377 3.18938 0)
(22.2376 3.1894 0)
(22.2373 3.18942 0)
(22.2371 3.18944 0)
(22.2369 3.18947 0)
(22.2366 3.1895 0)
(22.2363 3.18954 0)
(22.236 3.18958 0)
(22.2356 3.18963 0)
(22.2353 3.18967 0)
(22.2349 3.18972 0)
(22.2345 3.18976 0)
(22.2342 3.1898 0)
(22.2338 3.18984 0)
(22.2334 3.18988 0)
(22.2331 3.18991 0)
(22.2328 3.18993 0)
(22.2325 3.18995 0)
(22.2322 3.18997 0)
(22.2319 3.18998 0)
(22.2317 3.18999 0)
(22.2315 3.19 0)
(22.2314 3.19002 0)
(22.2313 3.19004 0)
(22.2312 3.19005 0)
(22.2311 3.19006 0)
(22.231 3.19006 0)
(22.231 3.19006 0)
(22.231 3.19005 0)
(22.2309 3.19004 0)
(22.2309 3.19002 0)
(22.2309 3.19001 0)
(22.231 3.19 0)
(22.231 3.18999 0)
(22.231 3.18998 0)
(22.231 3.18998 0)
(22.231 3.18999 0)
(22.2311 3.19001 0)
(22.2311 3.19004 0)
(22.2312 3.19008 0)
(22.2313 3.19014 0)
(22.2314 3.1902 0)
(22.2315 3.19028 0)
(22.2316 3.19036 0)
(22.2318 3.19044 0)
(22.232 3.19052 0)
(22.2322 3.19059 0)
(22.2324 3.19067 0)
(22.2326 3.19076 0)
(22.2329 3.19087 0)
(22.2331 3.191 0)
(22.2334 3.19117 0)
(22.2337 3.19136 0)
(22.234 3.19159 0)
(22.2343 3.19185 0)
(22.2345 3.19214 0)
(22.2348 3.19245 0)
(22.235 3.1928 0)
(22.2353 3.19317 0)
(22.2354 3.19356 0)
(22.2356 3.19398 0)
(22.2357 3.19441 0)
(22.2358 3.19486 0)
(22.2358 3.19532 0)
(22.2358 3.19578 0)
(22.2358 3.19625 0)
(22.2357 3.19672 0)
(22.2356 3.19719 0)
(22.2356 3.19765 0)
(22.2356 3.1981 0)
(22.2356 3.19854 0)
(22.2356 3.19897 0)
(22.2357 3.19937 0)
(22.2358 3.19976 0)
(22.236 3.20012 0)
(22.2362 3.20045 0)
(22.2365 3.20072 0)
(22.2368 3.20095 0)
(22.2372 3.20112 0)
(22.2376 3.20126 0)
(22.238 3.20135 0)
(22.2385 3.20139 0)
(22.2389 3.20141 0)
(22.2394 3.20139 0)
(22.2399 3.20136 0)
(22.2404 3.20131 0)
(22.2408 3.20125 0)
(22.2412 3.20118 0)
(22.2417 3.20111 0)
(22.2421 3.20102 0)
(22.2425 3.20089 0)
(22.2427 3.20043 0)
(22.2431 3.19955 0)
(22.2432 3.1977 0)
(22.1795 3.19174 0)
(22.7309 0.00841311 0)
(22.757 0.00829361 0)
(22.7571 0.00649122 0)
(22.7569 0.0065729 0)
(22.7569 -0.00307118 0)
(22.757 -0.00336273 0)
(22.7569 -0.0012796 0)
(22.7569 0.00832722 0)
(22.7572 0.00333896 0)
(22.7571 0.00460152 0)
(22.7572 0.00438342 0)
(22.757 0.0078203 0)
(22.7568 0.00786644 0)
(22.7568 -0.00396881 0)
(22.7568 -0.00195304 0)
(22.7568 0.000167983 0)
(22.7568 0.000890298 0)
(22.7569 -0.000386721 0)
(22.7565 0.00279996 0)
(22.757 0.00460133 0)
(22.7565 0.00723175 0)
(22.7566 -0.00458881 0)
(22.7566 -0.00415007 0)
(22.7566 -0.00260609 0)
(22.7564 -0.000334054 0)
(22.7566 -0.00335746 0)
(22.7562 0.0033045 0)
(22.7567 0.00414627 0)
(22.7561 0.00358072 0)
(22.7566 -0.000809106 0)
(22.7563 0.00414278 0)
(22.7567 0.0036725 0)
(22.7562 0.00767722 0)
(22.7561 0.00238402 0)
(22.7564 0.00213385 0)
(22.756 0.00387404 0)
(22.7564 0.00200189 0)
(22.756 0.00773273 0)
(22.7561 0.00160333 0)
(22.756 -0.00398197 0)
(22.7562 0.00351334 0)
(22.7561 -0.00202517 0)
(22.7561 -0.00108451 0)
(22.7562 0.00638463 0)
(22.7564 0.00548811 0)
(22.7562 0.00612669 0)
(22.7561 -0.00128304 0)
(22.756 -9.33367e-05 0)
(22.7562 0.00353575 0)
(22.7558 0.00317007 0)
(22.7562 0.00598967 0)
(22.7561 0.00333183 0)
(22.7561 0.00711442 0)
(22.7559 -0.000567953 0)
(22.756 -0.000638412 0)
(22.7561 0.00025307 0)
(22.7561 0.00270957 0)
(22.7562 0.00258248 0)
(22.7561 0.000497818 0)
(22.7557 0.00705842 0)
(22.7559 -0.00316923 0)
(22.7559 -0.00320817 0)
(22.756 -0.000656673 0)
(22.756 0.000800816 0)
(22.7561 1.36863e-05 0)
(22.7558 0.00236253 0)
(22.7561 -0.00177475 0)
(22.7558 0.00105558 0)
(22.756 -0.00224338 0)
(22.7558 0.000321513 0)
(22.7561 -0.00212574 0)
(22.7558 0.000485637 0)
(22.756 -0.00248371 0)
(22.756 -0.00145458 0)
(22.7558 0.00229615 0)
(22.7558 0.00874471 0)
(22.7561 0.00531328 0)
(22.7563 0.00305815 0)
(22.756 0.00351781 0)
(22.7564 -0.000153146 0)
(22.756 0.00424117 0)
(22.7563 -0.00146497 0)
(22.756 0.00224297 0)
(22.7564 -0.00252434 0)
(22.756 0.000929969 0)
(22.7563 -0.00435905 0)
(22.756 -0.000867938 0)
(22.756 0.00553202 0)
(22.7566 0.0050564 0)
(22.7565 0.00589853 0)
(22.7565 0.00392783 0)
(22.7562 0.00305385 0)
(22.7564 0.000410705 0)
(22.7563 0.00249689 0)
(22.7565 0.00217317 0)
(22.7563 0.00352845 0)
(22.7566 0.00347927 0)
(22.7562 0.00952094 0)
(22.7562 0.00914492 0)
(22.7318 0.00396057 0)
(0.03395 0.441823 0)
(0.0339358 0.441637 0)
(0.0339288 0.441511 0)
(0.0339229 0.441328 0)
(0.0339203 0.441113 0)
(0.033921 0.440889 0)
(0.033925 0.440678 0)
(0.0339323 0.440494 0)
(0.0339413 0.440346 0)
(0.0339502 0.440236 0)
(0.0339576 0.440163 0)
(0.0339633 0.440121 0)
(0.0339675 0.440102 0)
(0.0339703 0.440097 0)
(0.0339739 0.440098 0)
(0.0339784 0.440108 0)
(0.0339857 0.440136 0)
(0.0339968 0.440193 0)
(0.0340122 0.440287 0)
(0.0340317 0.44042 0)
(0.0340551 0.440589 0)
(0.0340822 0.440785 0)
(0.0341132 0.440997 0)
(0.0341482 0.441213 0)
(0.0341881 0.441425 0)
(0.0342337 0.441626 0)
(0.034287 0.441812 0)
(0.0343505 0.44198 0)
(0.0344285 0.442127 0)
(0.0345247 0.442251 0)
(0.0346394 0.44235 0)
(0.0347674 0.44243 0)
(0.0349019 0.4425 0)
(0.035038 0.442569 0)
(0.0351741 0.442639 0)
(0.0353097 0.442711 0)
(0.0354451 0.442782 0)
(0.03558 0.442852 0)
(0.0357139 0.442922 0)
(0.0358458 0.442991 0)
(0.0359745 0.443061 0)
(0.0360997 0.443132 0)
(0.0362215 0.443202 0)
(0.0363406 0.443268 0)
(0.0364581 0.443329 0)
(0.0365756 0.443379 0)
(0.0366945 0.443413 0)
(0.0368156 0.443427 0)
(0.0369386 0.443416 0)
(0.0370623 0.443378 0)
(0.0371858 0.443311 0)
(0.0373082 0.443213 0)
(0.0374291 0.443084 0)
(0.037548 0.442921 0)
(0.0376654 0.442723 0)
(0.0377824 0.44249 0)
(0.0379007 0.44222 0)
(0.0380225 0.441916 0)
(0.0381499 0.441577 0)
(0.0382848 0.441205 0)
(0.0384287 0.440803 0)
(0.0385826 0.440373 0)
(0.0387472 0.439917 0)
(0.0389238 0.439439 0)
(0.039115 0.438942 0)
(0.0393247 0.438429 0)
(0.0395585 0.437904 0)
(0.0398217 0.437371 0)
(0.0401162 0.43683 0)
(0.0404344 0.43628 0)
(0.0407527 0.435708 0)
(0.0410388 0.4351 0)
(0.0412712 0.434449 0)
(0.0414475 0.433758 0)
(0.0415761 0.433032 0)
(0.0416682 0.432277 0)
(0.0417329 0.431499 0)
(0.0417775 0.430706 0)
(0.0418072 0.42991 0)
(0.0418259 0.429125 0)
(0.0418364 0.428368 0)
(0.0418403 0.427661 0)
(0.0418394 0.427027 0)
(0.0418353 0.426488 0)
(0.0418295 0.426063 0)
(0.041823 0.425758 0)
(0.0418171 0.425568 0)
(0.0418123 0.425471 0)
(0.0418093 0.425434 0)
(0.0418074 0.425427 0)
(0.0418059 0.425434 0)
(0.041804 0.425467 0)
(0.0418027 0.425557 0)
(0.0418046 0.425742 0)
(0.0418127 0.426053 0)
(0.0418283 0.426492 0)
(0.0418488 0.427016 0)
(0.0418683 0.42753 0)
(0.0418808 0.427915 0)
(0.0418973 0.428214 0)
(0.0368839 1.25316 0)
(0.0368627 1.25252 0)
(0.036852 1.25226 0)
(0.0368404 1.25191 0)
(0.0368367 1.25154 0)
(0.0368495 1.25119 0)
(0.0368784 1.25089 0)
(0.0369161 1.25065 0)
(0.0369566 1.25047 0)
(0.0369966 1.25034 0)
(0.0370349 1.25025 0)
(0.0370721 1.2502 0)
(0.0371105 1.25018 0)
(0.0371501 1.25019 0)
(0.0371896 1.25022 0)
(0.0372318 1.25028 0)
(0.0372782 1.25036 0)
(0.0373294 1.25046 0)
(0.0373851 1.25059 0)
(0.0374452 1.25074 0)
(0.03751 1.25089 0)
(0.0375799 1.25105 0)
(0.0376557 1.25121 0)
(0.0377384 1.25137 0)
(0.037829 1.25151 0)
(0.0379288 1.25164 0)
(0.0380395 1.25175 0)
(0.0381624 1.25184 0)
(0.0382969 1.25192 0)
(0.0384394 1.25198 0)
(0.0385864 1.25203 0)
(0.0387357 1.25209 0)
(0.0388871 1.25214 0)
(0.0390404 1.2522 0)
(0.0391964 1.25226 0)
(0.0393551 1.25232 0)
(0.0395165 1.25238 0)
(0.0396795 1.25244 0)
(0.0398426 1.25251 0)
(0.0400042 1.25259 0)
(0.0401631 1.25267 0)
(0.0403189 1.25276 0)
(0.040472 1.25286 0)
(0.040623 1.25295 0)
(0.0407725 1.25304 0)
(0.0409203 1.25312 0)
(0.0410662 1.2532 0)
(0.0412094 1.25326 0)
(0.0413492 1.25331 0)
(0.041485 1.25335 0)
(0.0416163 1.25338 0)
(0.0417425 1.25339 0)
(0.0418629 1.25339 0)
(0.0419767 1.25337 0)
(0.0420836 1.25333 0)
(0.0421835 1.25328 0)
(0.0422773 1.25321 0)
(0.0423671 1.25313 0)
(0.0424554 1.25303 0)
(0.0425456 1.25293 0)
(0.0426408 1.25281 0)
(0.0427449 1.25267 0)
(0.0428607 1.25251 0)
(0.042992 1.25234 0)
(0.0431419 1.25214 0)
(0.0433093 1.25191 0)
(0.043491 1.25165 0)
(0.0436806 1.25134 0)
(0.0438673 1.25099 0)
(0.0440417 1.25059 0)
(0.0441976 1.25012 0)
(0.0443298 1.24959 0)
(0.0444369 1.249 0)
(0.0445214 1.24835 0)
(0.0445872 1.24765 0)
(0.0446382 1.24692 0)
(0.0446772 1.24615 0)
(0.0447062 1.24537 0)
(0.0447261 1.2446 0)
(0.0447374 1.24386 0)
(0.0447405 1.24317 0)
(0.0447357 1.24254 0)
(0.0447238 1.24199 0)
(0.0447059 1.24154 0)
(0.0446841 1.24118 0)
(0.0446618 1.24092 0)
(0.0446423 1.24076 0)
(0.0446282 1.24067 0)
(0.0446201 1.24065 0)
(0.0446085 1.24065 0)
(0.0445981 1.24069 0)
(0.0445812 1.24086 0)
(0.0445607 1.24123 0)
(0.0445418 1.24186 0)
(0.0445288 1.24273 0)
(0.0445239 1.24373 0)
(0.0445244 1.24474 0)
(0.0445244 1.24559 0)
(0.044522 1.24617 0)
(0.0445397 1.24696 0)
(0.484497 1.40165 0)
(0.48424 1.40081 0)
(0.484238 1.40055 0)
(0.48422 1.40011 0)
(0.48419 1.39955 0)
(0.484162 1.39897 0)
(0.484145 1.39844 0)
(0.484134 1.39801 0)
(0.484126 1.39768 0)
(0.484122 1.39746 0)
(0.484119 1.39733 0)
(0.484118 1.39726 0)
(0.484118 1.39723 0)
(0.484119 1.39723 0)
(0.48412 1.39723 0)
(0.484122 1.39726 0)
(0.484127 1.39732 0)
(0.484135 1.39743 0)
(0.484148 1.39758 0)
(0.484165 1.39776 0)
(0.484187 1.39796 0)
(0.484214 1.39817 0)
(0.484244 1.39837 0)
(0.484277 1.39855 0)
(0.484311 1.39869 0)
(0.484345 1.39879 0)
(0.48438 1.39886 0)
(0.484416 1.39889 0)
(0.484455 1.3989 0)
(0.484493 1.39889 0)
(0.484533 1.39885 0)
(0.484574 1.39881 0)
(0.48462 1.39875 0)
(0.484672 1.39869 0)
(0.484732 1.39863 0)
(0.484803 1.39858 0)
(0.484887 1.39854 0)
(0.484986 1.39852 0)
(0.485098 1.39852 0)
(0.485225 1.39855 0)
(0.485366 1.3986 0)
(0.485522 1.39866 0)
(0.485695 1.39874 0)
(0.485882 1.39884 0)
(0.486081 1.39897 0)
(0.48629 1.39913 0)
(0.48651 1.39933 0)
(0.486743 1.39958 0)
(0.48699 1.39987 0)
(0.487252 1.40021 0)
(0.487535 1.4006 0)
(0.48784 1.40104 0)
(0.488173 1.40154 0)
(0.488538 1.40209 0)
(0.488942 1.40269 0)
(0.48939 1.40333 0)
(0.489886 1.404 0)
(0.490437 1.40471 0)
(0.491047 1.40545 0)
(0.491718 1.40621 0)
(0.492449 1.40699 0)
(0.493231 1.40779 0)
(0.494047 1.40861 0)
(0.494878 1.40946 0)
(0.495711 1.41032 0)
(0.496544 1.41117 0)
(0.497368 1.41198 0)
(0.498179 1.41274 0)
(0.498967 1.4134 0)
(0.499737 1.41393 0)
(0.500496 1.41429 0)
(0.501252 1.41443 0)
(0.501994 1.41428 0)
(0.502698 1.41383 0)
(0.503357 1.41308 0)
(0.503979 1.41201 0)
(0.504565 1.41063 0)
(0.505107 1.40897 0)
(0.505617 1.40712 0)
(0.506074 1.4052 0)
(0.50646 1.40336 0)
(0.506778 1.4017 0)
(0.507032 1.40031 0)
(0.507232 1.39923 0)
(0.507385 1.39848 0)
(0.507498 1.39804 0)
(0.507579 1.39784 0)
(0.507672 1.3978 0)
(0.507755 1.39794 0)
(0.507871 1.39838 0)
(0.508013 1.39927 0)
(0.508156 1.40062 0)
(0.508284 1.40234 0)
(0.508384 1.40419 0)
(0.508458 1.40591 0)
(0.508509 1.40725 0)
(0.50854 1.40819 0)
(0.508578 1.40883 0)
(0.508701 1.4093 0)
(0.509009 1.41045 0)
(1.5796 1.63586 0)
(1.57851 1.63869 0)
(1.57851 1.63863 0)
(1.5785 1.63841 0)
(1.57849 1.638 0)
(1.57847 1.63743 0)
(1.57845 1.63679 0)
(1.57844 1.63618 0)
(1.57842 1.6357 0)
(1.57841 1.63539 0)
(1.5784 1.63522 0)
(1.57839 1.63516 0)
(1.57839 1.63515 0)
(1.57839 1.63516 0)
(1.57839 1.63518 0)
(1.57839 1.63524 0)
(1.57838 1.63533 0)
(1.57838 1.63545 0)
(1.57838 1.6356 0)
(1.57837 1.63578 0)
(1.57837 1.63595 0)
(1.57837 1.63612 0)
(1.57837 1.63626 0)
(1.57837 1.63637 0)
(1.57838 1.63645 0)
(1.57838 1.6365 0)
(1.57838 1.63652 0)
(1.57838 1.63654 0)
(1.57839 1.63654 0)
(1.57839 1.63654 0)
(1.57839 1.63654 0)
(1.5784 1.63652 0)
(1.57841 1.63649 0)
(1.57843 1.63644 0)
(1.57845 1.63637 0)
(1.57849 1.63627 0)
(1.57854 1.63615 0)
(1.57861 1.63601 0)
(1.57871 1.63585 0)
(1.57883 1.63568 0)
(1.57898 1.63548 0)
(1.57916 1.63527 0)
(1.57936 1.63504 0)
(1.57959 1.63478 0)
(1.57985 1.63451 0)
(1.58015 1.63422 0)
(1.58048 1.63393 0)
(1.58086 1.63363 0)
(1.58129 1.63335 0)
(1.58177 1.63309 0)
(1.58232 1.63286 0)
(1.58293 1.63265 0)
(1.5836 1.63245 0)
(1.58432 1.63225 0)
(1.58508 1.63205 0)
(1.5859 1.63184 0)
(1.58675 1.63163 0)
(1.58765 1.63143 0)
(1.58859 1.63126 0)
(1.58957 1.63111 0)
(1.59058 1.63099 0)
(1.59162 1.63092 0)
(1.59269 1.6309 0)
(1.59379 1.63091 0)
(1.59491 1.63095 0)
(1.59606 1.631 0)
(1.59724 1.63105 0)
(1.59844 1.63115 0)
(1.59967 1.63126 0)
(1.60093 1.63138 0)
(1.60221 1.63149 0)
(1.6035 1.63157 0)
(1.60481 1.63162 0)
(1.60611 1.63163 0)
(1.60741 1.63161 0)
(1.60869 1.63156 0)
(1.60993 1.6315 0)
(1.61114 1.63144 0)
(1.61228 1.63143 0)
(1.61334 1.63151 0)
(1.61432 1.63171 0)
(1.61519 1.63206 0)
(1.61596 1.63254 0)
(1.61662 1.63313 0)
(1.6172 1.63382 0)
(1.6177 1.63456 0)
(1.61815 1.63533 0)
(1.61857 1.63613 0)
(1.61894 1.63694 0)
(1.61928 1.63777 0)
(1.61955 1.6386 0)
(1.61976 1.63942 0)
(1.6199 1.64019 0)