/*--------------------------------*- C++ -*----------------------------------*\
| =========                 |                                                 |
| \\      /  F ield         | OpenFOAM: The Open Source CFD Toolbox           |
|  \\    /   O peration     | Version:  2406                                  |
|   \\  /    A nd           | Website:  www.openfoam.com                      |
|    \\/     M anipulation  |                                                 |
\*---------------------------------------------------------------------------*/
FoamFile
{
    version     2.0;
    format      ascii;
    arch        "LSB;label=32;scalar=64";
    class       volScalarField;
    location    "0.05";
    object      Ma;
}
// * * * * * * * * * * * * * * * * * * * * * * * * * * * * * * * * * * * * * //

dimensions      [0 0 0 0 0 0 0];

internalField   nonuniform List<scalar> 
13962
(
1.132
1.132
1.132
1.132
1.132
1.132
1.132
1.132
1.132
1.132
1.132
1.132
1.132
1.132
1.132
1.132
1.132
1.132
1.132
1.132
1.132
1.132
1.132
1.132
1.132
1.13188
1.1287
1.08672
1.0249
1.01931
1.01924
1.01921
1.01918
1.01915
1.01911
1.01907
1.01903
1.01897
1.01891
1.01888
1.01883
1.0188
1.01879
1.01882
1.01888
1.01893
1.01898
1.019
1.019
1.01897
1.01894
1.01896
1.01899
1.01903
1.01911
1.01919
1.01922
1.01923
1.01921
1.01918
1.01913
1.01909
1.01907
1.01906
1.01907
1.01909
1.01913
1.01915
1.01916
1.01915
1.01913
1.01909
1.01906
1.01904
1.01904
1.01905
1.01907
1.0191
1.0191
1.01909
1.01908
1.01906
1.01903
1.019
1.01899
1.019
1.01902
1.01904
1.01906
1.01908
1.0191
1.0191
1.0191
1.01909
1.01909
1.0191
1.0191
1.01911
1.01912
1.01913
1.01913
1.01913
1.01913
1.01912
1.01911
1.0191
1.01909
1.01907
1.01906
1.01906
1.01906
1.01906
1.01906
1.01907
1.01907
1.01908
1.01908
1.01908
1.01908
1.01908
1.01908
1.01909
1.0191
1.0191
1.0191
1.01909
1.01908
1.01908
1.01907
1.01906
1.01906
1.01907
1.01908
1.01908
1.01909
1.01909
1.01909
1.01909
1.01909
1.0191
1.01911
1.01911
1.01912
1.01912
1.01912
1.01911
1.01911
1.0191
1.01909
1.01909
1.01909
1.01908
1.01908
1.01907
1.01907
1.01906
1.01906
1.01906
1.01906
1.01907
1.01908
1.01909
1.0191
1.01908
1.01899
1.01894
1.019
1.01935
1.02023
1.02173
1.0237
1.02587
1.02804
1.03002
1.03174
1.03306
1.03396
1.0342
1.03415
1.03402
1.03383
1.03366
1.03354
1.03356
1.03362
1.03371
1.03367
1.03369
1.03367
1.0336
1.03345
1.0331
1.03238
1.03117
1.02964
1.02822
1.02712
1.02628
1.0256
1.02501
1.02447
1.02398
1.02353
1.02311
1.02274
1.02241
1.02213
1.02191
1.02173
1.02158
1.02146
1.02137
1.0213
1.02124
1.02119
1.02113
1.02108
1.02103
1.02099
1.02094
1.0209
1.02085
1.0208
1.02075
1.0207
1.02065
1.0206
1.02056
1.02052
1.0205
1.02049
1.02048
1.02047
1.02046
1.02046
1.02045
1.02044
1.02043
1.02042
1.02041
1.0204
1.02039
1.02038
1.02037
1.02035
1.02033
1.02032
1.0203
1.02028
1.02027
1.02026
1.02025
1.02024
1.02023
1.02023
1.02023
1.02022
1.02021
1.0202
1.02019
1.02018
1.02017
1.02016
1.02016
1.02015
1.02014
1.02012
1.02011
1.0201
1.02008
1.02007
1.02006
1.02005
1.02004
1.02002
1.02
1.01999
1.01997
1.01996
1.01995
1.01994
1.01993
1.0199
1.01989
1.01987
1.01986
1.01985
1.01985
1.01984
1.01983
1.01983
1.01982
1.01982
1.01982
1.01981
1.01981
1.01981
1.0198
1.0198
1.01978
1.01978
1.01977
1.01976
1.01976
1.01976
1.01976
1.01976
1.01975
1.01974
1.01973
1.01972
1.01971
1.0197
1.0197
1.0197
1.01969
1.01968
1.01967
1.01966
1.01966
1.01965
1.01965
1.01965
1.01965
1.01963
1.01962
1.01961
1.0196
1.0196
1.01959
1.01959
1.01959
1.01958
1.01957
1.01956
1.01956
1.01956
1.01956
1.01957
1.01959
1.0196
1.01961
1.01961
1.01961
1.0196
1.0196
1.01959
1.0196
1.01959
1.01958
1.01954
1.0195
1.01942
1.01931
1.01913
1.01887
1.01847
1.01787
1.01698
1.01569
1.01387
1.01128
1.00772
1.00287
0.996414
0.987952
0.97714
0.963642
0.947234
0.927833
0.90563
0.881128
0.855283
0.829539
0.805743
0.78646
0.773938
0.767182
0.765324
0.765331
0.765413
0.76556
0.765718
0.765846
0.765937
0.766006
0.766067
0.766114
0.766135
0.766166
0.766243
0.766358
0.766458
0.766485
0.766475
0.766434
0.766349
0.766219
0.76608
0.766018
0.766019
0.766039
0.766093
0.766173
0.766249
0.766291
0.766295
0.766282
0.766244
0.766182
0.766139
0.766133
0.766136
0.766156
0.766201
0.766251
0.766272
0.766273
0.766263
0.766233
0.766186
0.766148
0.766139
0.766142
0.766157
0.766187
0.766226
0.766255
0.76626
0.766256
0.76624
0.766209
0.766171
0.766144
0.766133
0.766132
0.766136
0.766148
0.766164
0.766173
0.766176
0.766175
0.76617
0.766168
0.766175
0.766187
0.766204
0.766227
0.766253
0.766276
0.766287
0.766282
0.766266
0.766252
0.766245
0.766247
0.766262
0.766291
0.766331
0.766379
0.766425
0.766437
0.766435
0.766428
1.132
1.132
1.132
1.132
1.132
1.132
1.132
1.132
1.132
1.132
1.132
1.132
1.132
1.132
1.132
1.132
1.132
1.132
1.132
1.132
1.132
1.132
1.132
1.132
1.132
1.13188
1.1287
1.08672
1.0249
1.01931
1.01924
1.01921
1.01918
1.01915
1.01911
1.01907
1.01903
1.01897
1.01891
1.01888
1.01883
1.0188
1.01879
1.01882
1.01888
1.01893
1.01898
1.019
1.019
1.01897
1.01894
1.01896
1.01899
1.01903
1.01911
1.01919
1.01922
1.01923
1.01921
1.01918
1.01913
1.01908
1.01907
1.01906
1.01907
1.01909
1.01913
1.01915
1.01916
1.01915
1.01913
1.01909
1.01906
1.01904
1.01904
1.01905
1.01907
1.0191
1.0191
1.01909
1.01908
1.01906
1.01903
1.019
1.01899
1.019
1.01902
1.01904
1.01906
1.01908
1.0191
1.0191
1.0191
1.01909
1.01909
1.0191
1.0191
1.01911
1.01912
1.01913
1.01913
1.01913
1.01913
1.01912
1.01911
1.0191
1.01909
1.01907
1.01906
1.01906
1.01906
1.01906
1.01906
1.01907
1.01907
1.01908
1.01908
1.01908
1.01908
1.01908
1.01908
1.01909
1.0191
1.0191
1.0191
1.01909
1.01908
1.01908
1.01907
1.01906
1.01906
1.01907
1.01908
1.01908
1.01909
1.01909
1.01909
1.01909
1.01909
1.0191
1.01911
1.01911
1.01912
1.01912
1.01912
1.01911
1.01911
1.0191
1.01909
1.01909
1.01909
1.01908
1.01908
1.01907
1.01907
1.01906
1.01906
1.01906
1.01906
1.01907
1.01908
1.01909
1.0191
1.01908
1.01899
1.01894
1.019
1.01935
1.02023
1.02174
1.0237
1.02587
1.02804
1.03001
1.03173
1.03306
1.03398
1.03423
1.03417
1.03402
1.03382
1.03363
1.03351
1.03354
1.03362
1.03372
1.0337
1.0337
1.03367
1.0336
1.03345
1.0331
1.03238
1.03117
1.02964
1.02822
1.02712
1.02628
1.0256
1.02501
1.02447
1.02398
1.02353
1.02311
1.02274
1.02241
1.02214
1.02191
1.02173
1.02158
1.02146
1.02137
1.0213
1.02124
1.02119
1.02113
1.02108
1.02103
1.02099
1.02094
1.02089
1.02085
1.0208
1.02075
1.0207
1.02065
1.0206
1.02056
1.02052
1.0205
1.02049
1.02048
1.02047
1.02046
1.02046
1.02045
1.02044
1.02043
1.02042
1.02041
1.0204
1.02039
1.02038
1.02037
1.02035
1.02033
1.02032
1.0203
1.02028
1.02027
1.02026
1.02025
1.02024
1.02023
1.02023
1.02023
1.02022
1.02021
1.0202
1.02019
1.02018
1.02017
1.02016
1.02016
1.02015
1.02014
1.02012
1.02011
1.0201
1.02008
1.02007
1.02006
1.02005
1.02004
1.02002
1.02
1.01999
1.01997
1.01996
1.01995
1.01994
1.01993
1.0199
1.01989
1.01987
1.01986
1.01985
1.01985
1.01984
1.01983
1.01983
1.01982
1.01982
1.01982
1.01981
1.01981
1.01981
1.0198
1.0198
1.01978
1.01978
1.01977
1.01976
1.01976
1.01976
1.01976
1.01976
1.01975
1.01974
1.01973
1.01972
1.01971
1.0197
1.0197
1.0197
1.01969
1.01968
1.01967
1.01966
1.01966
1.01965
1.01965
1.01965
1.01965
1.01963
1.01962
1.01961
1.0196
1.0196
1.01959
1.01959
1.01959
1.01958
1.01957
1.01956
1.01956
1.01956
1.01956
1.01957
1.01959
1.0196
1.01961
1.01961
1.01961
1.0196
1.0196
1.01959
1.0196
1.01959
1.01958
1.01954
1.0195
1.01943
1.01931
1.01914
1.01888
1.01848
1.01788
1.017
1.01572
1.01392
1.01135
1.00783
1.00303
0.996624
0.988235
0.977505
0.964096
0.947777
0.928458
0.906315
0.88183
0.85594
0.83008
0.806132
0.786703
0.774067
0.767251
0.765346
0.765345
0.76542
0.765562
0.765719
0.765846
0.765936
0.766006
0.766067
0.766114
0.766135
0.766167
0.766244
0.766358
0.766457
0.766485
0.766474
0.766433
0.766349
0.766219
0.766079
0.766017
0.766018
0.766038
0.766092
0.766172
0.766248
0.76629
0.766294
0.766281
0.766243
0.766181
0.766138
0.766132
0.766135
0.766155
0.7662
0.76625
0.766271
0.766272
0.766262
0.766233
0.766186
0.766147
0.766139
0.766142
0.766156
0.766186
0.766225
0.766254
0.76626
0.766256
0.76624
0.766208
0.76617
0.766143
0.766132
0.766131
0.766135
0.766147
0.766162
0.766171
0.766175
0.766175
0.766171
0.76617
0.766178
0.76619
0.766208
0.766231
0.766258
0.766282
0.766293
0.766287
0.76627
0.766254
0.766246
0.766247
0.76626
0.766288
0.766328
0.766377
0.766424
0.766436
0.766433
0.766427
1.132
1.132
1.132
1.132
1.132
1.132
1.132
1.132
1.132
1.132
1.132
1.132
1.132
1.132
1.132
1.132
1.132
1.132
1.132
1.132
1.132
1.132
1.132
1.132
1.132
1.13188
1.1287
1.08672
1.0249
1.01931
1.01924
1.01921
1.01918
1.01915
1.01911
1.01907
1.01903
1.01897
1.01891
1.01888
1.01883
1.0188
1.01879
1.01882
1.01888
1.01893
1.01898
1.019
1.019
1.01897
1.01894
1.01896
1.01899
1.01903
1.01911
1.01919
1.01922
1.01923
1.01921
1.01918
1.01913
1.01908
1.01907
1.01906
1.01907
1.01909
1.01913
1.01915
1.01916
1.01915
1.01913
1.01909
1.01906
1.01904
1.01904
1.01905
1.01907
1.0191
1.0191
1.01909
1.01908
1.01906
1.01903
1.019
1.01899
1.019
1.01902
1.01904
1.01906
1.01908
1.0191
1.0191
1.0191
1.01909
1.01909
1.0191
1.0191
1.01911
1.01912
1.01913
1.01913
1.01913
1.01913
1.01912
1.01911
1.0191
1.01909
1.01907
1.01906
1.01906
1.01906
1.01906
1.01906
1.01907
1.01907
1.01908
1.01908
1.01908
1.01908
1.01908
1.01908
1.01909
1.0191
1.0191
1.0191
1.01909
1.01908
1.01908
1.01907
1.01906
1.01906
1.01907
1.01908
1.01908
1.01909
1.01909
1.01909
1.01909
1.01909
1.0191
1.01911
1.01911
1.01912
1.01912
1.01912
1.01911
1.01911
1.0191
1.01909
1.01909
1.01909
1.01908
1.01908
1.01907
1.01907
1.01906
1.01906
1.01906
1.01906
1.01907
1.01908
1.01909
1.0191
1.01908
1.01899
1.01894
1.019
1.01935
1.02023
1.02174
1.0237
1.02587
1.02804
1.03
1.03171
1.03306
1.034
1.03425
1.03419
1.03402
1.0338
1.0336
1.03348
1.03352
1.03362
1.03374
1.03373
1.0337
1.03366
1.0336
1.03345
1.0331
1.03238
1.03117
1.02964
1.02822
1.02712
1.02628
1.0256
1.02501
1.02447
1.02398
1.02353
1.02311
1.02274
1.02241
1.02214
1.02191
1.02173
1.02158
1.02146
1.02137
1.0213
1.02124
1.02119
1.02113
1.02108
1.02103
1.02099
1.02094
1.0209
1.02085
1.0208
1.02075
1.0207
1.02065
1.0206
1.02056
1.02052
1.0205
1.02049
1.02048
1.02047
1.02046
1.02046
1.02045
1.02044
1.02043
1.02042
1.02041
1.0204
1.02039
1.02038
1.02037
1.02035
1.02033
1.02032
1.0203
1.02028
1.02027
1.02026
1.02025
1.02024
1.02023
1.02023
1.02023
1.02022
1.02021
1.0202
1.02019
1.02018
1.02017
1.02016
1.02016
1.02015
1.02014
1.02012
1.02011
1.0201
1.02008
1.02007
1.02006
1.02005
1.02004
1.02002
1.02
1.01999
1.01997
1.01996
1.01995
1.01994
1.01993
1.0199
1.01989
1.01987
1.01986
1.01985
1.01985
1.01984
1.01983
1.01983
1.01982
1.01982
1.01982
1.01981
1.01981
1.01981
1.0198
1.0198
1.01978
1.01978
1.01977
1.01976
1.01976
1.01976
1.01976
1.01976
1.01975
1.01974
1.01973
1.01972
1.01971
1.0197
1.0197
1.0197
1.01969
1.01968
1.01967
1.01967
1.01966
1.01965
1.01965
1.01965
1.01965
1.01963
1.01962
1.01961
1.0196
1.0196
1.01959
1.01959
1.01959
1.01958
1.01956
1.01956
1.01956
1.01956
1.01956
1.01957
1.01959
1.0196
1.01961
1.01961
1.0196
1.0196
1.0196
1.01959
1.0196
1.0196
1.01958
1.01955
1.01951
1.01943
1.01932
1.01914
1.01888
1.01848
1.01789
1.01701
1.01574
1.01396
1.01142
1.00794
1.00318
0.996833
0.988514
0.977858
0.964522
0.948261
0.92898
0.906847
0.882327
0.856351
0.830373
0.806307
0.786794
0.774101
0.767277
0.765372
0.765367
0.765437
0.765574
0.765725
0.765849
0.765937
0.766006
0.766067
0.766114
0.766135
0.766167
0.766244
0.766357
0.766456
0.766483
0.766472
0.766431
0.766346
0.766217
0.766078
0.766016
0.766016
0.766037
0.766091
0.766171
0.766247
0.766288
0.766292
0.76628
0.766242
0.76618
0.766137
0.766131
0.766134
0.766154
0.766199
0.766249
0.76627
0.766271
0.766261
0.766231
0.766185
0.766146
0.766138
0.766141
0.766155
0.766185
0.766224
0.766253
0.766259
0.766255
0.766239
0.766207
0.766168
0.766141
0.76613
0.766128
0.766131
0.766142
0.766158
0.766168
0.766172
0.766174
0.766172
0.766175
0.766185
0.7662
0.76622
0.766246
0.766275
0.766299
0.766309
0.766301
0.766282
0.766262
0.766251
0.766249
0.76626
0.766286
0.766325
0.766373
0.766419
0.766432
0.766429
0.766424
1.132
1.132
1.132
1.132
1.132
1.132
1.132
1.132
1.132
1.132
1.132
1.132
1.132
1.132
1.132
1.132
1.132
1.132
1.132
1.132
1.132
1.132
1.132
1.132
1.132
1.13188
1.1287
1.08672
1.0249
1.01931
1.01924
1.01921
1.01918
1.01915
1.01911
1.01907
1.01903
1.01897
1.01891
1.01888
1.01883
1.0188
1.01879
1.01882
1.01888
1.01893
1.01898
1.019
1.019
1.01897
1.01894
1.01896
1.01899
1.01903
1.01911
1.01919
1.01922
1.01923
1.01921
1.01918
1.01913
1.01908
1.01907
1.01906
1.01907
1.01909
1.01913
1.01915
1.01916
1.01915
1.01913
1.01909
1.01906
1.01904
1.01904
1.01905
1.01907
1.0191
1.0191
1.01909
1.01908
1.01906
1.01903
1.019
1.01899
1.019
1.01902
1.01904
1.01906
1.01908
1.0191
1.0191
1.0191
1.01909
1.01909
1.0191
1.0191
1.01911
1.01912
1.01913
1.01913
1.01913
1.01913
1.01912
1.01911
1.0191
1.01909
1.01907
1.01906
1.01906
1.01906
1.01906
1.01906
1.01907
1.01907
1.01908
1.01908
1.01908
1.01908
1.01908
1.01908
1.01909
1.0191
1.0191
1.0191
1.01909
1.01908
1.01908
1.01907
1.01906
1.01906
1.01907
1.01908
1.01908
1.01909
1.01909
1.01909
1.01909
1.01909
1.0191
1.01911
1.01911
1.01912
1.01912
1.01912
1.01911
1.01911
1.0191
1.01909
1.01909
1.01909
1.01908
1.01908
1.01907
1.01907
1.01906
1.01906
1.01906
1.01906
1.01907
1.01908
1.01909
1.0191
1.01908
1.01899
1.01894
1.019
1.01935
1.02023
1.02174
1.0237
1.02587
1.02803
1.03
1.0317
1.03306
1.03402
1.03428
1.0342
1.03402
1.03379
1.03358
1.03345
1.0335
1.03361
1.03375
1.03376
1.03371
1.03366
1.03359
1.03345
1.0331
1.03238
1.03117
1.02964
1.02822
1.02712
1.02628
1.0256
1.02501
1.02447
1.02398
1.02353
1.02311
1.02274
1.02241
1.02214
1.02191
1.02173
1.02158
1.02146
1.02137
1.0213
1.02124
1.02119
1.02113
1.02108
1.02103
1.02099
1.02094
1.0209
1.02085
1.0208
1.02075
1.0207
1.02065
1.0206
1.02056
1.02052
1.0205
1.02049
1.02048
1.02047
1.02046
1.02046
1.02045
1.02044
1.02043
1.02042
1.02041
1.0204
1.02039
1.02038
1.02037
1.02035
1.02033
1.02032
1.0203
1.02028
1.02027
1.02026
1.02025
1.02024
1.02023
1.02023
1.02023
1.02022
1.02021
1.0202
1.02019
1.02018
1.02017
1.02016
1.02016
1.02015
1.02014
1.02012
1.02011
1.0201
1.02008
1.02007
1.02006
1.02005
1.02004
1.02002
1.02
1.01999
1.01997
1.01996
1.01995
1.01994
1.01993
1.0199
1.01989
1.01987
1.01986
1.01985
1.01985
1.01984
1.01983
1.01983
1.01982
1.01982
1.01982
1.01981
1.01981
1.01981
1.0198
1.0198
1.01978
1.01978
1.01977
1.01976
1.01976
1.01976
1.01976
1.01976
1.01975
1.01974
1.01973
1.01972
1.01971
1.0197
1.0197
1.0197
1.01969
1.01968
1.01967
1.01967
1.01966
1.01965
1.01965
1.01965
1.01964
1.01963
1.01962
1.01961
1.0196
1.0196
1.01959
1.01959
1.01959
1.01958
1.01956
1.01956
1.01956
1.01956
1.01956
1.01957
1.01959
1.0196
1.01961
1.01961
1.0196
1.0196
1.0196
1.01959
1.0196
1.0196
1.01958
1.01955
1.01951
1.01944
1.01933
1.01915
1.01889
1.01849
1.0179
1.01702
1.01577
1.014
1.01149
1.00804
1.00333
0.997045
0.988789
0.978182
0.96488
0.948622
0.929314
0.90712
0.882522
0.856482
0.830477
0.806407
0.786895
0.774176
0.767332
0.765409
0.7654
0.765463
0.765593
0.765737
0.765856
0.765941
0.766008
0.766067
0.766114
0.766134
0.766165
0.766242
0.766356
0.766454
0.76648
0.766469
0.766427
0.766342
0.766213
0.766074
0.766013
0.766014
0.766034
0.766088
0.766168
0.766244
0.766286
0.76629
0.766277
0.766239
0.766177
0.766135
0.766129
0.766132
0.766152
0.766197
0.766247
0.766268
0.766269
0.766259
0.766229
0.766183
0.766144
0.766136
0.766139
0.766153
0.766183
0.766223
0.766252
0.766257
0.766253
0.766237
0.766205
0.766166
0.766137
0.766125
0.766122
0.766124
0.766135
0.766149
0.76616
0.766166
0.76617
0.766173
0.766184
0.7662
0.766221
0.766247
0.766277
0.766309
0.766335
0.766341
0.76633
0.766308
0.76628
0.766263
0.766255
0.76626
0.766282
0.766318
0.766365
0.766411
0.766423
0.766422
0.766417
1.132
1.132
1.132
1.132
1.132
1.132
1.132
1.132
1.132
1.132
1.132
1.132
1.132
1.132
1.132
1.132
1.132
1.132
1.132
1.132
1.132
1.132
1.132
1.132
1.132
1.13188
1.1287
1.08672
1.0249
1.01931
1.01924
1.01921
1.01918
1.01915
1.01911
1.01907
1.01903
1.01897
1.01891
1.01888
1.01883
1.0188
1.01879
1.01882
1.01888
1.01893
1.01898
1.019
1.019
1.01897
1.01894
1.01896
1.01899
1.01903
1.01911
1.01919
1.01922
1.01923
1.01921
1.01918
1.01913
1.01908
1.01907
1.01906
1.01907
1.01909
1.01913
1.01915
1.01916
1.01915
1.01913
1.01909
1.01906
1.01904
1.01904
1.01905
1.01907
1.0191
1.0191
1.01909
1.01908
1.01906
1.01903
1.019
1.01899
1.019
1.01902
1.01904
1.01906
1.01908
1.0191
1.0191
1.0191
1.01909
1.01909
1.0191
1.0191
1.01911
1.01912
1.01913
1.01913
1.01913
1.01913
1.01912
1.01911
1.0191
1.01909
1.01907
1.01906
1.01906
1.01906
1.01906
1.01906
1.01907
1.01907
1.01908
1.01908
1.01908
1.01908
1.01908
1.01908
1.01909
1.0191
1.0191
1.0191
1.01909
1.01908
1.01908
1.01907
1.01906
1.01906
1.01907
1.01908
1.01908
1.01909
1.01909
1.01909
1.01909
1.01909
1.0191
1.01911
1.01911
1.01912
1.01912
1.01912
1.01911
1.01911
1.0191
1.01909
1.01909
1.01909
1.01908
1.01908
1.01907
1.01907
1.01906
1.01906
1.01906
1.01906
1.01907
1.01908
1.01909
1.0191
1.01908
1.01899
1.01894
1.019
1.01935
1.02023
1.02174
1.0237
1.02586
1.02803
1.02999
1.03169
1.03306
1.03404
1.03429
1.03422
1.03403
1.03378
1.03357
1.03343
1.03349
1.03361
1.03377
1.03378
1.03372
1.03365
1.03359
1.03345
1.0331
1.03238
1.03117
1.02964
1.02822
1.02712
1.02628
1.0256
1.02501
1.02447
1.02398
1.02353
1.02311
1.02274
1.02241
1.02214
1.02191
1.02173
1.02158
1.02146
1.02137
1.0213
1.02124
1.02119
1.02113
1.02108
1.02103
1.02099
1.02094
1.0209
1.02085
1.0208
1.02075
1.0207
1.02065
1.0206
1.02056
1.02052
1.0205
1.02049
1.02048
1.02047
1.02046
1.02046
1.02045
1.02044
1.02043
1.02042
1.02041
1.0204
1.02039
1.02038
1.02037
1.02035
1.02033
1.02032
1.0203
1.02028
1.02027
1.02026
1.02025
1.02024
1.02023
1.02023
1.02023
1.02023
1.02021
1.0202
1.02019
1.02018
1.02017
1.02016
1.02016
1.02015
1.02014
1.02012
1.02011
1.0201
1.02008
1.02007
1.02006
1.02005
1.02004
1.02002
1.02
1.01999
1.01997
1.01996
1.01995
1.01994
1.01993
1.0199
1.01989
1.01987
1.01986
1.01985
1.01985
1.01984
1.01984
1.01983
1.01982
1.01982
1.01982
1.01981
1.01981
1.01981
1.0198
1.0198
1.01979
1.01978
1.01977
1.01976
1.01976
1.01976
1.01976
1.01976
1.01975
1.01974
1.01973
1.01972
1.0197
1.0197
1.0197
1.01969
1.01969
1.01968
1.01967
1.01967
1.01966
1.01965
1.01965
1.01965
1.01964
1.01963
1.01962
1.01961
1.0196
1.0196
1.0196
1.01959
1.01959
1.01957
1.01956
1.01956
1.01956
1.01956
1.01956
1.01957
1.01959
1.0196
1.0196
1.0196
1.0196
1.0196
1.0196
1.01959
1.0196
1.0196
1.01958
1.01955
1.01952
1.01945
1.01934
1.01916
1.01889
1.0185
1.01791
1.01703
1.01579
1.01403
1.01154
1.00813
1.00345
0.99721
0.988995
0.978416
0.965116
0.948818
0.929445
0.907165
0.882511
0.856454
0.830455
0.806428
0.786958
0.774243
0.767388
0.765448
0.765433
0.765492
0.765615
0.765754
0.765867
0.765948
0.766011
0.766067
0.766112
0.766131
0.766162
0.76624
0.766353
0.76645
0.766475
0.766464
0.766422
0.766337
0.766207
0.766069
0.766008
0.766009
0.76603
0.766084
0.766164
0.76624
0.766282
0.766286
0.766274
0.766236
0.766174
0.766131
0.766125
0.766129
0.766149
0.766193
0.766244
0.766265
0.766266
0.766256
0.766226
0.76618
0.766141
0.766133
0.766136
0.76615
0.76618
0.76622
0.766249
0.766255
0.766251
0.766234
0.766201
0.766161
0.766131
0.766117
0.766114
0.766115
0.766124
0.766138
0.76615
0.766157
0.766164
0.766176
0.766196
0.766221
0.766253
0.766288
0.766325
0.766362
0.766389
0.766391
0.766375
0.766347
0.76631
0.76628
0.766265
0.766263
0.766279
0.766311
0.766355
0.766398
0.766411
0.76641
0.766406
1.132
1.132
1.132
1.132
1.132
1.132
1.132
1.132
1.132
1.132
1.132
1.132
1.132
1.132
1.132
1.132
1.132
1.132
1.132
1.132
1.132
1.132
1.132
1.132
1.132
1.13188
1.1287
1.08672
1.0249
1.01931
1.01924
1.01921
1.01918
1.01915
1.01911
1.01907
1.01903
1.01897
1.01891
1.01888
1.01883
1.0188
1.01879
1.01882
1.01888
1.01893
1.01898
1.019
1.019
1.01897
1.01894
1.01896
1.01899
1.01903
1.01911
1.01919
1.01922
1.01923
1.01921
1.01918
1.01913
1.01908
1.01907
1.01906
1.01907
1.01909
1.01913
1.01915
1.01916
1.01915
1.01913
1.01909
1.01906
1.01904
1.01904
1.01905
1.01907
1.0191
1.0191
1.01909
1.01908
1.01906
1.01903
1.019
1.01899
1.019
1.01902
1.01904
1.01906
1.01908
1.0191
1.0191
1.0191
1.01909
1.01909
1.0191
1.0191
1.01911
1.01912
1.01913
1.01913
1.01913
1.01913
1.01912
1.01911
1.0191
1.01909
1.01907
1.01906
1.01906
1.01906
1.01906
1.01906
1.01907
1.01907
1.01908
1.01908
1.01908
1.01908
1.01908
1.01908
1.01909
1.0191
1.0191
1.0191
1.01909
1.01908
1.01908
1.01907
1.01906
1.01906
1.01907
1.01908
1.01908
1.01909
1.01909
1.01909
1.01909
1.01909
1.0191
1.01911
1.01911
1.01912
1.01912
1.01912
1.01911
1.01911
1.0191
1.01909
1.01909
1.01909
1.01908
1.01908
1.01907
1.01907
1.01906
1.01906
1.01906
1.01906
1.01907
1.01908
1.01909
1.0191
1.01908
1.01899
1.01894
1.019
1.01935
1.02023
1.02174
1.0237
1.02586
1.02803
1.02998
1.03168
1.03306
1.03405
1.03431
1.03423
1.03403
1.03377
1.03355
1.03342
1.03348
1.0336
1.03378
1.0338
1.03373
1.03364
1.03358
1.03345
1.0331
1.03238
1.03117
1.02964
1.02822
1.02712
1.02628
1.0256
1.02501
1.02447
1.02398
1.02353
1.02311
1.02274
1.02241
1.02214
1.02191
1.02172
1.02158
1.02146
1.02137
1.0213
1.02124
1.02119
1.02113
1.02108
1.02103
1.02099
1.02094
1.02089
1.02085
1.0208
1.02075
1.0207
1.02065
1.02061
1.02056
1.02052
1.0205
1.02049
1.02048
1.02047
1.02046
1.02046
1.02045
1.02044
1.02043
1.02042
1.02041
1.0204
1.02039
1.02038
1.02037
1.02035
1.02033
1.02032
1.0203
1.02028
1.02027
1.02026
1.02025
1.02024
1.02023
1.02023
1.02023
1.02023
1.02021
1.0202
1.02019
1.02018
1.02017
1.02016
1.02016
1.02015
1.02014
1.02012
1.02011
1.0201
1.02008
1.02007
1.02006
1.02005
1.02004
1.02002
1.02
1.01999
1.01997
1.01996
1.01995
1.01994
1.01993
1.0199
1.01989
1.01987
1.01986
1.01985
1.01985
1.01984
1.01984
1.01983
1.01982
1.01982
1.01982
1.01981
1.01981
1.01981
1.0198
1.0198
1.01979
1.01978
1.01977
1.01976
1.01976
1.01976
1.01976
1.01975
1.01975
1.01974
1.01973
1.01972
1.0197
1.0197
1.0197
1.01969
1.01969
1.01968
1.01967
1.01967
1.01966
1.01965
1.01965
1.01965
1.01964
1.01963
1.01962
1.01961
1.0196
1.0196
1.0196
1.0196
1.01959
1.01957
1.01956
1.01956
1.01956
1.01956
1.01956
1.01957
1.01959
1.0196
1.0196
1.0196
1.0196
1.0196
1.0196
1.01959
1.0196
1.0196
1.01959
1.01956
1.01953
1.01946
1.01935
1.01917
1.0189
1.0185
1.01792
1.01705
1.0158
1.01406
1.01159
1.0082
1.00354
0.997339
0.989134
0.978566
0.965239
0.948889
0.929466
0.907138
0.882438
0.856345
0.830366
0.806381
0.786929
0.774246
0.767413
0.765472
0.765456
0.765513
0.765634
0.765768
0.765878
0.765953
0.766013
0.766066
0.76611
0.766127
0.766158
0.766236
0.76635
0.766445
0.766469
0.766458
0.766415
0.76633
0.766201
0.766063
0.766003
0.766004
0.766025
0.766079
0.766159
0.766236
0.766277
0.766281
0.766269
0.766231
0.76617
0.766127
0.766121
0.766125
0.766145
0.76619
0.76624
0.766261
0.766262
0.766252
0.766222
0.766176
0.766137
0.766129
0.766132
0.766146
0.766177
0.766216
0.766246
0.766252
0.766247
0.76623
0.766197
0.766156
0.766124
0.766108
0.766103
0.766103
0.766111
0.766125
0.766138
0.766146
0.766157
0.766178
0.766207
0.766246
0.766291
0.766339
0.766385
0.766426
0.766454
0.766453
0.766431
0.766396
0.766348
0.766302
0.766277
0.766268
0.766279
0.766306
0.766345
0.766386
0.766398
0.766397
0.766395
1.132
1.132
1.132
1.132
1.132
1.132
1.132
1.132
1.132
1.132
1.132
1.132
1.132
1.132
1.132
1.132
1.132
1.132
1.132
1.132
1.132
1.132
1.132
1.132
1.132
1.13188
1.1287
1.08672
1.0249
1.01931
1.01924
1.01921
1.01918
1.01915
1.01911
1.01907
1.01903
1.01897
1.01891
1.01888
1.01883
1.0188
1.01879
1.01882
1.01888
1.01893
1.01898
1.019
1.019
1.01897
1.01894
1.01896
1.01899
1.01903
1.01911
1.01919
1.01922
1.01923
1.01921
1.01918
1.01913
1.01908
1.01907
1.01906
1.01907
1.01909
1.01913
1.01915
1.01916
1.01915
1.01913
1.01909
1.01906
1.01904
1.01904
1.01905
1.01907
1.0191
1.0191
1.01909
1.01908
1.01906
1.01903
1.019
1.01899
1.019
1.01902
1.01904
1.01906
1.01908
1.0191
1.0191
1.0191
1.01909
1.01909
1.0191
1.0191
1.01911
1.01912
1.01913
1.01913
1.01913
1.01913
1.01912
1.01911
1.0191
1.01909
1.01907
1.01906
1.01906
1.01906
1.01906
1.01906
1.01907
1.01907
1.01908
1.01908
1.01908
1.01908
1.01908
1.01908
1.01909
1.0191
1.0191
1.0191
1.01909
1.01908
1.01908
1.01907
1.01906
1.01906
1.01907
1.01908
1.01908
1.01909
1.01909
1.01909
1.01909
1.01909
1.0191
1.01911
1.01911
1.01912
1.01912
1.01912
1.01911
1.01911
1.0191
1.01909
1.01909
1.01909
1.01908
1.01908
1.01907
1.01907
1.01906
1.01906
1.01906
1.01906
1.01907
1.01908
1.01909
1.0191
1.01908
1.01899
1.01894
1.019
1.01935
1.02024
1.02174
1.0237
1.02586
1.02803
1.02998
1.03167
1.03306
1.03406
1.03432
1.03424
1.03403
1.03377
1.03354
1.0334
1.03347
1.0336
1.03378
1.03382
1.03373
1.03364
1.03358
1.03345
1.0331
1.03238
1.03117
1.02964
1.02822
1.02712
1.02628
1.0256
1.02501
1.02447
1.02398
1.02353
1.02311
1.02274
1.02241
1.02214
1.02191
1.02172
1.02158
1.02146
1.02137
1.0213
1.02124
1.02119
1.02113
1.02108
1.02103
1.02099
1.02094
1.02089
1.02085
1.0208
1.02075
1.0207
1.02065
1.02061
1.02056
1.02052
1.0205
1.02049
1.02048
1.02047
1.02046
1.02046
1.02045
1.02044
1.02043
1.02042
1.02041
1.0204
1.02039
1.02038
1.02037
1.02035
1.02033
1.02032
1.0203
1.02028
1.02027
1.02026
1.02025
1.02024
1.02023
1.02023
1.02023
1.02023
1.02021
1.0202
1.02019
1.02018
1.02017
1.02016
1.02016
1.02015
1.02014
1.02012
1.02011
1.0201
1.02008
1.02007
1.02006
1.02005
1.02004
1.02002
1.02
1.01999
1.01997
1.01996
1.01995
1.01994
1.01993
1.0199
1.01989
1.01987
1.01986
1.01985
1.01985
1.01984
1.01984
1.01983
1.01982
1.01982
1.01982
1.01981
1.01981
1.01981
1.0198
1.0198
1.01979
1.01978
1.01977
1.01976
1.01976
1.01976
1.01976
1.01975
1.01975
1.01974
1.01973
1.01972
1.0197
1.0197
1.0197
1.01969
1.01969
1.01968
1.01967
1.01967
1.01966
1.01965
1.01965
1.01965
1.01964
1.01963
1.01962
1.01961
1.0196
1.0196
1.0196
1.0196
1.01959
1.01957
1.01956
1.01956
1.01956
1.01956
1.01956
1.01957
1.01959
1.0196
1.0196
1.0196
1.0196
1.01961
1.0196
1.01959
1.0196
1.0196
1.01959
1.01956
1.01953
1.01947
1.01936
1.01917
1.01891
1.01851
1.01792
1.01705
1.01581
1.01407
1.01161
1.00823
1.00358
0.997394
0.989191
0.978624
0.965271
0.948914
0.929484
0.907085
0.882288
0.856174
0.830221
0.806274
0.786858
0.774228
0.76742
0.765476
0.76546
0.765519
0.765643
0.765777
0.765885
0.765959
0.766015
0.766066
0.766107
0.766124
0.766153
0.766232
0.766346
0.766441
0.766464
0.766452
0.766409
0.766324
0.766194
0.766057
0.765997
0.765998
0.766019
0.766074
0.766155
0.766231
0.766273
0.766277
0.766265
0.766227
0.766166
0.766123
0.766117
0.766121
0.766141
0.766186
0.766236
0.766257
0.766258
0.766248
0.766218
0.766172
0.766134
0.766126
0.766128
0.766143
0.766173
0.766213
0.766243
0.766249
0.766244
0.766227
0.766193
0.766151
0.766117
0.766099
0.766093
0.766091
0.766098
0.766112
0.766126
0.766136
0.766152
0.766178
0.766216
0.766267
0.766329
0.766391
0.766445
0.766492
0.766519
0.766514
0.766488
0.766445
0.766389
0.766329
0.766294
0.766274
0.766277
0.766298
0.766333
0.766372
0.766383
0.766383
0.766382
1.132
1.132
1.132
1.132
1.132
1.132
1.132
1.132
1.132
1.132
1.132
1.132
1.132
1.132
1.132
1.132
1.132
1.132
1.132
1.132
1.132
1.132
1.132
1.132
1.132
1.13188
1.1287
1.08672
1.0249
1.01931
1.01924
1.01921
1.01918
1.01915
1.01911
1.01907
1.01903
1.01897
1.01891
1.01888
1.01883
1.0188
1.01879
1.01882
1.01888
1.01893
1.01898
1.019
1.019
1.01897
1.01894
1.01896
1.01899
1.01903
1.01911
1.01919
1.01922
1.01923
1.01921
1.01918
1.01913
1.01908
1.01907
1.01906
1.01907
1.01909
1.01913
1.01915
1.01916
1.01915
1.01913
1.01909
1.01906
1.01904
1.01904
1.01905
1.01907
1.0191
1.0191
1.01909
1.01908
1.01906
1.01903
1.019
1.01899
1.019
1.01902
1.01904
1.01906
1.01908
1.0191
1.0191
1.0191
1.01909
1.01909
1.0191
1.0191
1.01911
1.01912
1.01913
1.01913
1.01913
1.01913
1.01912
1.01911
1.0191
1.01909
1.01907
1.01906
1.01906
1.01906
1.01906
1.01906
1.01907
1.01907
1.01908
1.01908
1.01908
1.01908
1.01908
1.01908
1.01909
1.0191
1.0191
1.0191
1.01909
1.01908
1.01908
1.01907
1.01906
1.01906
1.01907
1.01908
1.01908
1.01909
1.01909
1.01909
1.01909
1.01909
1.0191
1.01911
1.01911
1.01912
1.01912
1.01912
1.01911
1.01911
1.0191
1.01909
1.01909
1.01909
1.01908
1.01908
1.01907
1.01907
1.01906
1.01906
1.01906
1.01906
1.01907
1.01908
1.01909
1.0191
1.01908
1.01899
1.01894
1.019
1.01935
1.02024
1.02174
1.0237
1.02586
1.02803
1.02998
1.03166
1.03307
1.03406
1.03432
1.03425
1.03403
1.03376
1.03353
1.03339
1.03346
1.0336
1.03379
1.03384
1.03374
1.03363
1.03358
1.03345
1.0331
1.03238
1.03116
1.02964
1.02822
1.02712
1.02628
1.0256
1.02501
1.02447
1.02398
1.02352
1.02311
1.02274
1.02241
1.02214
1.02191
1.02172
1.02158
1.02146
1.02137
1.0213
1.02124
1.02119
1.02113
1.02108
1.02104
1.02099
1.02094
1.02089
1.02085
1.0208
1.02075
1.0207
1.02065
1.02061
1.02056
1.02052
1.0205
1.02049
1.02048
1.02047
1.02046
1.02046
1.02045
1.02044
1.02043
1.02042
1.02041
1.0204
1.02039
1.02038
1.02037
1.02035
1.02033
1.02032
1.0203
1.02028
1.02027
1.02026
1.02025
1.02024
1.02023
1.02023
1.02023
1.02023
1.02021
1.0202
1.02019
1.02018
1.02017
1.02016
1.02016
1.02015
1.02014
1.02012
1.02011
1.0201
1.02008
1.02007
1.02006
1.02005
1.02004
1.02002
1.02
1.01999
1.01997
1.01996
1.01995
1.01994
1.01993
1.0199
1.01989
1.01987
1.01986
1.01985
1.01985
1.01984
1.01984
1.01983
1.01982
1.01982
1.01982
1.01981
1.01981
1.01981
1.0198
1.0198
1.01979
1.01978
1.01977
1.01976
1.01976
1.01976
1.01976
1.01975
1.01975
1.01974
1.01973
1.01972
1.0197
1.0197
1.0197
1.01969
1.01969
1.01968
1.01967
1.01967
1.01966
1.01965
1.01965
1.01965
1.01964
1.01963
1.01962
1.01961
1.0196
1.0196
1.0196
1.0196
1.01959
1.01957
1.01956
1.01956
1.01956
1.01957
1.01956
1.01958
1.0196
1.0196
1.0196
1.0196
1.0196
1.01961
1.0196
1.01959
1.0196
1.0196
1.01959
1.01956
1.01954
1.01948
1.01936
1.01918
1.01891
1.01851
1.01792
1.01704
1.0158
1.01405
1.01159
1.00819
1.00355
0.997349
0.989154
0.978595
0.965239
0.948942
0.929497
0.907001
0.882138
0.856052
0.83009
0.806156
0.786786
0.774207
0.767422
0.765481
0.765467
0.765527
0.765651
0.765781
0.765887
0.765959
0.766015
0.766066
0.766106
0.766121
0.76615
0.76623
0.766344
0.766437
0.766459
0.766447
0.766404
0.766318
0.766188
0.766051
0.765992
0.765993
0.766015
0.76607
0.766151
0.766227
0.766269
0.766273
0.766261
0.766223
0.766162
0.76612
0.766114
0.766118
0.766138
0.766182
0.766233