/*--------------------------------*- C++ -*----------------------------------*\
| =========                 |                                                 |
| \\      /  F ield         | OpenFOAM: The Open Source CFD Toolbox           |
|  \\    /   O peration     | Version:  2406                                  |
|   \\  /    A nd           | Website:  www.openfoam.com                      |
|    \\/     M anipulation  |                                                 |
\*---------------------------------------------------------------------------*/
FoamFile
{
    version     2.0;
    format      ascii;
    arch        "LSB;label=32;scalar=64";
    class       volScalarField;
    location    "0.05";
    object      rho;
}
// * * * * * * * * * * * * * * * * * * * * * * * * * * * * * * * * * * * * * //

dimensions      [1 -3 0 0 0 0 0];

internalField   nonuniform List<scalar> 
13962
(
4.32005
4.32005
4.32005
4.32005
4.32005
4.32005
4.32005
4.32005
4.32005
4.32005
4.32005
4.32005
4.32005
4.32005
4.32005
4.32005
4.32005
4.32005
4.32005
4.32005
4.32005
4.32005
4.32005
4.32005
4.32007
4.3205
4.33171
4.48301
4.71651
4.73847
4.73899
4.73936
4.73994
4.74057
4.74095
4.74109
4.741
4.74059
4.74019
4.74006
4.73999
4.74007
4.74033
4.74078
4.74126
4.74148
4.74149
4.74129
4.7409
4.74025
4.73971
4.73958
4.73957
4.73972
4.74012
4.74061
4.74073
4.74064
4.74046
4.74019
4.73975
4.73934
4.73922
4.73925
4.73934
4.73957
4.73994
4.74022
4.74037
4.7404
4.74036
4.74018
4.73996
4.73991
4.73996
4.74004
4.7402
4.74047
4.74062
4.74065
4.74063
4.74052
4.7403
4.74002
4.73985
4.73979
4.73979
4.73986
4.74
4.74013
4.74021
4.7402
4.74014
4.74002
4.7399
4.73984
4.73983
4.73988
4.73999
4.74011
4.74019
4.7402
4.74017
4.74009
4.73998
4.73988
4.7398
4.73976
4.73981
4.73988
4.73994
4.73998
4.74001
4.74002
4.74
4.73999
4.74002
4.74007
4.74012
4.7402
4.7403
4.74036
4.74035
4.74031
4.74027
4.7402
4.74011
4.74005
4.74002
4.73998
4.73997
4.73998
4.73999
4.73999
4.73998
4.73999
4.74001
4.74001
4.74003
4.74005
4.74006
4.74007
4.7401
4.74014
4.74015
4.74016
4.74016
4.74014
4.7401
4.74005
4.74001
4.73997
4.73996
4.73996
4.73997
4.74
4.74001
4.74001
4.74001
4.74001
4.74003
4.74006
4.7401
4.74023
4.7406
4.74081
4.74055
4.73918
4.73565
4.72968
4.72194
4.71338
4.70488
4.69717
4.69048
4.68531
4.68187
4.68087
4.68107
4.68159
4.68231
4.68301
4.68352
4.68349
4.68334
4.68311
4.68331
4.68326
4.68334
4.68357
4.68411
4.68537
4.68807
4.69268
4.69855
4.70407
4.70836
4.71163
4.71433
4.7167
4.71883
4.72078
4.72256
4.7242
4.72567
4.72698
4.72811
4.72906
4.72983
4.73044
4.73091
4.73125
4.73149
4.73167
4.73181
4.73193
4.73204
4.73214
4.73228
4.73246
4.73266
4.73286
4.73306
4.73329
4.73352
4.73375
4.73398
4.7342
4.73438
4.7345
4.73457
4.73462
4.73465
4.73466
4.73466
4.73465
4.73465
4.73463
4.73459
4.73457
4.73458
4.73463
4.73467
4.73473
4.73482
4.73491
4.73501
4.73511
4.73523
4.73535
4.73542
4.73546
4.7355
4.73554
4.73554
4.73554
4.73555
4.73556
4.73556
4.73555
4.73554
4.73553
4.73551
4.7355
4.73553
4.73558
4.73566
4.73572
4.7358
4.7359
4.73601
4.7361
4.73619
4.73628
4.73635
4.73641
4.73645
4.73651
4.73656
4.73659
4.73659
4.7366
4.73664
4.73667
4.73669
4.73671
4.73675
4.73678
4.7368
4.73683
4.73688
4.73692
4.73697
4.73703
4.7371
4.73714
4.73715
4.73715
4.73718
4.73722
4.73723
4.73724
4.73724
4.73723
4.73718
4.73713
4.73712
4.73715
4.73719
4.73723
4.73727
4.73732
4.73737
4.73739
4.73743
4.7375
4.7376
4.73765
4.73769
4.73771
4.73774
4.73774
4.73773
4.73772
4.73774
4.73776
4.73775
4.73772
4.73772
4.73775
4.73775
4.73776
4.7378
4.73785
4.73788
4.73792
4.73795
4.738
4.73799
4.73794
4.73789
4.73785
4.73785
4.73786
4.73786
4.73783
4.73777
4.73766
4.73752
4.73735
4.73711
4.73669
4.73607
4.73504
4.73345
4.73093
4.72713
4.72149
4.71319
4.70112
4.68383
4.65966
4.62628
4.58122
4.52156
4.44445
4.3471
4.22745
4.08454
3.91928
3.73472
3.5366
3.33357
3.13729
2.96141
2.82244
2.73291
2.68834
2.67625
2.67538
2.67567
2.67633
2.67711
2.67793
2.6788
2.67972
2.68064
2.6814
2.68186
2.68211
2.6824
2.68276
2.68303
2.683
2.68284
2.68255
2.68212
2.68157
2.68103
2.68079
2.68076
2.68082
2.68101
2.6813
2.68158
2.68175
2.6818
2.68181
2.68172
2.68154
2.68141
2.68139
2.68139
2.68143
2.68154
2.68166
2.68169
2.68167
2.68161
2.6815
2.68135
2.68123
2.68122
2.68124
2.68131
2.68142
2.68157
2.68167
2.6817
2.6817
2.68166
2.68156
2.68144
2.68135
2.68132
2.68131
2.68131
2.68134
2.68138
2.6814
2.68138
2.68135
2.68129
2.68124
2.68122
2.68121
2.68122
2.68127
2.68135
2.68144
2.68153
2.6816
2.68166
2.68177
2.68193
2.68215
2.68244
2.68279
2.68317
2.68354
2.68382
2.68391
2.68392
2.68388
4.32005
4.32005
4.32005
4.32005
4.32005
4.32005
4.32005
4.32005
4.32005
4.32005
4.32005
4.32005
4.32005
4.32005
4.32005
4.32005
4.32005
4.32005
4.32005
4.32005
4.32005
4.32005
4.32005
4.32005
4.32007
4.3205
4.33171
4.48301
4.71651
4.73847
4.73899
4.73936
4.73994
4.74057
4.74095
4.74109
4.741
4.74059
4.74019
4.74006
4.73999
4.74007
4.74033
4.74078
4.74126
4.74148
4.74149
4.74129
4.7409
4.74025
4.73971
4.73958
4.73957
4.73972
4.74012
4.74061
4.74073
4.74064
4.74046
4.74019
4.73975
4.73934
4.73922
4.73925
4.73934
4.73957
4.73994
4.74022
4.74037
4.7404
4.74036
4.74018
4.73996
4.73991
4.73996
4.74004
4.7402
4.74047
4.74062
4.74065
4.74063
4.74052
4.7403
4.74002
4.73985
4.73979
4.73979
4.73986
4.74
4.74013
4.74021
4.7402
4.74014
4.74002
4.7399
4.73984
4.73983
4.73988
4.73999
4.74011
4.74019
4.7402
4.74017
4.74009
4.73998
4.73988
4.7398
4.73976
4.73981
4.73988
4.73994
4.73998
4.74001
4.74002
4.74
4.73999
4.74002
4.74007
4.74012
4.7402
4.7403
4.74036
4.74035
4.74031
4.74027
4.7402
4.74011
4.74005
4.74002
4.73998
4.73997
4.73998
4.73999
4.73999
4.73998
4.73999
4.74001
4.74001
4.74003
4.74005
4.74006
4.74007
4.7401
4.74014
4.74015
4.74016
4.74016
4.74014
4.7401
4.74005
4.74001
4.73997
4.73996
4.73996
4.73997
4.74
4.74001
4.74001
4.74001
4.74001
4.74003
4.74006
4.7401
4.74023
4.74061
4.74081
4.74055
4.73917
4.73565
4.72967
4.72193
4.71339
4.7049
4.69721
4.69053
4.68531
4.68178
4.68076
4.681
4.68158
4.68237
4.68312
4.68365
4.68357
4.68336
4.68304
4.6832
4.68323
4.68334
4.68357
4.68411
4.68536
4.68807
4.69267
4.69855
4.70407
4.70835
4.71163
4.71433
4.7167
4.71883
4.72078
4.72256
4.72419
4.72567
4.72698
4.72811
4.72906
4.72983
4.73044
4.73091
4.73125
4.73149
4.73166
4.73181
4.73193
4.73204
4.73214
4.73228
4.73246
4.73266
4.73285
4.73306
4.73329
4.73352
4.73375
4.73398
4.7342
4.73438
4.7345
4.73457
4.73462
4.73465
4.73466
4.73466
4.73465
4.73465
4.73463
4.73459
4.73457
4.73458
4.73463
4.73467
4.73473
4.73482
4.73491
4.735
4.73511
4.73523
4.73535
4.73542
4.73546
4.7355
4.73554
4.73554
4.73554
4.73555
4.73556
4.73556
4.73555
4.73554
4.73553
4.73551
4.7355
4.73553
4.73558
4.73566
4.73572
4.7358
4.7359
4.73601
4.7361
4.73619
4.73628
4.73635
4.73641
4.73645
4.73651
4.73656
4.73659
4.73659
4.7366
4.73664
4.73667
4.73669
4.73671
4.73675
4.73678
4.7368
4.73683
4.73688
4.73692
4.73697
4.73703
4.7371
4.73714
4.73715
4.73715
4.73718
4.73722
4.73723
4.73724
4.73724
4.73723
4.73718
4.73713
4.73712
4.73715
4.73719
4.73723
4.73727
4.73732
4.73737
4.73739
4.73743
4.7375
4.7376
4.73765
4.73769
4.73771
4.73774
4.73774
4.73773
4.73772
4.73774
4.73776
4.73775
4.73772
4.73772
4.73774
4.73775
4.73776
4.7378
4.73786
4.73788
4.73792
4.73795
4.73799
4.73798
4.73793
4.73788
4.73785
4.73785
4.73786
4.73786
4.73783
4.73778
4.73766
4.73753
4.73735
4.73712
4.73669
4.73606
4.73503
4.73344
4.73093
4.72713
4.72149
4.7132
4.70113
4.68384
4.65968
4.62632
4.58129
4.52168
4.44464
4.34738
4.22784
4.08506
3.91991
3.73542
3.53732
3.33423
3.13781
2.96178
2.82265
2.733
2.68842
2.67626
2.67538
2.67567
2.67633
2.6771
2.67792
2.67879
2.67972
2.68064
2.6814
2.68186
2.68211
2.6824
2.68277
2.68303
2.683
2.68284
2.68255
2.68212
2.68157
2.68103
2.68079
2.68076
2.68082
2.68101
2.6813
2.68158
2.68175
2.6818
2.68181
2.68172
2.68154
2.68141
2.68139
2.68139
2.68143
2.68154
2.68166
2.68169
2.68167
2.68161
2.6815
2.68135
2.68123
2.68122
2.68124
2.68131
2.68142
2.68156
2.68167
2.6817
2.6817
2.68166
2.68156
2.68144
2.68135
2.68132
2.68131
2.68131
2.68134
2.68138
2.6814
2.68139
2.68135
2.68129
2.68124
2.68122
2.68121
2.68122
2.68127
2.68134
2.68144
2.68153
2.6816
2.68166
2.68176
2.68193
2.68215
2.68244
2.68279
2.68318
2.68354
2.68382
2.68391
2.68392
2.68388
4.32005
4.32005
4.32005
4.32005
4.32005
4.32005
4.32005
4.32005
4.32005
4.32005
4.32005
4.32005
4.32005
4.32005
4.32005
4.32005
4.32005
4.32005
4.32005
4.32005
4.32005
4.32005
4.32005
4.32005
4.32007
4.3205
4.33171
4.48301
4.71651
4.73847
4.73899
4.73936
4.73994
4.74057
4.74095
4.74109
4.741
4.74059
4.74019
4.74006
4.73999
4.74007
4.74033
4.74078
4.74126
4.74148
4.74149
4.74129
4.7409
4.74025
4.73971
4.73958
4.73957
4.73972
4.74012
4.74061
4.74073
4.74064
4.74046
4.74019
4.73975
4.73934
4.73922
4.73925
4.73934
4.73957
4.73994
4.74022
4.74037
4.7404
4.74036
4.74018
4.73996
4.73991
4.73996
4.74004
4.7402
4.74047
4.74062
4.74065
4.74063
4.74052
4.7403
4.74002
4.73985
4.73979
4.73979
4.73986
4.74
4.74013
4.74021
4.7402
4.74014
4.74002
4.7399
4.73984
4.73983
4.73988
4.73999
4.74011
4.74019
4.7402
4.74017
4.74009
4.73998
4.73988
4.7398
4.73976
4.73981
4.73988
4.73994
4.73998
4.74001
4.74002
4.74
4.73999
4.74002
4.74007
4.74012
4.7402
4.7403
4.74036
4.74035
4.74031
4.74027
4.7402
4.74011
4.74005
4.74002
4.73998
4.73997
4.73998
4.73999
4.73999
4.73998
4.73999
4.74001
4.74001
4.74003
4.74005
4.74006
4.74007
4.7401
4.74014
4.74015
4.74016
4.74016
4.74014
4.7401
4.74005
4.74001
4.73997
4.73996
4.73996
4.73997
4.74
4.74001
4.74001
4.74001
4.74001
4.74003
4.74006
4.7401
4.74023
4.74061
4.74081
4.74055
4.73917
4.73564
4.72967
4.72193
4.7134
4.70491
4.69724
4.69059
4.68532
4.6817
4.68067
4.68093
4.68158
4.68243
4.68322
4.68376
4.68365
4.68337
4.68298
4.68308
4.6832
4.68335
4.68358
4.68411
4.68535
4.68806
4.69267
4.69854
4.70406
4.70835
4.71163
4.71433
4.7167
4.71884
4.72078
4.72256
4.72419
4.72567
4.72698
4.7281
4.72905
4.72983
4.73044
4.73091
4.73125
4.73149
4.73166
4.7318
4.73193
4.73204
4.73214
4.73228
4.73246
4.73265
4.73285
4.73306
4.73329
4.73352
4.73375
4.73398
4.7342
4.73438
4.7345
4.73457
4.73462
4.73465
4.73466
4.73466
4.73465
4.73465
4.73463
4.73459
4.73457
4.73458
4.73463
4.73467
4.73473
4.73482
4.73491
4.735
4.73511
4.73523
4.73535
4.73542
4.73546
4.7355
4.73554
4.73554
4.73554
4.73555
4.73556
4.73556
4.73555
4.73554
4.73553
4.73551
4.7355
4.73553
4.73558
4.73566
4.73572
4.7358
4.7359
4.73601
4.7361
4.73619
4.73628
4.73635
4.73641
4.73645
4.73651
4.73656
4.73658
4.73659
4.7366
4.73664
4.73667
4.73669
4.73671
4.73675
4.73678
4.7368
4.73683
4.73688
4.73692
4.73697
4.73703
4.7371
4.73714
4.73715
4.73716
4.73718
4.73722
4.73723
4.73724
4.73724
4.73723
4.73718
4.73713
4.73712
4.73715
4.73719
4.73722
4.73727
4.73733
4.73737
4.73739
4.73743
4.7375
4.7376
4.73765
4.73769
4.73771
4.73774
4.73774
4.73772
4.73772
4.73775
4.73776
4.73775
4.73773
4.73772
4.73774
4.73774
4.73776
4.7378
4.73786
4.73788
4.73792
4.73795
4.73799
4.73798
4.73793
4.73789
4.73786
4.73786
4.73786
4.73786
4.73783
4.73778
4.73766
4.73753
4.73735
4.73712
4.73669
4.73605
4.73502
4.73343
4.73092
4.72714
4.7215
4.71322
4.70116
4.6839
4.65978
4.62648
4.58157
4.52211
4.44525
4.34823
4.22894
4.08641
3.92146
3.73706
3.53889
3.33557
3.13883
2.96247
2.82301
2.73312
2.68845
2.67626
2.67539
2.67568
2.67633
2.6771
2.67791
2.67879
2.67971
2.68063
2.6814
2.68186
2.68211
2.68241
2.68277
2.68303
2.683
2.68284
2.68255
2.68212
2.68157
2.68103
2.68079
2.68076
2.68082
2.68101
2.6813
2.68158
2.68175
2.6818
2.68181
2.68172
2.68154
2.68141
2.68139
2.68139
2.68143
2.68154
2.68166
2.68169
2.68166
2.68161
2.6815
2.68135
2.68123
2.68122
2.68124
2.68131
2.68142
2.68157
2.68167
2.6817
2.6817
2.68166
2.68156
2.68144
2.68135
2.68132
2.68131
2.68131
2.68134
2.68138
2.6814
2.68139
2.68135
2.68129
2.68125
2.68122
2.68121
2.68122
2.68127
2.68134
2.68144
2.68152
2.6816
2.68166
2.68176
2.68193
2.68215
2.68244
2.6828
2.68318
2.68355
2.68383
2.68392
2.68392
2.68388
4.32005
4.32005
4.32005
4.32005
4.32005
4.32005
4.32005
4.32005
4.32005
4.32005
4.32005
4.32005
4.32005
4.32005
4.32005
4.32005
4.32005
4.32005
4.32005
4.32005
4.32005
4.32005
4.32005
4.32005
4.32007
4.3205
4.33171
4.48301
4.71651
4.73847
4.73899
4.73936
4.73994
4.74057
4.74095
4.74109
4.741
4.74059
4.74019
4.74006
4.73999
4.74007
4.74033
4.74078
4.74126
4.74148
4.74149
4.74129
4.7409
4.74025
4.73971
4.73958
4.73957
4.73972
4.74012
4.74061
4.74073
4.74064
4.74046
4.74019
4.73975
4.73934
4.73922
4.73925
4.73934
4.73957
4.73994
4.74022
4.74037
4.7404
4.74036
4.74018
4.73996
4.73991
4.73996
4.74004
4.7402
4.74047
4.74062
4.74065
4.74063
4.74052
4.7403
4.74002
4.73985
4.73979
4.73979
4.73986
4.74
4.74013
4.74021
4.7402
4.74014
4.74002
4.7399
4.73984
4.73983
4.73988
4.73999
4.74011
4.74019
4.7402
4.74017
4.74009
4.73998
4.73988
4.7398
4.73976
4.73981
4.73988
4.73994
4.73998
4.74001
4.74002
4.74
4.73999
4.74002
4.74007
4.74012
4.7402
4.7403
4.74036
4.74035
4.74031
4.74027
4.7402
4.74011
4.74005
4.74002
4.73998
4.73997
4.73998
4.73999
4.73999
4.73998
4.73999
4.74001
4.74001
4.74003
4.74005
4.74006
4.74007
4.7401
4.74014
4.74015
4.74016
4.74016
4.74014
4.7401
4.74005
4.74001
4.73997
4.73996
4.73996
4.73997
4.74
4.74001
4.74001
4.74001
4.74001
4.74003
4.74006
4.7401
4.74023
4.74061
4.74081
4.74055
4.73917
4.73564
4.72966
4.72193
4.71341
4.70492
4.69727
4.69064
4.68532
4.68162
4.68058
4.68087
4.68157
4.68248
4.6833
4.68386
4.68372
4.68339
4.68292
4.68297
4.68318
4.68338
4.6836
4.6841
4.68534
4.68805
4.69267
4.69854
4.70406
4.70835
4.71164
4.71434
4.71671
4.71884
4.72078
4.72256
4.72419
4.72567
4.72697
4.7281
4.72905
4.72983
4.73044
4.73091
4.73125
4.73149
4.73166
4.73181
4.73193
4.73204
4.73214
4.73228
4.73246
4.73265
4.73285
4.73306
4.73328
4.73352
4.73376
4.73398
4.7342
4.73438
4.7345
4.73457
4.73462
4.73465
4.73466
4.73466
4.73465
4.73465
4.73463
4.73459
4.73457
4.73458
4.73463
4.73467
4.73473
4.73481
4.73491
4.735
4.73511
4.73523
4.73535
4.73542
4.73546
4.7355
4.73554
4.73554
4.73554
4.73555
4.73556
4.73556
4.73555
4.73554
4.73553
4.73551
4.7355
4.73553
4.73559
4.73565
4.73572
4.7358
4.7359
4.73601
4.7361
4.73619
4.73628
4.73635
4.7364
4.73645
4.73651
4.73656
4.73658
4.73659
4.7366
4.73664
4.73667
4.73669
4.73671
4.73675
4.73678
4.73679
4.73682
4.73687
4.73692
4.73697
4.73703
4.7371
4.73714
4.73715
4.73716
4.73718
4.73722
4.73723
4.73724
4.73724
4.73723
4.73718
4.73713
4.73713
4.73715
4.73718
4.73722
4.73727
4.73733
4.73737
4.73739
4.73743
4.7375
4.7376
4.73765
4.73768
4.73771
4.73774
4.73774
4.73773
4.73773
4.73775
4.73775
4.73775
4.73773
4.73772
4.73773
4.73774
4.73776
4.73781
4.73787
4.73788
4.73792
4.73794
4.73798
4.73798
4.73793
4.73789
4.73787
4.73787
4.73786
4.73786
4.73783
4.73778
4.73767
4.73753
4.73736
4.73712
4.73668
4.73603
4.735
4.73342
4.73092
4.72715
4.72152
4.71324
4.70122
4.684
4.65994
4.62675
4.58201
4.52275
4.44614
4.34942
4.23043
4.08817
3.92332
3.73882
3.54041
3.33678
3.1397
2.96308
2.82335
2.73328
2.68852
2.67627
2.67541
2.6757
2.67634
2.6771
2.67791
2.67877
2.6797
2.68062
2.68139
2.68186
2.68212
2.68241
2.68278
2.68303
2.683
2.68284
2.68254
2.68211
2.68157
2.68103
2.68079
2.68076
2.68082
2.68101
2.6813
2.68158
2.68175
2.6818
2.68181
2.68172
2.68154
2.68141
2.68139
2.68139
2.68143
2.68154
2.68166
2.68169
2.68166
2.68161
2.6815
2.68135
2.68123
2.68122
2.68124
2.68131
2.68142
2.68157
2.68167
2.6817
2.6817
2.68166
2.68156
2.68144
2.68135
2.68132
2.68131
2.68131
2.68134
2.68138
2.6814
2.68139
2.68135
2.68129
2.68125
2.68123
2.68121
2.68123
2.68127
2.68134
2.68144
2.68152
2.68159
2.68167
2.68176
2.68193
2.68216
2.68245
2.68281
2.68319
2.68355
2.68383
2.68393
2.68393
2.68389
4.32005
4.32005
4.32005
4.32005
4.32005
4.32005
4.32005
4.32005
4.32005
4.32005
4.32005
4.32005
4.32005
4.32005
4.32005
4.32005
4.32005
4.32005
4.32005
4.32005
4.32005
4.32005
4.32005
4.32005
4.32007
4.3205
4.33171
4.48301
4.71651
4.73847
4.73899
4.73936
4.73994
4.74057
4.74095
4.74109
4.741
4.74059
4.74019
4.74006
4.73999
4.74007
4.74033
4.74078
4.74126
4.74148
4.74149
4.74129
4.7409
4.74025
4.73971
4.73958
4.73957
4.73972
4.74012
4.74061
4.74073
4.74064
4.74046
4.74019
4.73975
4.73934
4.73922
4.73925
4.73934
4.73957
4.73994
4.74022
4.74037
4.7404
4.74036
4.74018
4.73996
4.73991
4.73996
4.74004
4.7402
4.74047
4.74062
4.74065
4.74063
4.74052
4.7403
4.74002
4.73985
4.73979
4.73979
4.73986
4.74
4.74013
4.74021
4.7402
4.74014
4.74002
4.7399
4.73984
4.73983
4.73988
4.73999
4.74011
4.74019
4.7402
4.74017
4.74009
4.73998
4.73988
4.7398
4.73976
4.73981
4.73988
4.73994
4.73998
4.74001
4.74002
4.74
4.73999
4.74002
4.74007
4.74012
4.7402
4.7403
4.74036
4.74035
4.74031
4.74027
4.7402
4.74011
4.74005
4.74002
4.73998
4.73997
4.73998
4.73999
4.73999
4.73998
4.73999
4.74001
4.74001
4.74003
4.74005
4.74006
4.74007
4.7401
4.74014
4.74015
4.74016
4.74016
4.74014
4.7401
4.74005
4.74001
4.73997
4.73996
4.73996
4.73997
4.74
4.74001
4.74001
4.74001
4.74001
4.74003
4.74006
4.7401
4.74023
4.74061
4.74081
4.74055
4.73916
4.73564
4.72966
4.72193
4.71342
4.70493
4.69729
4.69068
4.68532
4.68156
4.68051
4.68081
4.68156
4.68253
4.68337
4.68394
4.68378
4.6834
4.68286
4.68287
4.68315
4.68341
4.68361
4.68409
4.68533
4.68805
4.69267
4.69853
4.70406
4.70836
4.71164
4.71434
4.71671
4.71884
4.72078
4.72256
4.72419
4.72566
4.72697
4.7281
4.72905
4.72984
4.73044
4.73091
4.73125
4.73149
4.73166
4.73181
4.73193
4.73204
4.73214
4.73228
4.73246
4.73265
4.73285
4.73306
4.73328
4.73352
4.73376
4.73398
4.7342
4.73438
4.7345
4.73457
4.73462
4.73465
4.73466
4.73466
4.73465
4.73465
4.73463
4.73459
4.73457
4.73458
4.73463
4.73467
4.73473
4.73481
4.73491
4.735
4.73511
4.73523
4.73535
4.73542
4.73546
4.7355
4.73554
4.73555
4.73554
4.73555
4.73556
4.73556
4.73555
4.73554
4.73553
4.73551
4.7355
4.73553
4.73559
4.73565
4.73572
4.7358
4.7359
4.73601
4.7361
4.73619
4.73628
4.73635
4.7364
4.73645
4.73651
4.73656
4.73658
4.73659
4.7366
4.73664
4.73667
4.73669
4.73671
4.73675
4.73678
4.73679
4.73682
4.73687
4.73692
4.73697
4.73703
4.73709
4.73713
4.73715
4.73716
4.73718
4.73722
4.73722
4.73724
4.73724
4.73723
4.73718
4.73713
4.73713
4.73715
4.73718
4.73722
4.73727
4.73733
4.73737
4.7374
4.73744
4.7375
4.7376
4.73765
4.73768
4.73771
4.73774
4.73773
4.73773
4.73773
4.73775
4.73775
4.73775
4.73773
4.73772
4.73772
4.73773
4.73776
4.73782
4.73788
4.73788
4.73791
4.73793
4.73798
4.73797
4.73792
4.73789
4.73789
4.73788
4.73787
4.73785
4.73783
4.73779
4.73767
4.73753
4.73736
4.73712
4.73667
4.73601
4.73498
4.73341
4.73093
4.72716
4.72154
4.71329
4.70131
4.68414
4.66018
4.62711
4.58256
4.5235
4.44717
4.35074
4.23197
4.08978
3.9248
3.74011
3.54139
3.33741
3.14013
2.96345
2.82362
2.73341
2.68858
2.67628
2.67541
2.6757
2.67635
2.6771
2.6779
2.67877
2.67969
2.68062
2.68139
2.68186
2.68212
2.68241
2.68278
2.68304
2.68301
2.68284
2.68255
2.68211
2.68157
2.68103
2.68079
2.68076
2.68082
2.68101
2.6813
2.68158
2.68175
2.6818
2.68181
2.68172
2.68154
2.68141
2.68139
2.68139
2.68143
2.68154
2.68166
2.68169
2.68166
2.68161
2.6815
2.68135
2.68123
2.68122
2.68124
2.68131
2.68142
2.68157
2.68167
2.6817
2.6817
2.68166
2.68156
2.68144
2.68135
2.68131
2.68131
2.68131
2.68134
2.68138
2.6814
2.68139
2.68134
2.6813
2.68126
2.68123
2.68122
2.68123
2.68127
2.68135
2.68144
2.68151
2.68159
2.68167
2.68176
2.68193
2.68216
2.68246
2.68282
2.68321
2.68357
2.68385
2.68394
2.68394
2.6839
4.32005
4.32005
4.32005
4.32005
4.32005
4.32005
4.32005
4.32005
4.32005
4.32005
4.32005
4.32005
4.32005
4.32005
4.32005
4.32005
4.32005
4.32005
4.32005
4.32005
4.32005
4.32005
4.32005
4.32005
4.32007
4.3205
4.33171
4.48301
4.71651
4.73847
4.73899
4.73936
4.73994
4.74057
4.74095
4.74109
4.741
4.74059
4.74019
4.74006
4.73999
4.74007
4.74033
4.74078
4.74126
4.74148
4.74149
4.74129
4.7409
4.74025
4.73971
4.73957
4.73957
4.73972
4.74012
4.74061
4.74073
4.74064
4.74046
4.74019
4.73975
4.73934
4.73922
4.73925
4.73934
4.73957
4.73994
4.74022
4.74037
4.7404
4.74036
4.74018
4.73996
4.73991
4.73996
4.74004
4.7402
4.74047
4.74062
4.74065
4.74063
4.74052
4.7403
4.74002
4.73985
4.73979
4.73979
4.73986
4.74
4.74013
4.74021
4.7402
4.74014
4.74002
4.7399
4.73984
4.73983
4.73988
4.73999
4.74011
4.74019
4.7402
4.74017
4.74009
4.73998
4.73988
4.7398
4.73976
4.73981
4.73988
4.73994
4.73998
4.74001
4.74002
4.74
4.73999
4.74002
4.74007
4.74012
4.7402
4.7403
4.74036
4.74035
4.74031
4.74027
4.7402
4.74011
4.74005
4.74002
4.73998
4.73997
4.73998
4.73999
4.73999
4.73998
4.73999
4.74001
4.74001
4.74003
4.74005
4.74006
4.74007
4.7401
4.74014
4.74015
4.74016
4.74016
4.74014
4.7401
4.74005
4.74001
4.73997
4.73996
4.73996
4.73997
4.74
4.74001
4.74001
4.74001
4.74001
4.74003
4.74006
4.7401
4.74023
4.74061
4.74081
4.74055
4.73916
4.73563
4.72965
4.72192
4.71343
4.70493
4.69731
4.69072
4.68532
4.6815
4.68046
4.68076
4.68156
4.68257
4.68343
4.68401
4.68383
4.68341
4.68282
4.68277
4.68311
4.68343
4.68363
4.68409
4.68533
4.68805
4.69267
4.69853
4.70406
4.70836
4.71165
4.71435
4.71671
4.71884
4.72078
4.72256
4.72419
4.72566
4.72697
4.7281
4.72906
4.72984
4.73044
4.73091
4.73125
4.73149
4.73166
4.73181
4.73193
4.73204
4.73214
4.73228
4.73246
4.73265
4.73285
4.73306
4.73328
4.73352
4.73376
4.73398
4.7342
4.73438
4.7345
4.73457
4.73462
4.73465
4.73466
4.73466
4.73465
4.73465
4.73463
4.73459
4.73457
4.73458
4.73463
4.73467
4.73473
4.73481
4.73491
4.735
4.73511
4.73524
4.73535
4.73542
4.73546
4.7355
4.73554
4.73555
4.73554
4.73555
4.73556
4.73556
4.73555
4.73554
4.73553
4.73551
4.7355
4.73553
4.73559
4.73565
4.73572
4.7358
4.7359
4.73601
4.7361
4.73619
4.73628
4.73635
4.7364
4.73645
4.73651
4.73656
4.73658
4.73659
4.7366
4.73664
4.73667
4.73669
4.73671
4.73675
4.73678
4.73679
4.73682
4.73687
4.73692
4.73698
4.73703
4.73709
4.73713
4.73715
4.73716
4.73718
4.73721
4.73722
4.73724
4.73724
4.73722
4.73717
4.73713
4.73713
4.73715
4.73717
4.73721
4.73727
4.73733
4.73737
4.7374
4.73744
4.73751
4.7376
4.73764
4.73768
4.73771
4.73774
4.73773
4.73773
4.73774
4.73775
4.73775
4.73775
4.73773
4.73772
4.73772
4.73772
4.73777
4.73783
4.73789
4.73788
4.7379
4.73792
4.73797
4.73797
4.73792
4.7379
4.7379
4.73789
4.73787
4.73785
4.73783
4.73779
4.73767
4.73753
4.73737
4.73712
4.73665
4.73598
4.73496
4.7334
4.73094
4.72717
4.72157
4.71335
4.70141
4.6843
4.66042
4.62745
4.58307
4.52414
4.44802
4.35172
4.23306
4.09086
3.9257
3.7407
3.54163
3.33748
3.14013
2.96344
2.82365
2.73345
2.6886
2.67628
2.67542
2.67571
2.67636
2.67711
2.6779
2.67876
2.67969
2.68061
2.68138
2.68185
2.68211
2.68242
2.68279
2.68304
2.68301
2.68284
2.68255
2.68211
2.68157
2.68103
2.68079
2.68076
2.68082
2.68101
2.6813
2.68158
2.68175
2.6818
2.68181
2.68172
2.68154
2.68141
2.68139
2.68139
2.68143
2.68154
2.68166
2.68169
2.68166
2.68161
2.6815
2.68135
2.68123
2.68122
2.68124
2.68131
2.68142
2.68157
2.68167
2.6817
2.6817
2.68166
2.68156
2.68144
2.68135
2.68131
2.68131
2.68131
2.68134
2.68138
2.6814
2.68138
2.68134
2.6813
2.68126
2.68123
2.68122
2.68123
2.68127
2.68135
2.68144
2.68151
2.68158
2.68167
2.68177
2.68193
2.68217
2.68247
2.68283
2.68323
2.68359
2.68387
2.68396
2.68396
2.68392
4.32005
4.32005
4.32005
4.32005
4.32005
4.32005
4.32005
4.32005
4.32005
4.32005
4.32005
4.32005
4.32005
4.32005
4.32005
4.32005
4.32005
4.32005
4.32005
4.32005
4.32005
4.32005
4.32005
4.32005
4.32007
4.3205
4.33171
4.48301
4.71651
4.73847
4.73899
4.73936
4.73994
4.74057
4.74095
4.74109
4.741
4.74059
4.74019
4.74006
4.73999
4.74007
4.74033
4.74078
4.74126
4.74148
4.74149
4.74129
4.7409
4.74025
4.73971
4.73957
4.73957
4.73972
4.74012
4.74061
4.74073
4.74064
4.74046
4.74019
4.73975
4.73934
4.73922
4.73925
4.73934
4.73957
4.73994
4.74022
4.74037
4.7404
4.74036
4.74018
4.73996
4.73991
4.73996
4.74004
4.7402
4.74047
4.74062
4.74065
4.74063
4.74052
4.7403
4.74002
4.73985
4.73979
4.73979
4.73986
4.74
4.74013
4.74021
4.7402
4.74014
4.74002
4.7399
4.73984
4.73983
4.73988
4.73999
4.74011
4.74019
4.7402
4.74017
4.74009
4.73998
4.73988
4.7398
4.73976
4.73981
4.73988
4.73994
4.73998
4.74001
4.74002
4.74
4.73999
4.74002
4.74007
4.74012
4.7402
4.7403
4.74036
4.74035
4.74031
4.74027
4.7402
4.74011
4.74005
4.74002
4.73998
4.73997
4.73998
4.73999
4.73999
4.73998
4.73999
4.74001
4.74001
4.74003
4.74005
4.74006
4.74007
4.7401
4.74014
4.74015
4.74016
4.74016
4.74014
4.7401
4.74005
4.74001
4.73997
4.73996
4.73996
4.73997
4.74
4.74001
4.74001
4.74001
4.74001
4.74003
4.74006
4.7401
4.74023
4.74061
4.74081
4.74055
4.73916
4.73563
4.72965
4.72192
4.71344
4.70493
4.69733
4.69075
4.68531
4.68146
4.68043
4.68073
4.68155
4.68259
4.68347
4.68406
4.68388
4.68342
4.68279
4.68269
4.68308
4.68346
4.68364
4.68409
4.68532
4.68805
4.69268
4.69854
4.70406
4.70836
4.71165
4.71435
4.71671
4.71884
4.72078
4.72256
4.72419
4.72566
4.72697
4.7281
4.72906
4.72984
4.73044
4.7309
4.73125
4.73149
4.73166
4.73181
4.73194
4.73204
4.73214
4.73228
4.73246
4.73265
4.73285
4.73306
4.73328
4.73352
4.73376
4.73398
4.7342
4.73438
4.7345
4.73457
4.73461
4.73465
4.73466
4.73466
4.73465
4.73465
4.73463
4.73459
4.73457
4.73458
4.73462
4.73467
4.73473
4.73481
4.73491
4.735
4.73511
4.73524
4.73535
4.73542
4.73546
4.7355
4.73554
4.73555
4.73554
4.73555
4.73556
4.73556
4.73555
4.73554
4.73553
4.73551
4.7355
4.73553
4.73559
4.73565
4.73572
4.7358
4.73591
4.73601
4.7361
4.73619
4.73628
4.73635
4.7364
4.73645
4.73651
4.73656
4.73658
4.73659
4.7366
4.73664
4.73667
4.73669
4.73672
4.73675
4.73678
4.73679
4.73682
4.73687
4.73693
4.73698
4.73703
4.73709
4.73713
4.73715
4.73717
4.73719
4.73721
4.73722
4.73724
4.73725
4.73722
4.73717
4.73714
4.73714
4.73715
4.73717
4.73721
4.73727
4.73733
4.73737
4.7374
4.73744
4.73751
4.7376
4.73764
4.73768
4.73771
4.73774
4.73773
4.73773
4.73774
4.73776
4.73775
4.73775
4.73774
4.73772
4.73771
4.73772
4.73777
4.73784
4.73789
4.73788
4.7379
4.73792
4.73797
4.73796
4.73792
4.7379
4.73792
4.7379
4.73787
4.73784
4.73783
4.7378
4.73768
4.73753
4.73737
4.73712
4.73664
4.73596
4.73495
4.7334
4.73094
4.72719
4.7216
4.71341
4.7015
4.68444
4.66061
4.62772
4.58342
4.52459
4.44858
4.35232
4.23372
4.09143
3.92604
3.74079
3.5416
3.33735
3.14
2.96332
2.82362
2.73349
2.68863
2.67627
2.6754
2.67569
2.67634
2.67711
2.6779
2.67877
2.67969
2.68061
2.68138
2.68185
2.68211
2.68242
2.68279
2.68305
2.68301
2.68284
2.68255
2.68211
2.68156
2.68103
2.68079
2.68076
2.68082
2.68101
2.6813
2.68158
2.68175
2.6818
2.68181
2.68172
2.68154
2.68141
2.68139
2.68139
2.68143
2.68154
2.68166
2.68169
2.68166
2.68161
2.6815
2.68135
2.68123
2.68122
2.68124
2.68131
2.68142
2.68157
2.68167
2.6817
2.6817
2.68166
2.68156
2.68144
2.68135
2.68131
2.6813
2.68131
2.68134
2.68138
2.6814
2.68138
2.68134
2.68131
2.68127
2.68124
2.68122
2.68123
2.68127
2.68135
2.68144
2.6815
2.68158
2.68167
2.68178
2.68192
2.68216
2.68247
2.68284
2.68324
2.68361
2.68389
2.68398
2.68398
2.68394
4.32005
4.32005
4.32005
4.32005
4.32005
4.32005
4.32005
4.32005
4.32005
4.32005
4.32005
4.32005
4.32005
4.32005
4.32005
4.32005
4.32005
4.32005
4.32005
4.32005
4.32005
4.32005
4.32005
4.32005
4.32007
4.3205
4.33171
4.48301
4.71651
4.73847
4.73899
4.73936
4.73994
4.74057
4.74095
4.74109
4.741
4.74059
4.74019
4.74006
4.73999
4.74007
4.74033
4.74078
4.74126
4.74148
4.74149
4.74129
4.7409
4.74025
4.73971
4.73957
4.73957
4.73972
4.74012
4.74061
4.74073
4.74064
4.74046
4.74019
4.73975
4.73934
4.73922
4.73925
4.73934
4.73957
4.73994
4.74022
4.74037
4.7404
4.74036
4.74018
4.73996
4.73991
4.73996
4.74004
4.7402
4.74047
4.74062
4.74065
4.74063
4.74052
4.7403
4.74002
4.73985
4.73979
4.73979
4.73986
4.74
4.74013
4.74021
4.7402
4.74014
4.74002
4.7399
4.73984
4.73983
4.73988
4.73999
4.74011
4.74019
4.7402
4.74017
4.74009
4.73998
4.73988
4.7398
4.73976
4.73981
4.73988
4.73994
4.73998
4.74001
4.74002
4.74
4.73999
4.74002
4.74007
4.74012
4.7402
4.7403
4.74036
4.74035
4.74031
4.74027
4.7402
4.74011
4.74005
4.74002
4.73998
4.73997
4.73998
4.73999
4.73999
4.73998
4.73999
4.74001
4.74001
4.74003
4.74005
4.74006
4.74007
4.7401
4.74013
4.74015
4.74016
4.74016
4.74014
4.7401
4.74005
4.74001
4.73997
4.73996
4.73996
4.73997
4.74
4.74001
4.74001
4.74001
4.74001
4.74003
4.74006
4.7401
4.74023
4.74061
4.74081
4.74054
4.73916
4.73563
4.72965
4.72191
4.71344
4.70493
4.69733
4.69078
4.6853
4.68144
4.68041
4.68071
4.68155
4.68261
4.6835
4.68409
4.6839
4.68343
4.68277
4.68264
4.68306
4.68346
4.68364
4.68408
4.68532
4.68806
4.69268
4.69854
4.70406
4.70837
4.71165
4.71435
4.71671
4.71884
4.72078
4.72256
4.72419
4.72566
4.72697
4.7281
4.72906
4.72984
4.73044
4.7309
4.73124
4.73149
4.73166
4.73181
4.73194
4.73204
4.73214
4.73228
4.73246
4.73265
4.73285
4.73305
4.73328
4.73352
4.73376
4.73398
4.7342
4.73438
4.7345
4.73457
4.73461
4.73465
4.73466
4.73466
4.73465
4.73465
4.73463
4.73459
4.73457
4.73458
4.73462
4.73467
4.73473
4.73481
4.73491
4.735
4.73511
4.73524
4.73535
4.73542
4.73546
4.7355
4.73554
4.73555
4.73554
4.73555
4.73556
4.73556
4.73555
4.73554
4.73553
4.73551
4.7355
4.73553
4.73559
4.73565
4.73572
4.7358
4.73591
4.73601
4.7361
4.73619
4.73628
4.73635
4.7364
4.73645
4.73651
4.73656
4.73658
4.73659
4.7366
4.73664
4.73667
4.73669
4.73672
4.73675
4.73678
4.73679
4.73682
4.73687
4.73693
4.73698
4.73703
4.73709
4.73713
4.73715
4.73717
4.73719
4.73721
4.73722
4.73724
4.73725
4.73722
4.73717
4.73714
4.73714
4.73715
4.73716
4.73721
4.73727
4.73733
4.73737
4.7374
4.73744
4.73751
4.73759
4.73764
4.73767
4.73771
4.73774
4.73773
4.73773
4.73774
4.73776
4.73774
4.73775
4.73774
4.73772
4.7377
4.73772
4.73777
4.73785
4.73789
4.73788
4.7379
4.73792
4.73796
4.73796
4.73792
4.73791
4.73793
4.73791
4.73787
4.73784
4.73782
4.7378
4.73768
4.73753
4.73737
4.73712
4.73663
4.73595
4.73494
4.7334
4.73094
4.7272
4.72162
4.71345
4.70156
4.68451
4.66068
4.62787
4.58356
4.52483
4.4488
4.35252
4.23401
4.09165
3.92615
3.74083
3.54161
3.3371
3.13975
2.96314
2.82356
2.73355
2.68867
2.67628
2.67539
2.67568
2.67633
2.6771
2.6779
2.67876
2.67969
2.68061
2.68138
2.68185
2.68211
2.68242
2.6828
2.68305
2.68301
2.68285
2.68255
2.68211
2.68156
2.68103
2.68079
2.68076
2.68082
2.68101
2.6813
2.68158
2.68175
2.6818
2.68181
2.68172
2.68154
2.68141
2.68139
2.68139
2.68143
2.68154
2.68166
2.68169
2.68166
2.68161
2.6815
2.68135
2.68123
2.68122
2.68124
2.68131
2.68142
2.68157
2.68167
2.6817
2.6817
2.68166
2.68156
2.68144
2.68135
2.68131
2.6813
2.68131
2.68134
2.68138
2.68139
2.68138
2.68134
2.68131
2.68127
2.68124
2.68122
2.68122
2.68127