/*--------------------------------*- C++ -*----------------------------------*\
| =========                 |                                                 |
| \\      /  F ield         | OpenFOAM: The Open Source CFD Toolbox           |
|  \\    /   O peration     | Version:  2406                                  |
|   \\  /    A nd           | Website:  www.openfoam.com                      |
|    \\/     M anipulation  |                                                 |
\*---------------------------------------------------------------------------*/
FoamFile
{
    version     2.0;
    format      ascii;
    arch        "LSB;label=32;scalar=64";
    class       volScalarField;
    location    "0.075";
    object      Ma;
}
// * * * * * * * * * * * * * * * * * * * * * * * * * * * * * * * * * * * * * //

dimensions      [0 0 0 0 0 0 0];

internalField   nonuniform List<scalar> 
13948
(
0.137678
0.0971685
0.0616986
0.0382858
0.0249238
0.0175368
0.0130211
0.0100985
0.00810107
0.00649389
0.00487581
0.00302933
0.00104556
0.000802593
0.00148466
0.00150367
0.00130697
0.00094515
0.000707845
0.000687376
0.000864448
0.00135061
0.00198796
0.0022441
0.00212119
0.00180192
0.00116981
0.00046575
8.22439e-05
4.29115e-06
4.35325e-08
5.91363e-11
1.14408e-13
1.11183e-13
1.21799e-13
7.58307e-14
8.23685e-14
1.07271e-13
9.12006e-14
8.23053e-14
1.0589e-13
9.62443e-14
9.35232e-14
1.05164e-13
1.20484e-13
1.1932e-13
9.34947e-14
1.28148e-13
1.45179e-13
1.37851e-13
1.27543e-13
1.45576e-13
1.57376e-13
1.48941e-13
1.47315e-13
1.26137e-13
8.4594e-14
7.45972e-14
5.89491e-14
6.65649e-14
6.86175e-14
5.78593e-14
5.38123e-14
8.78642e-14
7.81475e-14
5.64138e-14
5.87251e-14
4.01452e-14
5.86475e-14
6.61874e-14
4.75693e-14
7.28005e-14
9.11606e-14
6.34832e-14
5.01272e-14
7.41662e-14
1.07095e-13
1.1883e-13
1.14336e-13
1.30099e-13
1.50408e-13
1.27522e-13
1.56343e-13
1.7237e-13
1.6349e-13
1.36036e-13
7.44252e-14
6.18082e-14
3.66355e-14
5.93226e-14
5.89229e-14
7.84714e-14
6.88798e-14
8.17163e-14
1.27691e-13
1.68999e-13
2.01596e-13
2.21706e-13
2.36445e-13
0.108861
0.117449
0.0929672
0.0607054
0.0382545
0.0250757
0.0176842
0.0131623
0.0102291
0.00820174
0.00654388
0.00486991
0.00297765
0.000959173
0.000798509
0.00148455
0.0015002
0.00129984
0.000931751
0.000688447
0.000665236
0.000854391
0.00136352
0.0020013
0.0022515
0.00212457
0.00179885
0.00116082
0.00045848
8.01536e-05
4.13231e-06
4.13605e-08
5.54041e-11
1.16404e-13
1.0378e-13
1.07786e-13
7.53899e-14
8.79389e-14
1.06599e-13
9.18085e-14
8.29586e-14
1.13213e-13
1.02884e-13
9.53246e-14
1.089e-13
1.1682e-13
1.12796e-13
8.90062e-14
1.15627e-13
1.28949e-13
1.24355e-13
1.10753e-13
1.45671e-13
1.56474e-13
1.49135e-13
1.49146e-13
1.25976e-13
8.54274e-14
7.65891e-14
5.51979e-14
6.20119e-14
7.07904e-14
4.99882e-14
4.91147e-14
6.77787e-14
6.92652e-14
6.02876e-14
5.32659e-14
3.00855e-14
4.73629e-14
5.32044e-14
3.97917e-14
6.06312e-14
6.48132e-14
3.75341e-14
4.07121e-14
5.9901e-14
1.04753e-13
1.19506e-13
1.07883e-13
1.28708e-13
1.58819e-13
1.28808e-13
1.59568e-13
1.67633e-13
1.63338e-13
1.18842e-13
7.63714e-14
5.72896e-14
3.15654e-14
4.59106e-14
5.08445e-14
6.6698e-14
6.43061e-14
8.64121e-14
1.27174e-13
1.593e-13
1.86558e-13
2.21763e-13
2.36093e-13
0.181267
0.182238
0.176249
0.162475
0.143295
0.119495
0.0942756
0.0698137
0.0612649
0.064061
0.0794292
0.0760686
0.0556457
0.0366827
0.0242697
0.017089
0.0126917
0.00984427
0.00785257
0.00621211
0.00456736
0.00273012
0.000790873
0.000852664
0.00149325
0.00149771
0.0012952
0.000935551
0.000705575
0.000687064
0.000881633
0.00138637
0.00200348
0.00222676
0.00209206
0.00176016
0.00112614
0.000439636
7.56105e-05
3.81411e-06
3.71761e-08
4.83394e-11
9.66294e-14
9.24736e-14
1.05147e-13
8.5032e-14
8.85236e-14
9.95105e-14
8.61503e-14
8.90214e-14
1.17537e-13
1.18376e-13
1.1349e-13
1.1308e-13
1.14999e-13
1.08268e-13
1.02197e-13
1.16563e-13
1.20847e-13
1.17406e-13
1.18288e-13
1.53835e-13
1.57911e-13
1.44703e-13
1.37258e-13
1.14379e-13
8.55898e-14
7.36853e-14
5.52681e-14
6.74836e-14
6.33509e-14
5.68087e-14
4.78552e-14
4.38479e-14
5.25872e-14
7.03735e-14
4.92759e-14
3.05385e-14
2.82786e-14
3.88438e-14
2.73303e-14
3.61819e-14
3.40272e-14
3.21203e-14
3.2078e-14
5.36238e-14
8.89431e-14
1.05041e-13
9.24162e-14
1.09341e-13
1.27784e-13
1.19867e-13
1.42604e-13
1.40326e-13
1.39184e-13
1.00535e-13
6.36289e-14
3.90269e-14
2.448e-14
2.8701e-14
3.96418e-14
5.49233e-14
6.44209e-14
8.24683e-14
1.18935e-13
1.55866e-13
1.78599e-13
2.10458e-13
2.35084e-13
0.196103
0.232196
0.281749
0.354986
0.457901
0.576249
0.689661
0.800189
0.703118
0.46171
0.308379
0.355871
0.361071
0.330557
0.297566
0.257578
0.217542
0.182298
0.153305
0.133019
0.117716
0.10568
0.0959153
0.0842133
0.0696142
0.0543314
0.0410773
0.0324994
0.0289714
0.0317121
0.0337936
0.0384923
0.0432492
0.0496107
0.053236
0.0532062
0.0513214
0.0487201
0.0441569
0.0428778
0.0430102
0.0511015
0.0556038
0.0641558
0.0607155
0.0474905
0.0335253
0.022868
0.0161843
0.0120011
0.0093098
0.00741731
0.0058427
0.00425291
0.00247738
0.000613144
0.000915268
0.00150229
0.00149334
0.0012903
0.000934025
0.00071739
0.000699832
0.000897762
0.00140571
0.00199989
0.00219841
0.00205937
0.00172164
0.00108928
0.00041796
7.00793e-05
3.41641e-06
3.19345e-08
3.95961e-11
7.54307e-14
7.67008e-14
9.26795e-14
7.62065e-14
7.41885e-14
8.85412e-14
8.39801e-14
9.17624e-14
1.04585e-13
1.07679e-13
1.15632e-13
1.00682e-13
1.00149e-13
9.68159e-14
9.73815e-14
1.19846e-13
1.15006e-13
1.2355e-13
1.28724e-13
1.46791e-13
1.44286e-13
1.41621e-13
1.22703e-13
9.66333e-14
8.11015e-14
6.73638e-14
5.87828e-14
6.31426e-14
4.89452e-14
6.08375e-14
5.02421e-14
3.96083e-14
3.78101e-14
5.12641e-14
3.63557e-14
1.78575e-14
2.16156e-14
3.34896e-14
3.033e-14
3.71408e-14
4.38506e-14
3.72188e-14
3.94144e-14
4.63992e-14
6.27298e-14
8.44472e-14
7.66828e-14
8.00819e-14
8.89358e-14
9.10466e-14
1.04655e-13
1.05128e-13
1.10507e-13
8.19208e-14
4.91009e-14
2.18647e-14
2.11864e-14
2.36275e-14
4.47817e-14
6.24725e-14
6.84178e-14
7.49822e-14
1.03345e-13
1.48362e-13
1.77101e-13
1.94077e-13
2.20351e-13
0.135749
0.156378
0.182018
0.214377
0.257301
0.315943
0.39236
0.477369
0.56336
0.620471
0.538888
0.263318
0.213388
0.220874
0.230352
0.229878
0.207613
0.178836
0.149659
0.123154
0.101204
0.0842638
0.0726172
0.0625811
0.0566305
0.0519357
0.0465254
0.0411028
0.0358168
0.0309349
0.0265535
0.022809
0.0184918
0.0146867
0.0138757
0.0144375
0.0171419
0.0210353
0.025577
0.0300315
0.0347249
0.0394233
0.0428871
0.0465671
0.0492204
0.0521408
0.0477014
0.0389954
0.0293287
0.0208872
0.0150189
0.0111729
0.00868994
0.00692726
0.00544
0.00391867
0.00221309
0.000432419
0.000984236
0.0015099
0.00148583
0.00128033
0.000926322
0.000724514
0.000710398
0.000914905
0.00142546
0.0019935
0.00216524
0.00202282
0.00167867
0.00104765
0.000392993
6.36709e-05
2.9625e-06
2.61435e-08
3.03499e-11
6.06354e-14
6.394e-14
6.6618e-14
5.97375e-14
5.17446e-14
7.16232e-14
7.37684e-14
7.89341e-14
8.28911e-14
9.23762e-14
9.51735e-14
8.02642e-14
7.05354e-14
7.11709e-14
7.52626e-14
9.46479e-14
1.02199e-13
1.23223e-13
1.28871e-13
1.19518e-13
1.17199e-13
1.20845e-13
9.82588e-14
8.15962e-14
6.68149e-14
4.97453e-14
4.86595e-14
4.56253e-14
4.70468e-14
5.00286e-14
4.48592e-14
3.32936e-14
3.0548e-14
1.85331e-14
2.3581e-14
1.55944e-14
2.02238e-14
3.90615e-14
5.60368e-14
6.51988e-14
7.41651e-14
5.04944e-14
4.39737e-14
5.03635e-14
4.8078e-14
5.4849e-14
5.9786e-14
5.81627e-14
7.23997e-14
7.39067e-14
7.15473e-14
7.75315e-14
7.22259e-14
6.10948e-14
2.70167e-14
1.23836e-14
2.12701e-14
3.27174e-14
5.63925e-14
7.10302e-14
6.37554e-14
7.2617e-14
9.06314e-14
1.2275e-13
1.53114e-13
1.70298e-13
1.9059e-13
0.111366
0.125938
0.143996
0.166325
0.193928
0.22862
0.273589
0.326718
0.382178
0.438828
0.48747
0.476309
0.391099
0.33411
0.284077
0.217115
0.18699
0.160448
0.132413
0.106723
0.0853754
0.0680059
0.0551149
0.0472009
0.0402305
0.0361479
0.0342828
0.0334706
0.0332815
0.0330171
0.0321979
0.0312212
0.0307327
0.0298944
0.0288214
0.0274441
0.0263417
0.0263678
0.0276763
0.0299622
0.032398
0.0348979
0.0371664
0.0388919
0.0407577
0.0422817
0.0426021
0.0386782
0.0324745
0.0254611
0.0188777
0.0138699
0.0104166
0.00814256
0.00649503
0.00507631
0.00360177
0.00194811
0.000244469
0.00105734
0.00151487
0.00147306
0.00126318
0.000912768
0.000726657
0.000720688
0.000936819
0.00145449
0.00199733
0.00213907
0.00199241
0.00163556
0.00100196
0.000364761
5.65083e-05
2.47486e-06
2.02745e-08
2.16044e-11
4.59087e-14
5.31628e-14
6.04677e-14
5.08023e-14
4.41623e-14
5.77891e-14
6.30811e-14
6.5502e-14
7.60776e-14
8.05289e-14
7.28644e-14
6.6706e-14
5.59717e-14
6.0327e-14
6.36054e-14
7.17548e-14
9.85849e-14
1.05907e-13
1.06378e-13
9.25412e-14
9.31747e-14
9.01698e-14
7.30395e-14
6.61276e-14
5.4425e-14
3.95679e-14
3.54868e-14
4.14051e-14
4.34611e-14
4.3519e-14
4.51367e-14
2.67205e-14
3.62389e-14
4.31289e-14
3.61181e-14
3.44826e-14
4.15294e-14
4.96059e-14
6.05816e-14
7.87721e-14
9.58654e-14
6.00213e-14
4.28689e-14
5.2015e-14
5.81665e-14
5.00082e-14
5.07864e-14
4.63752e-14
7.42652e-14
7.04098e-14
6.29124e-14
6.81302e-14
6.09085e-14
4.2439e-14
1.82959e-14
1.02003e-14
2.57604e-14
4.62603e-14
5.39739e-14
5.74635e-14
6.22786e-14
7.37801e-14
9.04419e-14
1.10232e-13
1.18174e-13
1.43453e-13
1.65132e-13
0.103215
0.115738
0.131036
0.14965
0.171996
0.198902
0.232144
0.267835
0.302659
0.334321
0.360006
0.367562
0.339947
0.297411
0.266554
0.201614
0.157768
0.127792
0.101309
0.0795161
0.0615852
0.047933
0.0380119
0.0327169
0.0284313
0.0250915
0.0241204
0.0245763
0.0259356
0.0275089
0.028808
0.0294985
0.0301558
0.0306668
0.0306669
0.0300746
0.0293229
0.0288433
0.0293382
0.0302217
0.0309845
0.0316818
0.0325021
0.0334301
0.0344408
0.0354915
0.0352958
0.0320815
0.0272665
0.0219017
0.0167958
0.0126454
0.00963282
0.00758089
0.0060463
0.00469228
0.00326249
0.00166245
4.86969e-05
0.00113478
0.00151941
0.00145739
0.00124096
0.000896415
0.000730179
0.000735552
0.000967206
0.00149248
0.00200327
0.00211083
0.00195977
0.00158682
0.000950011
0.000333099
4.87834e-05
1.98069e-06
1.47861e-08
1.41528e-11
5.92112e-14
5.72866e-14
5.71925e-14
6.09358e-14
6.58505e-14
5.91087e-14
6.8312e-14
7.01728e-14
7.85538e-14
8.32383e-14
7.40095e-14
7.32779e-14
6.90649e-14
7.24618e-14
6.76516e-14
6.89783e-14
8.36157e-14
9.91667e-14
9.66462e-14
7.56118e-14
7.78944e-14
7.30437e-14
7.30767e-14
6.49816e-14
5.78732e-14
4.47143e-14
3.5706e-14
4.09102e-14
4.60691e-14
5.04352e-14
4.40315e-14
3.9175e-14
5.77341e-14
5.75788e-14
5.95171e-14
5.90149e-14
6.39449e-14
7.21398e-14
7.61079e-14
8.56975e-14
9.71942e-14
5.72503e-14
5.03538e-14
5.25376e-14
5.70986e-14
6.30809e-14
6.03602e-14
5.6582e-14
7.5814e-14
7.78873e-14
6.70716e-14
7.39769e-14
6.09381e-14
4.6679e-14
2.87125e-14
2.49115e-14
2.65541e-14
4.2925e-14
5.01206e-14
5.00364e-14
5.74806e-14
6.70116e-14
9.89134e-14
1.01645e-13
9.36622e-14
1.15836e-13
1.30396e-13
0.0948755
0.105388
0.117904
0.132725
0.149948
0.170619
0.193835
0.217108
0.238264
0.25495
0.26709
0.275288
0.273103
0.242803
0.21486
0.166523
0.125154
0.0984446
0.0766931
0.059163
0.0452542
0.0349054
0.0277137
0.0235831
0.021431
0.0188317
0.0179837
0.0187053
0.0200085
0.0217309
0.0235345
0.0251261
0.0264868
0.0278859
0.0290811
0.0294792
0.0291677
0.0285434
0.0284804
0.0285663
0.0283894
0.028311
0.0283951
0.0286954
0.0292701
0.0299386
0.029655
0.0271088
0.0232874
0.0190517
0.0149099
0.0114515
0.00886328
0.00702801
0.00559717
0.00429502
0.00290145
0.00135471
0.000176725
0.00121575
0.00152396
0.0014413
0.00121813
0.000880968
0.000736108
0.000755759
0.00100635
0.00153888
0.00201392
0.00208492
0.00192548
0.0015324
0.000891497
0.000298375
4.07752e-05
1.50868e-06
1.00528e-08
8.45381e-12
8.39527e-14
7.59658e-14
5.59307e-14
7.52701e-14
7.27842e-14
6.15362e-14
7.53389e-14
8.42131e-14
8.5889e-14
9.21531e-14
8.02005e-14
8.27355e-14
7.91736e-14
7.27501e-14
6.73485e-14
7.049e-14
8.50039e-14
8.69463e-14
8.79506e-14
6.09992e-14
7.16525e-14
7.22749e-14
8.16261e-14
7.16151e-14
6.12055e-14
5.08203e-14
4.92818e-14
5.19439e-14
4.91338e-14
4.88819e-14
4.47099e-14
4.98532e-14
8.84093e-14
8.02264e-14
7.171e-14
7.82892e-14
8.21025e-14
8.40912e-14
8.86891e-14
9.67127e-14
9.70654e-14
6.79454e-14
5.83372e-14
6.30853e-14
6.17448e-14
7.07341e-14
6.50706e-14
8.01381e-14
8.08556e-14
8.76745e-14
6.57029e-14
7.66575e-14
6.48073e-14
5.96288e-14
4.86986e-14
5.13628e-14
3.32183e-14
4.65526e-14
4.0759e-14
4.70352e-14
5.15586e-14
7.34674e-14
9.95965e-14
9.72541e-14
8.95737e-14
1.06215e-13
1.09002e-13
0.0865205
0.0951427
0.105008
0.116272
0.129451
0.144323
0.160082
0.174966
0.187333
0.196129
0.200327
0.200717
0.197833
0.181836
0.160662
0.129091
0.0950899
0.0723869
0.054948
0.0416738
0.0320334
0.0248289
0.0197732
0.01663
0.0156014
0.01433
0.0137756
0.0146013
0.0157285
0.0172319
0.0188866
0.020607
0.0222064
0.0237081
0.0252682
0.0264721
0.0269778
0.0267027
0.0262786
0.0259483
0.025569
0.025128
0.0249233
0.0250076
0.0254022
0.0257699
0.0253136
0.0229932
0.0197819
0.0163482
0.0130408
0.0102256
0.00805042
0.006432
0.00511032
0.00386208
0.00250894
0.00102459
0.000403331
0.00129791
0.00152962
0.00142577
0.00119316
0.000867367
0.000744352
0.000781129
0.00105346
0.00159112
0.00202309
0.00205692
0.00188601
0.0014705
0.000826012
0.000261166
3.28075e-05
1.08483e-06
6.30329e-09
4.55509e-12
9.64034e-14
8.00083e-14
6.08222e-14
6.37894e-14
6.19828e-14
6.18645e-14
8.20979e-14
8.11115e-14
8.24864e-14
8.47071e-14
8.30473e-14
7.66973e-14
7.09669e-14
6.25846e-14
6.32968e-14
6.19884e-14
8.076e-14
7.98695e-14
7.22515e-14
5.52908e-14
6.86145e-14
7.73397e-14
7.57393e-14
6.80776e-14
5.03536e-14
6.46601e-14
6.85688e-14
5.04127e-14
4.8052e-14
4.61432e-14
3.89652e-14
5.21199e-14
8.33019e-14
8.97403e-14
7.81868e-14
8.39514e-14
9.11443e-14
9.82659e-14
9.56821e-14
1.04011e-13
1.09067e-13
8.47912e-14
7.1538e-14
6.8929e-14
6.75401e-14
7.60807e-14
7.24377e-14
8.93799e-14
7.80983e-14
8.62381e-14
7.17473e-14
7.43504e-14
7.61075e-14
6.38337e-14
6.0416e-14
5.5635e-14
2.89835e-14
4.61844e-14
4.17279e-14
4.96096e-14
4.86106e-14
7.36777e-14
9.94535e-14
9.29734e-14
8.07145e-14
8.25053e-14
9.43445e-14
0.0783174
0.0852332
0.092713
0.101267
0.110608
0.120867
0.131326
0.140702
0.147691
0.151978
0.152645
0.14966
0.143276
0.132625
0.116471
0.0977927
0.072625
0.0539655
0.0400521
0.0290447
0.0209178
0.0154875
0.0121261
0.0105595
0.0105523
0.010945
0.0110443
0.0120925
0.0131551
0.0143664
0.015724
0.0172346
0.018693
0.0200463
0.0212778
0.0224207
0.0231825
0.0232765
0.0229606
0.0226335
0.0224013
0.0222156
0.0221237
0.0221639
0.0223636
0.0223915
0.0216045
0.0194892
0.0168489
0.0140693
0.0113845
0.00906615
0.0072408
0.00582006
0.00460132
0.00340204
0.00209056
0.000681509
0.000635612
0.00137625
0.00153362
0.00140903
0.00116381
0.000855559
0.000753754
0.000811438
0.00110911
0.00164828
0.0020318
0.00202868
0.00184089
0.00140029
0.000753462
0.000222288
2.52247e-05
7.28952e-07
3.59698e-09
2.19432e-12
8.59678e-14
7.6963e-14
7.76931e-14
6.07844e-14
6.68684e-14
7.11981e-14
8.29547e-14
6.73522e-14
7.00332e-14
7.58001e-14
8.94306e-14
6.78712e-14
7.38004e-14
6.22529e-14
6.8386e-14
6.92255e-14
6.79105e-14
6.58332e-14
5.75421e-14
6.33932e-14
5.53804e-14
6.27917e-14
5.14834e-14
5.57398e-14
5.48278e-14
8.04893e-14
7.61922e-14
4.72183e-14
3.62384e-14
3.85074e-14
3.19527e-14
5.89244e-14
9.29284e-14
8.89734e-14
7.87288e-14
8.02487e-14
9.13605e-14
9.12597e-14
8.64194e-14
9.63233e-14
9.76231e-14
7.47796e-14
6.83033e-14
6.32983e-14
6.26034e-14
6.22929e-14
7.05796e-14
7.68703e-14
6.59513e-14
7.1252e-14
7.32533e-14
8.5099e-14
7.50673e-14
5.96078e-14
5.45464e-14
5.22057e-14
3.72681e-14
5.22371e-14
4.26613e-14
5.54188e-14
6.02098e-14
7.73471e-14
8.85192e-14
7.95689e-14
6.91502e-14
7.79252e-14
8.10993e-14
0.070404
0.0758228
0.0816211
0.0876722
0.0938893
0.10057
0.107391
0.113228
0.117026
0.118667
0.117866
0.114406
0.108015
0.0990039
0.0865885
0.0745012
0.0571883
0.0421751
0.0308898
0.0211316
0.0133596
0.00790293
0.00520167
0.00552513
0.0073109
0.00904626
0.00984268
0.0108474
0.0117919
0.012686
0.0136686
0.0147998
0.0159462
0.0170137
0.0179996
0.0187849
0.0194726
0.0197885
0.0197262
0.0195343
0.0194761
0.019426
0.0193707
0.0193456
0.0193818
0.0192035
0.0183319
0.0164297
0.0142069
0.0119376
0.00977853
0.00791473
0.00641447
0.00518148
0.00406206
0.00291243
0.00164944
0.000352379
0.000863532
0.00144601
0.00153385
0.0013894
0.0011272
0.000846637
0.000763337
0.000848106
0.00117467
0.00170864
0.00203698
0.00199756
0.00178891
0.00132029
0.000673936
0.000182821
1.83623e-05
4.5195e-07
1.83772e-09
9.28222e-13
6.30183e-14
7.97925e-14
8.07893e-14
7.00487e-14
7.09076e-14
8.15679e-14
9.26835e-14
7.51808e-14
7.58749e-14
7.97768e-14
8.72949e-14
6.63745e-14
6.27999e-14
5.94586e-14
7.10055e-14
6.79426e-14
6.00599e-14
5.30724e-14
5.27915e-14
6.28724e-14
4.08942e-14
2.84448e-14
2.78809e-14
3.70383e-14
6.10266e-14
7.76502e-14
7.09502e-14
4.71272e-14
3.99484e-14
3.58317e-14
2.97672e-14
7.06425e-14
9.42148e-14
9.17341e-14
8.78302e-14
8.57655e-14
9.27285e-14
8.95721e-14
8.41592e-14
7.93598e-14
8.95691e-14
6.34603e-14
4.63613e-14
4.32835e-14
5.07907e-14
4.72266e-14
6.08606e-14
5.17414e-14
4.47269e-14
4.71701e-14
6.24196e-14
7.97173e-14
6.98161e-14
7.56721e-14
7.92129e-14
7.51444e-14
7.05306e-14
6.76875e-14
4.8025e-14
5.74653e-14
7.33463e-14
8.21733e-14
7.24448e-14
6.94974e-14
7.00198e-14
7.16157e-14
7.07612e-14
0.0629014
0.0671685
0.0716271
0.0757275
0.0795014
0.08352
0.087702
0.0912452
0.0932909
0.0936142
0.0922142
0.0890648
0.0838805
0.0766507
0.0673369
0.0580786
0.046431
0.0349319
0.0259781
0.0178639
0.010759
0.0049313
0.000648451
0.00358673
0.00646447
0.00858152
0.00971289
0.0104076
0.0110423
0.0116262
0.0122324
0.0129388
0.0137152
0.0144661
0.0152012
0.015814
0.0162662
0.0166158
0.016781
0.0166894
0.0166553
0.0167221
0.0167057
0.0166363
0.0165616
0.0162624
0.0153572
0.0137128
0.0119006
0.0100675
0.00834248
0.00684962
0.00561394
0.00453833
0.00350269
0.00239989
0.00119514
0.000236
0.00107613
0.00150428
0.00152777
0.00136586
0.00108305
0.000839288
0.000777696
0.000892217
0.00125172
0.00177154
0.00203662
0.0019635
0.00172854
0.00122876
0.000588018
0.000144115
1.25067e-05
2.5446e-07
8.23765e-10
3.51061e-13
6.43389e-14
7.42464e-14
7.98773e-14
7.36368e-14
7.55624e-14
8.83999e-14
8.37182e-14
7.81241e-14
7.88127e-14
6.78282e-14
6.94584e-14
7.2171e-14
7.2145e-14
7.29039e-14
7.1296e-14
6.27264e-14
5.74542e-14
5.28107e-14
5.70651e-14
7.21988e-14
5.2456e-14
1.75043e-14
2.5494e-14
3.99085e-14
5.93456e-14
6.45432e-14
6.4372e-14
4.61422e-14
3.19558e-14
2.56484e-14
2.46034e-14
5.24947e-14
7.77581e-14
9.09985e-14
9.71896e-14
9.43905e-14
1.04979e-13
9.65192e-14
8.61019e-14
6.59086e-14
5.91769e-14
5.17526e-14
3.57137e-14
2.88002e-14
3.82753e-14
4.29628e-14
5.71546e-14
4.03391e-14
3.85656e-14
3.48476e-14
5.95886e-14
7.9363e-14
8.13397e-14
9.18647e-14
1.08492e-13
1.03199e-13
8.92397e-14
8.21932e-14
6.22871e-14
6.38779e-14
7.54659e-14
7.45026e-14
6.73884e-14
7.05674e-14
6.99931e-14
6.99391e-14
7.59542e-14
0.0559269
0.0593172
0.0626824
0.0653883
0.0674903
0.0695791
0.0717575
0.0736358
0.0746665
0.074468
0.0730749
0.0704375
0.0664051
0.0609314
0.0541717
0.0466443
0.0387178
0.0300629
0.0230496
0.016842
0.0112635
0.00687577
0.00444975
0.00499811
0.00676268
0.00834712
0.00954291
0.0100927
0.0104916
0.01085
0.0111289
0.0114525
0.0118593
0.0122801
0.0127383
0.0131675
0.013524
0.013787
0.0140441
0.0140985
0.014001
0.0140041
0.0139767
0.0138903
0.0137707
0.0134621
0.0126864
0.0113349
0.00984421
0.00835358
0.00699722
0.00582938
0.00482383
0.00388458
0.00292101
0.00186747
0.000747728
0.00050728
0.00126152
0.00155023
0.00151665
0.00133408
0.00103402
0.000833775
0.000798808
0.000945969
0.00134176
0.00183406
0.00202781
0.00192543
0.00165691
0.0011239
0.000497042
0.000107738
7.85051e-06
1.27525e-07
3.15924e-10
1.42967e-13
5.45142e-14
5.61853e-14
7.19152e-14
6.77367e-14
6.98829e-14
7.5286e-14
6.23066e-14
6.58472e-14
6.64728e-14
5.60383e-14
5.23672e-14
7.60098e-14
7.88197e-14
8.02735e-14
6.69194e-14
7.02722e-14
7.8606e-14
7.46832e-14
7.12871e-14
6.58099e-14
5.80487e-14
4.32558e-14
3.22879e-14
3.8031e-14
3.26781e-14
3.61584e-14
4.0751e-14
2.17481e-14
3.47399e-14
2.70222e-14
2.89959e-14
3.93335e-14
4.9142e-14
7.50192e-14
9.50201e-14
9.69978e-14
1.12993e-13
1.14058e-13
9.24065e-14
6.5261e-14
4.79654e-14
4.35399e-14
3.21257e-14
2.88532e-14
2.90949e-14
4.07403e-14
5.38932e-14
5.57541e-14
4.37919e-14
3.96975e-14
6.30584e-14
8.31116e-14
9.32013e-14
9.01918e-14
1.16733e-13
1.08201e-13
8.61624e-14
8.31139e-14
7.28137e-14
7.20033e-14
7.09194e-14
6.77824e-14
6.93446e-14
7.70062e-14
7.40041e-14
7.29107e-14
7.96311e-14
0.0495612
0.0522631
0.0547455
0.0564983
0.0575741
0.058428
0.0591976
0.059757
0.059944
0.0594813
0.0582758
0.0562107
0.0531909
0.0491959
0.044271
0.0385463
0.0328623
0.0264383
0.0209629
0.0163147
0.0121284
0.00888554
0.00687959
0.00635848
0.00698594
0.00798407
0.00883557
0.0095154
0.00983316
0.0100599
0.010167
0.0102506
0.0103698
0.0104904
0.0106634
0.0108895
0.0111264
0.0113573
0.0115283
0.0117049
0.0116445
0.0115652
0.0114913
0.0113834
0.0112448
0.0109676
0.0103338
0.00921074
0.00798752
0.006819
0.00579798
0.00489974
0.00406897
0.00322867
0.00232175
0.0013272
0.000400147
0.000832257
0.00141351
0.00158073
0.00149835
0.0012903
0.000984715
0.000831159
0.000827032
0.00101329
0.00144519
0.0018926
0.0020087
0.00188304
0.00157004
0.00100449
0.000403332
7.53248e-05
4.45394e-06
5.54707e-08
1.00443e-10
7.35315e-14
4.702e-14
5.22484e-14
5.42425e-14
5.98333e-14
6.31904e-14
7.42611e-14
5.51782e-14
5.65368e-14
5.84238e-14
6.01461e-14
4.57077e-14
6.91715e-14
6.88515e-14
8.18126e-14
8.01971e-14
7.6225e-14
9.17307e-14
9.83767e-14
7.72424e-14
6.29822e-14
6.66288e-14
7.02543e-14
6.21102e-14
3.83422e-14
4.86219e-14
3.65503e-14
3.29004e-14
4.17313e-14
6.6195e-14
4.10816e-14
4.8521e-14
3.53428e-14
2.53031e-14
5.85299e-14
7.96777e-14
1.02372e-13
1.19943e-13
1.11862e-13
9.11098e-14
7.00539e-14
5.57615e-14
5.80532e-14
3.8076e-14
2.30247e-14
2.32931e-14
5.27e-14
7.22212e-14
7.08976e-14
4.17198e-14
3.54507e-14
6.36769e-14
9.73247e-14
1.06317e-13
1.00906e-13
1.07471e-13
1.06258e-13
8.1043e-14
7.59061e-14
7.51049e-14
8.93142e-14
8.30664e-14
6.3923e-14
6.75264e-14
8.23053e-14
6.62767e-14
7.15084e-14
6.56388e-14
0.043829
0.0459755
0.0478088
0.048907
0.0493388
0.049499
0.049486
0.0491915
0.0486312
0.0478441
0.0466921
0.0450005
0.0427487
0.0398564
0.0362979
0.0321261
0.0279586
0.0232791
0.0190834
0.0155686
0.012434
0.00987883
0.00818544
0.00726711
0.00710712
0.00748976
0.0081045
0.00861595
0.00898827
0.00919932
0.00925578
0.00923814
0.00919603
0.00912543
0.00908655
0.00911723
0.00920556
0.00931784
0.00942962
0.00949347
0.00951417
0.00941454
0.00929915
0.00915493
0.00900006
0.00874618
0.00821338
0.007297
0.00635257
0.00549225
0.00474552
0.00404257
0.00333136
0.00256261
0.00171161
0.000817048
0.000485253
0.00113212
0.00152887
0.00159565
0.00147009
0.00123159
0.00094037
0.000831789
0.000864005
0.00109911
0.00155904
0.00194221
0.00198051
0.00183171
0.00146355
0.000870719
0.000310315
4.83508e-05
2.22752e-06
2.02839e-08
2.54646e-11
6.90662e-14
6.43027e-14
6.18055e-14
6.50426e-14
7.22517e-14
8.01103e-14
9.2274e-14
8.50376e-14
7.78623e-14
7.76647e-14
7.21759e-14
7.05598e-14
8.74262e-14
8.33275e-14
9.43042e-14
9.09215e-14
9.15496e-14
8.26209e-14
8.55503e-14
8.2181e-14
7.45661e-14
8.33119e-14
8.5338e-14
7.83377e-14
6.72636e-14
7.13932e-14
6.57814e-14
5.16853e-14
6.46527e-14
8.14504e-14
5.0563e-14
5.02951e-14
4.11507e-14
4.08236e-14
4.55818e-14
8.54244e-14
1.09561e-13
1.33175e-13
1.10229e-13
9.01529e-14
7.66788e-14
6.05908e-14
6.38038e-14
5.04515e-14
2.91647e-14
1.68645e-14
4.88632e-14
7.01933e-14
6.12129e-14
5.66972e-14
4.44578e-14
6.18862e-14
9.66073e-14
1.12902e-13
1.24405e-13
1.16324e-13
1.09851e-13
7.84717e-14
7.88037e-14
8.49062e-14
8.28577e-14
8.4552e-14
7.3539e-14
7.07307e-14
8.18746e-14
7.14894e-14
6.24304e-14
5.46241e-14
0.0386236
0.0403852
0.0418242
0.0425365
0.0425114
0.0422188
0.041833
0.0411977
0.0402804
0.0391693
0.0378769
0.036367
0.0345752
0.0324003
0.0298059
0.0268088
0.0237015
0.0203768
0.0171984
0.0144994
0.0121612
0.0101968
0.00877142
0.00790368
0.00749588
0.00746038
0.00767544
0.00796837
0.00820334
0.00836044
0.00840487
0.00836521
0.00827593
0.00815686
0.00803833
0.00794591
0.00789426
0.00784984
0.00781854
0.00775357
0.00766716
0.00754525
0.00741047
0.00722945
0.00705498
0.00682302
0.00638349
0.00569375
0.00501896
0.00439977
0.00383658
0.00325209
0.00261293
0.00189926
0.00112693
0.000512684
0.000847883
0.00138082
0.00161087
0.00159453
0.00142954
0.00115384
0.000908908
0.000837316
0.000915914
0.00120656
0.00167643
0.00197663
0.00194779
0.00176145
0.00133478
0.000724262
0.000222543
2.78107e-05
9.50821e-07
5.9828e-09
4.9502e-12
8.18679e-14
7.46325e-14
7.54771e-14
7.38458e-14
9.18498e-14
1.02109e-13
1.02624e-13
9.28999e-14
9.5475e-14
8.82581e-14
7.68833e-14
9.14378e-14
9.25632e-14
8.62516e-14
9.36634e-14
9.19574e-14
8.83986e-14
6.69129e-14
6.26622e-14
6.85846e-14
7.8453e-14
7.09808e-14
6.86791e-14
4.94e-14
5.3807e-14
6.78764e-14
6.31829e-14
5.87446e-14
5.63845e-14
7.36169e-14
4.61177e-14
3.70097e-14
3.37635e-14
5.33237e-14
5.3309e-14
7.43569e-14
1.00944e-13
1.05327e-13
9.23296e-14
8.21615e-14
8.08738e-14
8.31767e-14
7.14729e-14
7.16325e-14
5.15834e-14
3.0464e-14
3.14262e-14
5.59458e-14
4.19019e-14
5.49328e-14
5.21581e-14
6.50039e-14
9.21345e-14
1.08764e-13
1.17499e-13
1.15402e-13
1.10992e-13
8.79798e-14
7.94152e-14
8.6188e-14
9.68662e-14
1.03753e-13
9.04021e-14
7.98762e-14
9.74402e-14
8.46698e-14
5.82523e-14
4.22552e-14
0.0337965
0.0353066
0.0365875
0.0372341
0.0369949
0.0363334
0.0356481
0.0348948
0.0339239
0.0327238
0.0314214
0.0300139
0.0284765
0.0267461
0.0247994
0.0226314
0.0202854
0.0179541
0.0155746
0.0134973
0.0117246
0.0102148
0.00903086
0.00821684
0.00773585
0.00750462
0.007475
0.00754025
0.00761634
0.00768438
0.00770334
0.00765917
0.00756547
0.00745234
0.00732719
0.00718382
0.00705136
0.00688845
0.00673178
0.00653963
0.00635602
0.00614817
0.00596273
0.00577537
0.0055867
0.00537334
0.00501236
0.00449007
0.00399111
0.00350689
0.00303456
0.0025086
0.00191903
0.00127949
0.000705455
0.000718478
0.0012107
0.00156679
0.00166394
0.00157559
0.00136596
0.00106579
0.000887388
0.000857833
0.000987848
0.00133911
0.00179054
0.00198889
0.00190623
0.00166841
0.0011799
0.000569204
0.000145373
1.38795e-05
3.32071e-07
1.35086e-09
7.33851e-13
6.04878e-14
6.22992e-14
6.6071e-14
7.3666e-14
9.16436e-14
9.50024e-14
8.61591e-14
6.05236e-14
7.20889e-14
6.90204e-14
7.29084e-14
7.62313e-14
6.26437e-14
6.97225e-14
7.0745e-14
7.48464e-14
6.32524e-14
4.44522e-14
3.60549e-14
4.24078e-14
5.57336e-14
5.09578e-14
5.4405e-14
3.74252e-14
3.18802e-14
4.29101e-14
4.90324e-14
6.04094e-14
5.10276e-14
6.01493e-14
3.65788e-14
3.74562e-14
4.87605e-14
4.82119e-14
5.64813e-14
7.16047e-14
8.08186e-14
6.96922e-14
8.10052e-14
7.9078e-14
8.46658e-14
9.49085e-14
8.9259e-14
8.55259e-14
7.57048e-14
5.14405e-14
3.79246e-14
4.15825e-14
2.30388e-14
3.50056e-14
5.05691e-14
6.8754e-14
9.6566e-14
1.16661e-13
1.13711e-13
9.94276e-14
1.00209e-13
9.28262e-14
8.22487e-14
8.1572e-14
8.11321e-14
9.36326e-14
9.4157e-14
9.23914e-14
1.01766e-13
8.61988e-14
5.4949e-14
2.93008e-14
0.029213
0.0305722
0.0317673
0.0325879
0.0325444
0.031785
0.0307971
0.0298633
0.0288926
0.0278039
0.0265811
0.0252944
0.0239647
0.0225585
0.0210608
0.0194506
0.0177236
0.0160062
0.0142792
0.0127048
0.0113604
0.0102054
0.00925272
0.00852827
0.00801593
0.00766782
0.00746397
0.00733308
0.00726856
0.00723229
0.00721278
0.00713823
0.00702079
0.00688861
0.00674744
0.00656025
0.0063702
0.00613715
0.00591425
0.0056606
0.00543197
0.00519167
0.0049835
0.00476838
0.00458544
0.00438066
0.00406351
0.00361251
0.00318233
0.00275482
0.00231715
0.00183161
0.00131745
0.000862834
0.00077164
0.00112597
0.00151057
0.00169539
0.001686
0.00152711
0.00126866
0.000985594
0.000877065
0.000895428
0.00108953
0.00149643
0.00189014
0.00197487
0.00185288
0.00154341
0.000996317
0.000413685
8.38136e-05
5.75556e-06
8.97246e-08
2.18424e-10
1.05199e-13
4.36066e-14
4.93895e-14
5.96255e-14
7.41328e-14
8.13322e-14
8.31439e-14
6.79043e-14
4.63379e-14
6.65526e-14
6.97682e-14
7.22995e-14
6.20848e-14
6.35854e-14
6.94348e-14
6.35481e-14
5.58359e-14
5.6593e-14
4.75653e-14
4.26979e-14
4.65791e-14
5.88264e-14
5.57284e-14
5.96387e-14
4.48222e-14
3.88143e-14
3.50871e-14
4.54277e-14
5.59264e-14
5.05904e-14
5.0353e-14
3.89834e-14
4.39556e-14
4.45088e-14
3.09925e-14
5.60983e-14
6.43632e-14
6.10799e-14
6.46424e-14
6.56093e-14
7.1452e-14
7.45982e-14
8.03983e-14
8.78268e-14
8.38768e-14
8.58645e-14
6.69229e-14
5.53972e-14
4.75896e-14
4.26012e-14
4.3552e-14
5.9236e-14
6.86801e-14
8.67944e-14
9.83976e-14
9.44259e-14
8.44138e-14
8.86337e-14
8.30217e-14
8.4135e-14
7.40834e-14
7.39768e-14
9.11204e-14
9.31363e-14
8.97257e-14
9.89284e-14
9.19266e-14
6.05517e-14
3.08652e-14
0.0249229
0.0261231
0.0271487
0.0281338
0.0285615
0.0281829
0.0271663
0.0261137
0.0250527
0.0239587
0.0228055
0.0216241
0.0204499
0.0192726
0.018083
0.0168581
0.0155923
0.0142872
0.0130475
0.0118483
0.0108153
0.00993566
0.00919317
0.00859173
0.00812112
0.00776047
0.00748661
0.00726424
0.00708797
0.00696731
0.0068744
0.00673518
0.00657352
0.00639107
0.006206
0.0059722
0.00573956
0.00547356
0.00522942
0.0049662
0.00473547
0.00449701
0.00428946
0.00407003
0.00387504
0.00366931
0.00336678
0.00295296
0.00253302
0.00213808
0.00173502
0.00133326
0.00101357
0.000940155
0.00117715
0.00150712
0.00172565
0.00177064
0.00165678
0.0014418
0.00114583
0.000937766
0.000881346
0.000958672
0.00122979
0.0016657
0.0019595
0.00194294
0.00177342
0.0013769
0.000788094
0.000269686
4.08187e-05
1.87117e-06
1.74553e-08
2.329e-11
6.48495e-14
5.85975e-14
5.75989e-14
6.37821e-14
6.84694e-14
7.31521e-14
7.79407e-14
5.98712e-14
6.15604e-14
8.5848e-14
9.77044e-14
9.35704e-14
8.09215e-14
7.06937e-14
4.76391e-14
4.23314e-14
3.69037e-14
3.91882e-14
4.34365e-14
4.16388e-14
4.54526e-14
4.58781e-14
5.62918e-14
4.95219e-14
3.35759e-14
4.01389e-14
3.2541e-14
4.18681e-14
5.03328e-14
4.40383e-14
3.38225e-14
2.84229e-14
3.31155e-14
3.06558e-14
3.47846e-14
5.65124e-14
5.39898e-14
5.28766e-14
5.49858e-14
5.28786e-14
6.65818e-14
6.0584e-14
5.93018e-14
6.91914e-14
7.46243e-14
7.89672e-14
6.84882e-14
5.09515e-14
4.8154e-14
4.63938e-14
5.33068e-14
6.39719e-14
6.92716e-14
8.09622e-14
8.86678e-14