/*--------------------------------*- C++ -*----------------------------------*\
| =========                 |                                                 |
| \\      /  F ield         | OpenFOAM: The Open Source CFD Toolbox           |
|  \\    /   O peration     | Version:  2406                                  |
|   \\  /    A nd           | Website:  www.openfoam.com                      |
|    \\/     M anipulation  |                                                 |
\*---------------------------------------------------------------------------*/
FoamFile
{
    version     2.0;
    format      ascii;
    arch        "LSB;label=32;scalar=64";
    class       volScalarField;
    location    "0.075";
    object      p;
}
// * * * * * * * * * * * * * * * * * * * * * * * * * * * * * * * * * * * * * //

dimensions      [1 -1 -2 0 0 0 0];

internalField   nonuniform List<scalar> 
13948
(
98791.6
101442
101688
101586
101593
101677
101752
101797
101834
101906
102047
102273
102561
102822
102953
102979
102971
102933
102903
102914
102953
103047
103165
103219
103227
103193
103110
103012
102958
102947
102946
102946
102946
102946
102946
102946
102946
102946
102946
102946
102946
102946
102946
102946
102946
102946
102946
102946
102946
102946
102946
102946
102946
102946
102946
102946
102946
102946
102946
102946
102946
102946
102946
102946
102946
102946
102946
102946
102946
102946
102946
102946
102946
102946
102946
102946
102946
102946
102946
102946
102946
102946
102946
102946
102946
102946
102946
102946
102946
102946
102946
102946
102946
102946
102946
102946
102946
102946
102946
103104
101142
101590
101728
101647
101649
101727
101799
101844
101883
101954
102090
102307
102583
102832
102956
102980
102974
102937
102909
102920
102959
103050
103164
103215
103221
103187
103105
103010
102957
102947
102946
102946
102946
102946
102946
102946
102946
102946
102946
102946
102946
102946
102946
102946
102946
102946
102946
102946
102946
102946
102946
102946
102946
102946
102946
102946
102946
102946
102946
102946
102946
102946
102946
102946
102946
102946
102946
102946
102946
102946
102946
102946
102946
102946
102946
102946
102946
102946
102946
102946
102946
102946
102946
102946
102946
102946
102946
102946
102946
102946
102946
102946
102946
102946
102946
102946
102946
102946
102946
98102.2
99003.7
99982.3
100565
101266
101671
102085
102317
102191
102409
101075
101591
101672
101653
101674
101757
101830
101877
101918
101990
102124
102336
102603
102842
102958
102982
102975
102939
102913
102925
102963
103054
103165
103212
103218
103183
103101
103008
102957
102947
102946
102946
102946
102946
102946
102946
102946
102946
102946
102946
102946
102946
102946
102946
102946
102946
102946
102946
102946
102946
102946
102946
102946
102946
102946
102946
102946
102946
102946
102946
102946
102946
102946
102946
102946
102946
102946
102946
102946
102946
102946
102946
102946
102946
102946
102946
102946
102946
102946
102946
102946
102946
102946
102946
102946
102946
102946
102946
102946
102946
102946
102946
102946
102946
102946
102946
102946
102946
102946
119249
120683
122054
123145
121973
116135
103594
77223.5
47572.8
36429.3
45005.6
60760.7
75803.8
87559.1
96427.9
101858
105230
106912
107514
107430
106589
105307
103763
101920
99988.5
98390
97271.5
96663.3
96350.8
96461.2
96601.9
96909.7
97385.5
98046.9
98735.5
99501.5
100096
100699
101139
101429
101703
101633
101864
101461
101719
101670
101668
101704
101790
101863
101910
101953
102027
102161
102368
102627
102854
102961
102984
102976
102941
102917
102930
102969
103059
103167
103210
103214
103178
103096
103005
102956
102946
102946
102946
102946
102946
102946
102946
102946
102946
102946
102946
102946
102946
102946
102946
102946
102946
102946
102946
102946
102946
102946
102946
102946
102946
102946
102946
102946
102946
102946
102946
102946
102946
102946
102946
102946
102946
102946
102946
102946
102946
102946
102946
102946
102946
102946
102946
102946
102946
102946
102946
102946
102946
102946
102946
102946
102946
102946
102946
102946
102946
102946
102946
102946
102946
102946
102946
102946
102946
102946
115804
116852
118002
119155
120128
120696
119202
113734
102360
82793.4
59524.2
47718.3
51017.6
63360.4
77612.5
88005.5
95642.6
100634
103769
105454
106065
106048
105491
104455
103305
101999
100570
99321
98359.4
97710.1
97299.7
97155.2
97167.6
97314.4
97648.5
98209
98799
99378.2
99907.8
100366
100736
100978
101257
101348
101515
101495
101631
101639
101670
101726
101818
101894
101942
101988
102064
102199
102403
102653
102867
102965
102986
102976
102942
102920
102934
102975
103065
103169
103208
103210
103173
103091
103001
102955
102946
102946
102946
102946
102946
102946
102946
102946
102946
102946
102946
102946
102946
102946
102946
102946
102946
102946
102946
102946
102946
102946
102946
102946
102946
102946
102946
102946
102946
102946
102946
102946
102946
102946
102946
102946
102946
102946
102946
102946
102946
102946
102946
102946
102946
102946
102946
102946
102946
102946
102946
102946
102946
102946
102946
102946
102946
102946
102946
102946
102946
102946
102946
102946
102946
102946
102946
102946
102946
102946
114181
114901
115734
116629
117460
118029
118100
116374
111442
102304
88636.9
72108.2
63469.4
62168.3
68689
80322.4
88995.6
95176.2
99648
102481
104091
104809
104940
104598
103799
102873
101897
100828
99806.3
98931.4
98305.4
97949
97808.8
97848.9
98005.3
98292.8
98703.5
99155.9
99594.6
100003
100377
100710
100975
101201
101346
101490
101562
101640
101647
101681
101752
101850
101926
101976
102024
102104
102240
102441
102682
102882
102968
102988
102976
102943
102924
102939
102981
103072
103172
103206
103207
103167
103085
102997
102954
102946
102946
102946
102946
102946
102946
102946
102946
102946
102946
102946
102946
102946
102946
102946
102946
102946
102946
102946
102946
102946
102946
102946
102946
102946
102946
102946
102946
102946
102946
102946
102946
102946
102946
102946
102946
102946
102946
102946
102946
102946
102946
102946
102946
102946
102946
102946
102946
102946
102946
102946
102946
102946
102946
102946
102946
102946
102946
102946
102946
102946
102946
102946
102946
102946
102946
102946
102946
102946
102946
113417
113968
114579
115201
115705
115954
115608
113750
109663
102941
93748.1
83263.8
76218
74116.1
76880.4
84120.3
90634.9
95381.4
98987.1
101406
102929
103743
104021
103907
103398
102628
101852
101018
100226
99542.2
98980.2
98566.5
98354.7
98305.7
98428.8
98703.7
99085.3
99489.2
99853.5
100193
100522
100821
101076
101279
101414
101504
101548
101592
101618
101684
101780
101883
101959
102010
102061
102145
102283
102482
102713
102898
102972
102990
102976
102944
102928
102944
102989
103080
103175
103205
103203
103161
103078
102993
102953
102946
102946
102946
102946
102946
102946
102946
102946
102946
102946
102946
102946
102946
102946
102946
102946
102946
102946
102946
102946
102946
102946
102946
102946
102946
102946
102946
102946
102946
102946
102946
102946
102946
102946
102946
102946
102946
102946
102946
102946
102946
102946
102946
102946
102946
102946
102946
102946
102946
102946
102946
102946
102946
102946
102946
102946
102946
102946
102946
102946
102946
102946
102946
102946
102946
102946
102946
102946
102946
102946
112635
113032
113431
113795
114012
113980
113353
111597
108354
103393
97105.6
90400.7
85171.1
83119.8
84168
88224.3
92864.5
96241.7
98873.6
100800
102105
102888
103260
103332
103093
102517
101889
101214
100533
99953.7
99476.8
99119.3
98920.1
98866.4
98923.4
99072.6
99347.6
99703.5
100019
100316
100614
100880
101090
101248
101365
101437
101474
101541
101616
101713
101821
101923
101995
102047
102102
102190
102331
102527
102747
102914
102976
102991
102976
102945
102933
102950
102998
103089
103178
103203
103199
103154
103070
102988
102952
102946
102946
102946
102946
102946
102946
102946
102946
102946
102946
102946
102946
102946
102946
102946
102946
102946
102946
102946
102946
102946
102946
102946
102946
102946
102946
102946
102946
102946
102946
102946
102946
102946
102946
102946
102946
102946
102946
102946
102946
102946
102946
102946
102946
102946
102946
102946
102946
102946
102946
102946
102946
102946
102946
102946
102946
102946
102946
102946
102946
102946
102946
102946
102946
102946
102946
102946
102946
102946
102946
111854
112115
112332
112471
112468
112183
111410
109877
107294
103675
99334.6
94955.3
91497.2
89755
89836.6
91807.5
94994.1
97318.3
99167.9
100640
101691
102374
102757
102890
102818
102477
101985
101456
100874
100356
99926
99602.4
99400.2
99315.5
99317.4
99392.9
99569
99821
100083
100327
100561
100780
100969
101119
101235
101316
101389
101509
101623
101742
101861
101963
102033
102085
102144
102238
102381
102575
102782
102930
102981
102993
102975
102945
102937
102956
103007
103099
103181
103202
103194
103146
103061
102983
102951
102946
102946
102946
102946
102946
102946
102946
102946
102946
102946
102946
102946
102946
102946
102946
102946
102946
102946
102946
102946
102946
102946
102946
102946
102946
102946
102946
102946
102946
102946
102946
102946
102946
102946
102946
102946
102946
102946
102946
102946
102946
102946
102946
102946
102946
102946
102946
102946
102946
102946
102946
102946
102946
102946
102946
102946
102946
102946
102946
102946
102946
102946
102946
102946
102946
102946
102946
102946
102946
102946
111089
111242
111319
111293
111073
110612
109846
108530
106478
103829
100798
97810.5
95391.5
94006.4
93710.2
94605.2
96642.4
98283.1
99637.1
100805
101671
102243
102582
102724
102720
102524
102135
101730
101264
100812
100419
100106
99882.7
99751.7
99700.4
99707.3
99784.9
99944.2
100149
100339
100512
100687
100852
100996
101121
101224
101347
101515
101660
101796
101916
102010
102075
102127
102191
102290
102437
102626
102818
102946
102985
102995
102974
102946
102942
102963
103018
103111
103184
103201
103189
103137
103051
102977
102950
102946
102946
102946
102946
102946
102946
102946
102946
102946
102946
102946
102946
102946
102946
102946
102946
102946
102946
102946
102946
102946
102946
102946
102946
102946
102946
102946
102946
102946
102946
102946
102946
102946
102946
102946
102946
102946
102946
102946
102946
102946
102946
102946
102946
102946
102946
102946
102946
102946
102946
102946
102946
102946
102946
102946
102946
102946
102946
102946
102946
102946
102946
102946
102946
102946
102946
102946
102946
102946
102946
110355
110431
110424
110257
109860
109319
108598
107497
105884
103898
101738
99651.9
97939.6
96877.7
96488
96803.3
97937.3
99124.3
100118
101040
101775
102292
102606
102759
102785
102662
102363
102033
101670
101293
100943
100644
100408
100242
100144
100105
100116
100181
100303
100439
100563
100696
100837
100974
101102
101219
101372
101561
101717
101854
101971
102058
102119
102172
102241
102346
102496
102679
102854
102961
102991
102996
102973
102946
102948
102971
103031
103123
103186
103200
103183
103127
103040
102972
102949
102946
102946
102946
102946
102946
102946
102946
102946
102946
102946
102946
102946
102946
102946
102946
102946
102946
102946
102946
102946
102946
102946
102946
102946
102946
102946
102946
102946
102946
102946
102946
102946
102946
102946
102946
102946
102946
102946
102946
102946
102946
102946
102946
102946
102946
102946
102946
102946
102946
102946
102946
102946
102946
102946
102946
102946
102946
102946
102946
102946
102946
102946
102946
102946
102946
102946
102946
102946
102946
102946
109662
109697
109634
109366
108875
108285
107602
106692
105453
103960
102382
100891
99660.7
98838
98480.2
98522.2
99063.8
99895.1
100587
101269
101884
102350
102666
102832
102885
102817
102616
102334
102040
101733
101433
101161
100932
100752
100622
100542
100506
100507
100555
100645
100739
100838
100952
101071
101189
101302
101456
101639
101792
101927
102035
102112
102168
102222
102297
102408
102559
102735
102889
102973
102996
102996
102971
102947
102953
102980
103045
103136
103188
103198
103176
103115
103028
102966
102948
102946
102946
102946
102946
102946
102946
102946
102946
102946
102946
102946
102946
102946
102946
102946
102946
102946
102946
102946
102946
102946
102946
102946
102946
102946
102946
102946
102946
102946
102946
102946
102946
102946
102946
102946
102946
102946
102946
102946
102946
102946
102946
102946
102946
102946
102946
102946
102946
102946
102946
102946
102946
102946
102946
102946
102946
102946
102946
102946
102946
102946
102946
102946
102946
102946
102946
102946
102946
102946
102946
109021
109030
108935
108625
108107
107500
106834
106055
105103
103999
102838
101756
100860
100237
99928.7
99868.5
100108
100620
101064
101518
101979
102360
102647
102831
102906
102888
102784
102578
102339
102096
101851
101617
101408
101228
101082
100974
100903
100871
100873
100920
100996
101075
101163
101257
101352
101446
101577
101738
101884
102010
102104
102168
102220
102278
102359
102476
102626
102790
102921
102984
103002
102995
102969
102949
102960
102991
103061
103150
103190
103195
103168
103101
103015
102961
102947
102946
102946
102946
102946
102946
102946
102946
102946
102946
102946
102946
102946
102946
102946
102946
102946
102946
102946
102946
102946
102946
102946
102946
102946
102946
102946
102946
102946
102946
102946
102946
102946
102946
102946
102946
102946
102946
102946
102946
102946
102946
102946
102946
102946
102946
102946
102946
102946
102946
102946
102946
102946
102946
102946
102946
102946
102946
102946
102946
102946
102946
102946
102946
102946
102946
102946
102946
102946
102946
102946
108437
108428
108318
108010
107518
106935
106294
105587
104807
103971
103113
102321
101663
101199
100950
100872
100975
101263
101536
101800
102096
102362
102572
102730
102825
102853
102822
102721
102545
102362
102176
101989
101809
101643
101497
101378
101291
101238
101218
101232
101279
101339
101404
101474
101544
101617
101721
101864
101997
102103
102176
102228
102277
102340
102429
102550
102696
102844
102951
102993
103007
102994
102966
102953
102967
103005
103080
103162
103191
103191
103158
103085
103002
102957
102947
102946
102946
102946
102946
102946
102946
102946
102946
102946
102946
102946
102946
102946
102946
102946
102946
102946
102946
102946
102946
102946
102946
102946
102946
102946
102946
102946
102946
102946
102946
102946
102946
102946
102946
102946
102946
102946
102946
102946
102946
102946
102946
102946
102946
102946
102946
102946
102946
102946
102946
102946
102946
102946
102946
102946
102946
102946
102946
102946
102946
102946
102946
102946
102946
102946
102946
102946
102946
102946
102946
107910
107891
107780
107497
107052
106527
105947
105308
104626
103937
103269
102661
102160
101802
101598
101525
101564
101722
101904
102053
102223
102394
102536
102641
102717
102763
102777
102751
102659
102534
102404
102266
102125
101990
101866
101760
101676
101618
101587
101578
101592
101623
101664
101710
101759
101813
101896
102016
102119
102194
102246
102290
102340
102410
102505
102628
102767
102894
102975
103003
103009
102990
102964
102959
102976
103021
103100
103173
103192
103186
103145
103067
102990
102953
102946
102946
102946
102946
102946
102946
102946
102946
102946
102946
102946
102946
102946
102946
102946
102946
102946
102946
102946
102946
102946
102946
102946
102946
102946
102946
102946
102946
102946
102946
102946
102946
102946
102946
102946
102946
102946
102946
102946
102946
102946
102946
102946
102946
102946
102946
102946
102946
102946
102946
102946
102946
102946
102946
102946
102946
102946
102946
102946
102946
102946
102946
102946
102946
102946
102946
102946
102946
102946
102946
102946
107422
107409
107318
107076
106679
106210
105711
105166
104579
103981
103416
102912
102496
102193
102008
101933
101934
102017
102149
102247
102341
102448
102548
102626
102681
102718
102741
102744
102717
102636
102553
102462
102363
102266
102177
102099
102035
101985
101950
101929
101920
101923
101937
101961
101992
102028
102087
102168
102231
102277
102314
102357
102413
102489
102590
102711
102836
102938
102993
103013
103010
102985
102962
102965
102987
103041
103122
103180
103193
103179
103128
103047
102977
102950
102946
102946
102946
102946
102946
102946
102946
102946
102946
102946
102946
102946
102946
102946
102946
102946
102946
102946
102946
102946
102946
102946
102946
102946
102946
102946
102946
102946
102946
102946
102946
102946
102946
102946
102946
102946
102946
102946
102946
102946
102946
102946
102946
102946
102946
102946
102946
102946
102946
102946
102946
102946
102946
102946
102946
102946
102946
102946
102946
102946
102946
102946
102946
102946
102946
102946
102946
102946
102946
102946
102946
106953
106960
106906
106732
106396
105969
105527
105072
104591
104087
103603
103165
102799
102522
102340
102249
102225
102258
102345
102425
102484
102548
102613
102669
102715
102744
102757
102762
102757
102712
102660
102604
102541
102476
102416
102361
102314
102273
102239
102213
102193
102182
102179
102186
102199
102218
102250
102292
102323
102352
102387
102434
102497
102579
102680
102792
102899
102975
103009
103020
103007
102979
102963
102973
103002
103065
103145
103185
103192
103169
103108
103025
102967
102948
102946
102946
102946
102946
102946
102946
102946
102946
102946
102946
102946
102946
102946
102946
102946
102946
102946
102946
102946
102946
102946
102946
102946
102946
102946
102946
102946
102946
102946
102946
102946
102946
102946
102946
102946
102946
102946
102946
102946
102946
102946
102946
102946
102946
102946
102946
102946
102946
102946
102946
102946
102946
102946
102946
102946
102946
102946
102946
102946
102946
102946
102946
102946
102946
102946
102946
102946
102946
102946
102946
102946
106486
106515
106501
106413
106180
105813
105406
105003
104603
104192
103787
103411
103088
102831
102650
102542
102498
102498
102539
102604
102654
102696
102737
102772
102800
102819
102829
102824
102816
102795
102759
102723
102681
102636
102590
102547
102505
102467
102432
102403
102380
102363
102354
102351
102353
102359
102369
102388
102406
102433
102472
102524
102592
102675
102771
102870
102953
103003
103023
103022
103000
102974
102968
102983
103021
103092
103165
103189
103188
103155
103084
103004
102958
102947
102946
102946
102946
102946
102946
102946
102946
102946
102946
102946
102946
102946
102946
102946
102946
102946
102946
102946
102946
102946
102946
102946
102946
102946
102946
102946
102946
102946
102946
102946
102946
102946
102946
102946
102946
102946
102946
102946
102946
102946
102946
102946
102946
102946
102946
102946
102946
102946
102946
102946
102946
102946
102946
102946
102946
102946
102946
102946
102946
102946
102946
102946
102946
102946
102946
102946
102946
102946
102946
102946
102946
106028
106069
106081
106057
105951
105706
105352
104985
104631
104284
103942
103617
103329
103092
102912
102792
102728
102707
102716
102751
102794
102827
102855
102878
102894
102903
102907
102907
102900
102884
102855
102826
102795
102759
102720
102680
102640
102602
102568
102538
102515
102497
102484
102477
102472
102471
102470
102480
102498
102528
102572
102627
102695
102775
102860
102939
102997
103024
103031
103018
102990
102971
102976
102997
103047
103123
103179
103192
103181
103134
103056
102984
102952
102946
102946
102946
102946
102946
102946
102946
102946
102946
102946
102946
102946
102946
102946
102946
102946
102946
102946
102946
102946
102946
102946
102946
102946
102946
102946
102946
102946
102946
102946
102946
102946
102946
102946
102946
102946
102946
102946
102946
102946
102946
102946
102946
102946
102946
102946
102946
102946
102946
102946
102946
102946
102946
102946
102946
102946
102946
102946
102946
102946
102946
102946
102946
102946
102946
102946
102946
102946
102946
102946
102946
102946
105627
105651
105660
105656
105631
105540
105306
104999
104688
104389
104093
103808
103545
103318
103135
103002
102916
102871
102857
102865
102888
102913
102935
102953
102966
102974
102978
102979
102973
102960
102937
102912
102886
102855
102821
102786
102751
102718
102688
102661
102638
102620
102606
102595
102587
102581
102577
102585
102607
102640
102684
102738
102802
102873
102942
102997
103029
103038
103030
103007
102982
102974
102986
103017
103080
103154
103188
103192
103168
103106
103025
102967
102948
102946
102946
102946
102946
102946
102946
102946
102946
102946
102946
102946
102946
102946
102946
102946
102946
102946
102946
102946
102946
102946
102946
102946
102946
102946
102946
102946
102946
102946
102946
102946
102946
102946
102946
102946
102946
102946
102946
102946
102946
102946
102946
102946
102946
102946
102946
102946
102946
102946
102946
102946
102946
102946
102946
102946
102946
102946
102946
102946
102946
102946
102946
102946
102946
102946
102946
102946
102946
102946
102946
102946
102946
105314
105317
105294
105262
105249
105239
105164
104975
104725
104477
104237
103998
103766
103553
103369
103221
103112
103040
103000
102984
102985
102994
103007
103019
103028
103035
103038
103039
103036
103026
103010
102990
102969
102945
102918
102891
102864
102839
102814
102792
102772
102755
102740
102728
102718
102710
102705
102711
102735
102765
102805
102854
102910
102964
103009
103036
103044
103039
103021
102994
102978
102982
103001
103047
103118
103178
103193
103186
103146
103071
102996
102956
102947
102946
102946
102946
102946
102946
102946
102946
102946
102946
102946
102946
102946
102946
102946
102946
102946
102946
102946
102946
102946
102946
102946
102946
102946
102946
102946
102946
102946
102946
102946
102946
102946
102946
102946
102946
102946
102946
102946
102946
102946
102946
102946
102946
102946
102946
102946
102946
102946
102946
102946
102946
102946
102946
102946
102946
102946
102946
102946
102946
102946
102946
102946
102946
102946
102946
102946
102946
102946
102946
102946
102946
102946
105064
105074
105041
104967
104904
104881
104870
104817
104681
104499
104312
104126
103944
103767
103601
103454
103333
103241
103177
103137
103116
103108
103108
103111
103115
103118
103119
103118
103114
103107
103095
103081
103065
103047
103028
103009
102990
102972
102953
102936
102920
102904
102890
102878
102868
102861
102857
102860
102877
102900
102931
102967
103002
103031
103047
103050
103046
103030
103005
102985
102982
102995
103026
103087
103158
103191
103195
103171
103112
103032
102972
102949
102946
102946
102946
102946
102946
102946
102946
102946
102946
102946
102946
102946
102946
102946
102946
102946
102946
102946
102946
102946
102946
102946
102946
102946
102946
102946
102946
102946
102946
102946
102946
102946
102946
102946
102946
102946
102946
102946
102946
102946
102946
102946
102946
102946
102946
102946
102946
102946
102946
102946
102946
102946
102946
102946
102946
102946
102946
102946
102946
102946
102946
102946
102946
102946
102946
102946
102946
102946
102946
102946
102946
102946
102946
104804
104862
104862
104805
104698
104609
104559
104533
104492
104407
104286
104153
104017
103882
103751
103629
103521
103428
103353
103297
103259
103236
103223
103216
103214
103212
103210
103207
103202
103196
103188
103177
103165
103152
103139
103125
103112
103098
103084
103071
103058
103046
103034
103024
103016
103010
103005
103003
103008
103017
103031
103045
103054
103057
103057
103051
103036
103013
102993
102986
102994
103017
103065
103135
103187
103198
103187
103143
103069
102995
102956
102947
102946
102946
102946
102946
102946
102946
102946
102946
102946
102946
102946
102946
102946
102946
102946
102946
102946
102946
102946
102946
102946
102946
102946
102946
102946
102946
102946
102946
102946
102946
102946
102946
102946
102946
102946
102946
102946
102946
102946
102946
102946
102946
102946
102946
102946
102946
102946
102946
102946
102946
102946
102946
102946
102946
102946
102946
102946
102946
102946
102946
102946
102946
102946
102946
102946
102946
102946
102946
102946
102946
102946
102946
102946
104443
104602
104668
104672
104614
104499
104391
104311
104254
104204
104143
104067
103978
103884
103791
103700
103613
103533
103464
103406
103361
103328
103305
103290
103281
103276
103273
103269
103264
103259
103252
103244
103234
103224
103214
103203
103192
103180
103169
103158
103147
103137
103127
103119
103111
103105
103096
103087
103080
103076
103073
103071
103069
103064
103054
103038
103017
102999
102992
102996
103014
103054
103119
103180
103198
103196
103164
103099
103020
102967
102948
102946
102946
102946
102946
102946
102946
102946
102946
102946
102946
102946
102946
102946
102946
102946
102946
102946
102946
102946
102946
102946
102946
102946
102946
102946
102946
102946
102946
102946
102946
102946
102946
102946
102946
102946
102946
102946
102946
102946
102946
102946
102946
102946
102946
102946
102946
102946
102946
102946
102946
102946
102946
102946
102946
102946
102946
102946
102946
102946
102946
102946
102946
102946
102946
102946
102946
102946
102946
102946
102946
102946
102946
102946
102946
103937
104203
104382
104472
104492
104452
104356
104249
104155
104074
104001
103936
103873
103809
103742
103674
103608
103546
103490
103441
103399
103365
103339
103319
103305
103295
103288
103283
103280
103276
103272
103267
103261
103254
103246
103237
103227
103217
103207
103196
103186
103176
103166
103157
103148
103140
103129
103115
103103
103094
103085
103076
103066
103053
103037
103019
103004
102999
103002
103018
103053
103113
103175
103200
103200
103177
103120
103042
102979
102952
102946
102946
102946
102946
102946
102946
102946
102946
102946
102946
102946
102946
102946
102946
102946
102946
102946
102946
102946
102946
102946
102946
102946
102946
102946
102946
102946
102946
102946
102946
102946
102946
102946
102946
102946
102946
102946
102946
102946
102946
102946
102946
102946
102946
102946
102946
102946
102946
102946
102946
102946
102946
102946
102946
102946
102946
102946
102946
102946
102946
102946
102946
102946
102946
102946
102946
102946
102946
102946
102946
102946
102946
102946
102946
102946
103401
103672
103930
104132
104257
104306
104297
104238
104152
104064
103982
103904
103826
103754
103688
103628
103573
103520
103471
103426
103386
103352
103323
103300
103281
103268
103259
103253
103249
103246
103244
103241
103238
103233
103228
103221
103214
103206
103198
103190
103181
103173
103164
103156
103147
103139
103128
103113
103100
103087
103074
103061
103047
103032
103019
103010
103008
103012
103028
103063
103118
103176
103201
103203
103184
103132
103058
102990
102955
102947
102946
102946
102946
102946
102946
102946
102946
102946
102946
102946
102946
102946
102946
102946
102946
102946
102946
102946
102946
102946
102946
102946
102946
102946
102946
102946
102946
102946
102946
102946
102946
102946
102946
102946
102946
102946
102946
102946
102946
102946
102946
102946
102946
102946
102946
102946
102946
102946
102946
102946
102946
102946
102946
102946
102946
102946
102946
102946
102946
102946
102946
102946
102946
102946
102946
102946
102946
102946
102946
102946
102946
102946
102946
102946
102946
103061
103207
103410
103638
103846
104004
104097
104126
104111
104062
103995
103923
103852
103782
103713
103644
103579
103519
103464
103415
103370
103331
103298
103270
103247
103229
103215
103203
103195
103188
103182
103178
103174
103171
103167
103164
103160
103155
103150
103145
103140
103134
103128
103122
103115
103109
103099
103087
103075
103063
103051
103040
103030
103023
103021
103020
103027
103047
103083
103136
103185
103203
103204
103185
103135
103063
102996
102958
102947
102946
102946
102946
102946
102946
102946
102946
102946
102946
102946
102946
102946
102946
102946
102946
102946
102946
102946
102946
102946
102946
102946
102946
102946
102946
102946
102946
102946
102946
102946
102946
102946
102946
102946
102946
102946
102946
102946
102946
102946
102946
102946
102946
102946
102946
102946
102946
102946
102946
102946
102946
102946
102946
102946
102946
102946
102946
102946
102946
102946
102946
102946
102946
102946
102946
102946
102946
102946
102946
102946
102946
102946
102946
102946
102946
102946
102958
102991
103065
103191
103359
103542
103711
103840
103919
103948
103942
103914
103868
103814
103756
103697
103639
103582
103527
103472
103420
103373
103330
103293
103260
103232
103208
103187
103170
103156
103144
103135
103128
103122
103118
103113
103110
103106
103102
103099
103095
103091
103087
103083
103079
103075
103069
103060
103053
103046
103041
103039
103037
103037
103041
103054
103078
103116
103161
103194
103204
103202
103179
103129
103059
102995
102959
102948
102946
102946
102946
102946
102946
102946
102946
102946
102946
102946
102946
102946
102946
102946
102946
102946
102946
102946
102946
102946
102946
102946
102946
102946
102946
102946
102946
102946
102946
102946
102946
102946
102946
102946
102946
102946
102946
102946
102946
102946
102946
102946
102946
102946
102946
102946
102946
102946
102946
102946
102946
102946
102946
102946
102946
102946
102946
102946
102946
102946
102946
102946
102946
102946
102946
102946
102946
102946
102946
102946
102946
102946
102946
102946
102946
102946
102946
102946
102949
102958
102986
103044
103140
103267
103409
103544
103654
103731
103773
103784
103776
103753
103720
103682
103638
103593
103548
103504
103462
103421
103382
103343
103307
103274
103245
103220
103199
103182
103166
103153
103142
103132
103123
103115
103109
103103
103098
103093
103089
103085
103081
103078
103075
103072
103067
103064
103062
103060
103061
103067
103078
103097
103125
103158
103184
103198
103202
103194
103164
103110
103044
102988
102957
102947
102946
102946
102946
102946
102946
102946
102946
102946
102946
102946
102946
102946
102946
102946
102946
102946
102946
102946
102946
102946
102946
102946
102946
102946
102946
102946
102946
102946
102946
102946
102946
102946
102946
102946
102946
102946
102946
102946
102946
102946
102946
102946
102946
102946
102946
102946
102946
102946
102946
102946
102946
102946
102946
102946
102946
102946
102946
102946
102946
102946
102946
102946
102946
102946
102946
102946
102946
102946
102946
102946
102946
102946
102946
102946
102946
102946
102946
102946
102946
102946
102946
102948
102955
102973
103011
103074
103161
103262
103366
103461
103537
103591
103623
103635
103633
103621
103602
103579
103551
103521
103489
103456
103425
103396
103368
103342
103317
103293
103269
103247
103227
103209
103194
103180
103167
103157
103148
103140
103133
103127
103122
103117
103113
103110
103106
103103
103102
103105
103111
103122
103137
103154
103171
103184
103194
103199
103194
103174
103136
103080
103021
102976
102953
102947