/*--------------------------------*- C++ -*----------------------------------*\
| =========                 |                                                 |
| \\      /  F ield         | OpenFOAM: The Open Source CFD Toolbox           |
|  \\    /   O peration     | Version:  2406                                  |
|   \\  /    A nd           | Website:  www.openfoam.com                      |
|    \\/     M anipulation  |                                                 |
\*---------------------------------------------------------------------------*/
FoamFile
{
    version     2.0;
    format      ascii;
    arch        "LSB;label=32;scalar=64";
    class       volScalarField;
    location    "0.075";
    object      rho;
}
// * * * * * * * * * * * * * * * * * * * * * * * * * * * * * * * * * * * * * //

dimensions      [1 -3 0 0 0 0 0];

internalField   nonuniform List<scalar> 
13948
(
1.14516
1.19805
1.20866
1.20976
1.21029
1.21099
1.21137
1.21154
1.21178
1.21239
1.21362
1.21555
1.21799
1.2202
1.22131
1.22153
1.22146
1.22114
1.22089
1.22098
1.22131
1.2221
1.22311
1.22356
1.22363
1.22334
1.22264
1.22181
1.22135
1.22126
1.22125
1.22125
1.22125
1.22125
1.22125
1.22125
1.22125
1.22125
1.22125
1.22125
1.22125
1.22125
1.22125
1.22125
1.22125
1.22125
1.22125
1.22125
1.22125
1.22125
1.22125
1.22125
1.22125
1.22125
1.22125
1.22125
1.22125
1.22125
1.22125
1.22125
1.22125
1.22125
1.22125
1.22125
1.22125
1.22125
1.22125
1.22125
1.22125
1.22125
1.22125
1.22125
1.22125
1.22125
1.22125
1.22125
1.22125
1.22125
1.22125
1.22125
1.22125
1.22125
1.22125
1.22125
1.22125
1.22125
1.22125
1.22125
1.22125
1.22125
1.22125
1.22125
1.22125
1.22125
1.22125
1.22125
1.22125
1.22125
1.22125
1.16753
1.17761
1.20077
1.20899
1.21019
1.21069
1.21136
1.21174
1.21193
1.21219
1.2128
1.21398
1.21584
1.21817
1.22028
1.22133
1.22154
1.22148
1.22118
1.22093
1.22103
1.22136
1.22213
1.2231
1.22353
1.22358
1.22329
1.2226
1.22179
1.22135
1.22126
1.22125
1.22125
1.22125
1.22125
1.22125
1.22125
1.22125
1.22125
1.22125
1.22125
1.22125
1.22125
1.22125
1.22125
1.22125
1.22125
1.22125
1.22125
1.22125
1.22125
1.22125
1.22125
1.22125
1.22125
1.22125
1.22125
1.22125
1.22125
1.22125
1.22125
1.22125
1.22125
1.22125
1.22125
1.22125
1.22125
1.22125
1.22125
1.22125
1.22125
1.22125
1.22125
1.22125
1.22125
1.22125
1.22125
1.22125
1.22125
1.22125
1.22125
1.22125
1.22125
1.22125
1.22125
1.22125
1.22125
1.22125
1.22125
1.22125
1.22125
1.22125
1.22125
1.22125
1.22125
1.22125
1.22125
1.22125
1.22125
1.22125
1.08783
1.0957
1.1058
1.11526
1.1287
1.1426
1.15816
1.17313
1.18491
1.1964
1.19158
1.20361
1.20867
1.2101
1.21077
1.21151
1.21196
1.21221
1.2125
1.21311
1.21428
1.21608
1.21834
1.22037
1.22135
1.22156
1.2215
1.22119
1.22097
1.22107
1.2214
1.22217
1.22311
1.2235
1.22355
1.22326
1.22257
1.22177
1.22134
1.22126
1.22125
1.22125
1.22125
1.22125
1.22125
1.22125
1.22125
1.22125
1.22125
1.22125
1.22125
1.22125
1.22125
1.22125
1.22125
1.22125
1.22125
1.22125
1.22125
1.22125
1.22125
1.22125
1.22125
1.22125
1.22125
1.22125
1.22125
1.22125
1.22125
1.22125
1.22125
1.22125
1.22125
1.22125
1.22125
1.22125
1.22125
1.22125
1.22125
1.22125
1.22125
1.22125
1.22125
1.22125
1.22125
1.22125
1.22125
1.22125
1.22125
1.22125
1.22125
1.22125
1.22125
1.22125
1.22125
1.22125
1.22125
1.22125
1.22125
1.22125
1.22125
1.22125
1.22125
1.22125
1.22125
1.22125
1.22125
1.22125
1.22125
1.35646
1.36921
1.38101
1.3851
1.35252
1.25677
1.10342
0.851331
0.582191
0.47341
0.552979
0.708225
0.865219
0.993468
1.09267
1.15737
1.19938
1.22238
1.23216
1.2337
1.22722
1.21529
1.20007
1.182
1.16372
1.14925
1.13922
1.13297
1.12872
1.12692
1.12439
1.12354
1.12489
1.129
1.13501
1.14318
1.15178
1.16249
1.17357
1.18422
1.19435
1.19994
1.20532
1.20348
1.20766
1.20915
1.21018
1.21089
1.21168
1.21218
1.21248
1.21281
1.21344
1.21459
1.21635
1.21854
1.22047
1.22138
1.22157
1.2215
1.22121
1.221
1.22111
1.22144
1.22221
1.22312
1.22348
1.22352
1.22322
1.22253
1.22175
1.22134
1.22126
1.22125
1.22125
1.22125
1.22125
1.22125
1.22125
1.22125
1.22125
1.22125
1.22125
1.22125
1.22125
1.22125
1.22125
1.22125
1.22125
1.22125
1.22125
1.22125
1.22125
1.22125
1.22125
1.22125
1.22125
1.22125
1.22125
1.22125
1.22125
1.22125
1.22125
1.22125
1.22125
1.22125
1.22125
1.22125
1.22125
1.22125
1.22125
1.22125
1.22125
1.22125
1.22125
1.22125
1.22125
1.22125
1.22125
1.22125
1.22125
1.22125
1.22125
1.22125
1.22125
1.22125
1.22125
1.22125
1.22125
1.22125
1.22125
1.22125
1.22125
1.22125
1.22125
1.22125
1.22125
1.22125
1.22125
1.22125
1.22125
1.22125
1.32826
1.33678
1.34623
1.3561
1.36448
1.36799
1.34763
1.27465
1.1354
0.92341
0.69893
0.587944
0.628123
0.755094
0.906254
1.02307
1.10923
1.16659
1.20329
1.22407
1.23329
1.23546
1.23228
1.22449
1.21499
1.20366
1.19104
1.17991
1.1712
1.16479
1.16001
1.15719
1.15536
1.15471
1.15591
1.15953
1.16431
1.17009
1.17635
1.18288
1.18955
1.19543
1.20122
1.20439
1.20696
1.2073
1.20886
1.20951
1.21026
1.21097
1.2118
1.21238
1.21275
1.21311
1.21376
1.21491
1.21665
1.21877
1.22058
1.22141
1.22159
1.22151
1.22122
1.22103
1.22115
1.22149
1.22226
1.22314
1.22347
1.22349
1.22317
1.22248
1.22172
1.22133
1.22126
1.22125
1.22125
1.22125
1.22125
1.22125
1.22125
1.22125
1.22125
1.22125
1.22125
1.22125
1.22125
1.22125
1.22125
1.22125
1.22125
1.22125
1.22125
1.22125
1.22125
1.22125
1.22125
1.22125
1.22125
1.22125
1.22125
1.22125
1.22125
1.22125
1.22125
1.22125
1.22125
1.22125
1.22125
1.22125
1.22125
1.22125
1.22125
1.22125
1.22125
1.22125
1.22125
1.22125
1.22125
1.22125
1.22125
1.22125
1.22125
1.22125
1.22125
1.22125
1.22125
1.22125
1.22125
1.22125
1.22125
1.22125
1.22125
1.22125
1.22125
1.22125
1.22125
1.22125
1.22125
1.22125
1.22125
1.22125
1.22125
1.22125
1.31496
1.32087
1.32769
1.33501
1.34187
1.34669
1.34743
1.33244
1.28275
1.18262
1.02968
0.861141
0.779585
0.776305
0.847626
0.969763
1.06287
1.1294
1.1765
1.20617
1.22347
1.23188
1.23422
1.23214
1.2261
1.21872
1.21062
1.20144
1.19247
1.1847
1.17894
1.17525
1.17336
1.17304
1.1736
1.17528
1.17812
1.18168
1.1856
1.18967
1.19383
1.19792
1.2015
1.20464
1.20671
1.20833
1.20912
1.20988
1.21003
1.21044
1.21114
1.21199
1.21262
1.21303
1.21343
1.2141
1.21526
1.21697
1.21901
1.22071
1.22144
1.2216
1.22151
1.22123
1.22107
1.22119
1.22155
1.22232
1.22316
1.22345
1.22346
1.22313
1.22243
1.22168
1.22132
1.22125
1.22125
1.22125
1.22125
1.22125
1.22125
1.22125
1.22125
1.22125
1.22125
1.22125
1.22125
1.22125
1.22125
1.22125
1.22125
1.22125
1.22125
1.22125
1.22125
1.22125
1.22125
1.22125
1.22125
1.22125
1.22125
1.22125
1.22125
1.22125
1.22125
1.22125
1.22125
1.22125
1.22125
1.22125
1.22125
1.22125
1.22125
1.22125
1.22125
1.22125
1.22125
1.22125
1.22125
1.22125
1.22125
1.22125
1.22125
1.22125
1.22125
1.22125
1.22125
1.22125
1.22125
1.22125
1.22125
1.22125
1.22125
1.22125
1.22125
1.22125
1.22125
1.22125
1.22125
1.22125
1.22125
1.22125
1.22125
1.22125
1.22125
1.30867
1.31322
1.31824
1.32333
1.32743
1.32946
1.32681
1.31211
1.27756
1.21492
1.12243
1.01551
0.945796
0.930149
0.961735
1.03499
1.10012
1.14754
1.18252
1.20545
1.21987
1.22771
1.23052
1.2298
1.2256
1.21908
1.21241
1.20522
1.19838
1.19242
1.18749
1.18379
1.1817
1.18102
1.18179
1.18372
1.1867
1.19003
1.19313
1.19616
1.19924
1.20211
1.20465
1.20676
1.20819
1.20908
1.2095
1.20985
1.21
1.21054
1.21134
1.21222
1.21287
1.21331
1.21375
1.21446
1.21563
1.21732
1.21928
1.22084
1.22147
1.22162
1.22151
1.22124
1.2211
1.22124
1.22162
1.22239
1.22319
1.22344
1.22342
1.22307
1.22237
1.22165
1.22131
1.22125
1.22125
1.22125
1.22125
1.22125
1.22125
1.22125
1.22125
1.22125
1.22125
1.22125
1.22125
1.22125
1.22125
1.22125
1.22125
1.22125
1.22125
1.22125
1.22125
1.22125
1.22125
1.22125
1.22125
1.22125
1.22125
1.22125
1.22125
1.22125
1.22125
1.22125
1.22125
1.22125
1.22125
1.22125
1.22125
1.22125
1.22125
1.22125
1.22125
1.22125
1.22125
1.22125
1.22125
1.22125
1.22125
1.22125
1.22125
1.22125
1.22125
1.22125
1.22125
1.22125
1.22125
1.22125
1.22125
1.22125
1.22125
1.22125
1.22125
1.22125
1.22125
1.22125
1.22125
1.22125
1.22125
1.22125
1.22125
1.22125
1.22125
1.30223
1.3055
1.3088
1.31179
1.31355
1.31326
1.3081
1.29386
1.26735
1.22494
1.16839
1.10571
1.05697
1.03985
1.05153
1.08978
1.13249
1.16324
1.18668
1.20372
1.21513
1.22195
1.22514
1.22572
1.22362
1.21856
1.21311
1.20732
1.20156
1.19666
1.19261
1.18952
1.18768
1.18707
1.18739
1.18844
1.19067
1.19361
1.19626
1.19881
1.2014
1.20373
1.2056
1.20703
1.20809
1.20873
1.20902
1.20951
1.21006
1.21082
1.21169
1.21255
1.21318
1.21362
1.21409
1.21484
1.21603
1.2177
1.21956
1.22098
1.22151
1.22164
1.22151
1.22124
1.22114
1.22128
1.22169
1.22246
1.22321
1.22343
1.22339
1.22301
1.2223
1.22161
1.2213
1.22125
1.22125
1.22125
1.22125
1.22125
1.22125
1.22125
1.22125
1.22125
1.22125
1.22125
1.22125
1.22125
1.22125
1.22125
1.22125
1.22125
1.22125
1.22125
1.22125
1.22125
1.22125
1.22125
1.22125
1.22125
1.22125
1.22125
1.22125
1.22125
1.22125
1.22125
1.22125
1.22125
1.22125
1.22125
1.22125
1.22125
1.22125
1.22125
1.22125
1.22125
1.22125
1.22125
1.22125
1.22125
1.22125
1.22125
1.22125
1.22125
1.22125
1.22125
1.22125
1.22125
1.22125
1.22125
1.22125
1.22125
1.22125
1.22125
1.22125
1.22125
1.22125
1.22125
1.22125
1.22125
1.22125
1.22125
1.22125
1.22125
1.22125
1.29577
1.29793
1.29973
1.30087
1.30084
1.29847
1.29205
1.27933
1.25792
1.22763
1.19116
1.15388
1.12408
1.10925
1.11046
1.128
1.15573
1.17546
1.19094
1.20323
1.21196
1.21754
1.2206
1.2216
1.22093
1.21798
1.21376
1.20924
1.20428
1.19987
1.1962
1.19344
1.19171
1.19097
1.19096
1.1916
1.19304
1.19511
1.19728
1.19932
1.20128
1.20315
1.20476
1.20603
1.207
1.20766
1.20824
1.20921
1.21012
1.21107
1.21204
1.2129
1.2135
1.21394
1.21445
1.21525
1.21647
1.2181
1.21986
1.22112
1.22155
1.22165
1.2215
1.22124
1.22118
1.22133
1.22177
1.22255
1.22324
1.22342
1.22335
1.22295
1.22222
1.22156
1.22129
1.22125
1.22125
1.22125
1.22125
1.22125
1.22125
1.22125
1.22125
1.22125
1.22125
1.22125
1.22125
1.22125
1.22125
1.22125
1.22125
1.22125
1.22125
1.22125
1.22125
1.22125
1.22125
1.22125
1.22125
1.22125
1.22125
1.22125
1.22125
1.22125
1.22125
1.22125
1.22125
1.22125
1.22125
1.22125
1.22125
1.22125
1.22125
1.22125
1.22125
1.22125
1.22125
1.22125
1.22125
1.22125
1.22125
1.22125
1.22125
1.22125
1.22125
1.22125
1.22125
1.22125
1.22125
1.22125
1.22125
1.22125
1.22125
1.22125
1.22125
1.22125
1.22125
1.22125
1.22125
1.22125
1.22125
1.22125
1.22125
1.22125
1.22125
1.28945
1.29071
1.29135
1.29114
1.28931
1.28548
1.27911
1.26811
1.25091
1.22869
1.20333
1.17835
1.158
1.14633
1.14389
1.15177
1.16941
1.18338
1.19473
1.20434
1.21142
1.216
1.21868
1.21977
1.2197
1.21803
1.21466
1.21118
1.20719
1.20332
1.19996
1.19728
1.19539
1.1943
1.1939
1.19401
1.1947
1.19608
1.19781
1.19941
1.20085
1.20232
1.20369
1.20489
1.20592
1.20677
1.20779
1.20918
1.21038
1.2115
1.21251
1.21331
1.21386
1.2143
1.21485
1.21569
1.21693
1.21854
1.22017
1.22125
1.22159
1.22166
1.22149
1.22125
1.22122
1.22139
1.22186
1.22265
1.22326
1.22341
1.22331
1.22287
1.22214
1.22152
1.22128
1.22125
1.22125
1.22125
1.22125
1.22125
1.22125
1.22125
1.22125
1.22125
1.22125
1.22125
1.22125
1.22125
1.22125
1.22125
1.22125
1.22125
1.22125
1.22125
1.22125
1.22125
1.22125
1.22125
1.22125
1.22125
1.22125
1.22125
1.22125
1.22125
1.22125
1.22125
1.22125
1.22125
1.22125
1.22125
1.22125
1.22125
1.22125
1.22125
1.22125
1.22125
1.22125
1.22125
1.22125
1.22125
1.22125
1.22125
1.22125
1.22125
1.22125
1.22125
1.22125
1.22125
1.22125
1.22125
1.22125
1.22125
1.22125
1.22125
1.22125
1.22125
1.22125
1.22125
1.22125
1.22125
1.22125
1.22125
1.22125
1.22125
1.22125
1.28336
1.28398
1.28393
1.28254
1.27924
1.27474
1.26873
1.25951
1.24596
1.22922
1.21098
1.19334
1.17884
1.16984
1.16653
1.16926
1.17904
1.18923
1.19772
1.20552
1.21167
1.21595
1.21854
1.21978
1.21996
1.21887
1.21631
1.2135
1.2104
1.20718
1.20419
1.20164
1.19963
1.19822
1.1974
1.1971
1.19721
1.19779
1.19886
1.20004
1.2011
1.20223
1.20342
1.20456
1.20564
1.20662
1.2079
1.20949
1.21082
1.21199
1.21298
1.21372
1.21424
1.21469
1.21527
1.21617
1.21743
1.21899
1.22047
1.22138
1.22163
1.22167
1.22148
1.22125
1.22127
1.22146
1.22197
1.22275
1.22328
1.2234
1.22326
1.22278
1.22205
1.22147
1.22127
1.22125
1.22125
1.22125
1.22125
1.22125
1.22125
1.22125
1.22125
1.22125
1.22125
1.22125
1.22125
1.22125
1.22125
1.22125
1.22125
1.22125
1.22125
1.22125
1.22125
1.22125
1.22125
1.22125
1.22125
1.22125
1.22125
1.22125
1.22125
1.22125
1.22125
1.22125
1.22125
1.22125
1.22125
1.22125
1.22125
1.22125
1.22125
1.22125
1.22125
1.22125
1.22125
1.22125
1.22125
1.22125
1.22125
1.22125
1.22125
1.22125
1.22125
1.22125
1.22125
1.22125
1.22125
1.22125
1.22125
1.22125
1.22125
1.22125
1.22125
1.22125
1.22125
1.22125
1.22125
1.22125
1.22125
1.22125
1.22125
1.22125
1.22125
1.2776
1.27789
1.27736
1.27513
1.27104
1.26613
1.26042
1.25279
1.24238
1.22979
1.21642
1.20375
1.19326
1.18622
1.18315
1.18349
1.18811
1.19521
1.20112
1.20694
1.21217
1.21614
1.21881
1.22021
1.22064
1.22007
1.21836
1.21597
1.21347
1.21087
1.20831
1.206
1.20405
1.20251
1.2014
1.20072
1.20041
1.20043
1.20084
1.20162
1.20243
1.20328
1.20425
1.20527
1.20628
1.20724
1.20856
1.21013
1.21144
1.2126
1.21353
1.21418
1.21465
1.21512
1.21575
1.21669
1.21797
1.21946
1.22077
1.22148
1.22168
1.22167
1.22146
1.22126
1.22131
1.22154
1.22209
1.22286
1.2233
1.22338
1.2232
1.22268
1.22195
1.22142
1.22127
1.22125
1.22125
1.22125
1.22125
1.22125
1.22125
1.22125
1.22125
1.22125
1.22125
1.22125
1.22125
1.22125
1.22125
1.22125
1.22125
1.22125
1.22125
1.22125
1.22125
1.22125
1.22125
1.22125
1.22125
1.22125
1.22125
1.22125
1.22125
1.22125
1.22125
1.22125
1.22125
1.22125
1.22125
1.22125
1.22125
1.22125
1.22125
1.22125
1.22125
1.22125
1.22125
1.22125
1.22125
1.22125
1.22125
1.22125
1.22125
1.22125
1.22125
1.22125
1.22125
1.22125
1.22125
1.22125
1.22125
1.22125
1.22125
1.22125
1.22125
1.22125
1.22125
1.22125
1.22125
1.22125
1.22125
1.22125
1.22125
1.22125
1.22125
1.27226
1.27234
1.27155
1.26896
1.26464
1.25956
1.25399
1.24745
1.23945
1.23014
1.22032
1.21113
1.20349
1.19817
1.19551
1.19498
1.19701
1.20136
1.20513
1.20898
1.2129
1.21616
1.2186
1.22016
1.22081
1.22066
1.21979
1.21805
1.21603
1.21397
1.21189
1.20991
1.20813
1.2066
1.20534
1.20442
1.20381
1.20353
1.20354
1.20394
1.2046
1.20528
1.20603
1.20684
1.20766
1.20847
1.20959
1.21098
1.21223
1.21331
1.21411
1.21466
1.2151
1.21559
1.21628
1.21727
1.21854
1.21993
1.22104
1.22157
1.22173
1.22167
1.22144
1.22128
1.22137
1.22163
1.22223
1.22298
1.22331
1.22336
1.22313
1.22256
1.22184
1.22138
1.22126
1.22125
1.22125
1.22125
1.22125
1.22125
1.22125
1.22125
1.22125
1.22125
1.22125
1.22125
1.22125
1.22125
1.22125
1.22125
1.22125
1.22125
1.22125
1.22125
1.22125
1.22125
1.22125
1.22125
1.22125
1.22125
1.22125
1.22125
1.22125
1.22125
1.22125
1.22125
1.22125
1.22125
1.22125
1.22125
1.22125
1.22125
1.22125
1.22125
1.22125
1.22125
1.22125
1.22125
1.22125
1.22125
1.22125
1.22125
1.22125
1.22125
1.22125
1.22125
1.22125
1.22125
1.22125
1.22125
1.22125
1.22125
1.22125
1.22125
1.22125
1.22125
1.22125
1.22125
1.22125
1.22125
1.22125
1.22125
1.22125
1.22125
1.22125
1.2674
1.26732
1.2664
1.26383
1.25972
1.25483
1.24946
1.24352
1.23696
1.22991
1.22265
1.21594
1.21036
1.2064
1.20427
1.2036
1.20447
1.20691
1.20923
1.21146
1.21396
1.21622
1.21801
1.21935
1.22016
1.22041
1.22015
1.2193
1.21781
1.21626
1.21468
1.21309
1.21156
1.21015
1.20891
1.2079
1.20715
1.2067
1.20653
1.20664
1.20704
1.20756
1.20812
1.20872
1.20933
1.20994
1.21084
1.21206
1.21319
1.2141
1.21472
1.21517
1.21558
1.21611
1.21687
1.21789
1.21914
1.22039
1.22129
1.22165
1.22176
1.22165
1.22142
1.22131
1.22143
1.22175
1.22238
1.22308
1.22333
1.22333
1.22304
1.22243
1.22173
1.22134
1.22126
1.22125
1.22125
1.22125
1.22125
1.22125
1.22125
1.22125
1.22125
1.22125
1.22125
1.22125
1.22125
1.22125
1.22125
1.22125
1.22125
1.22125
1.22125
1.22125
1.22125
1.22125
1.22125
1.22125
1.22125
1.22125
1.22125
1.22125
1.22125
1.22125
1.22125
1.22125
1.22125
1.22125
1.22125
1.22125
1.22125
1.22125
1.22125
1.22125
1.22125
1.22125
1.22125
1.22125
1.22125
1.22125
1.22125
1.22125
1.22125
1.22125
1.22125
1.22125
1.22125
1.22125
1.22125
1.22125
1.22125
1.22125
1.22125
1.22125
1.22125
1.22125
1.22125
1.22125
1.22125
1.22125
1.22125
1.22125
1.22125
1.22125
1.22125
1.26299
1.26284
1.2619
1.25954
1.25582
1.25141
1.24655
1.24118
1.23544
1.22962
1.22398
1.21883
1.21458
1.21154
1.2098
1.20919
1.20951
1.21086
1.2124
1.21366
1.2151
1.21655
1.21775
1.21864
1.21928
1.21967
1.21979
1.21957
1.21879
1.21773
1.21663
1.21546
1.21427
1.21312
1.21207
1.21116
1.21045
1.20996
1.20969
1.20962
1.20973
1.21
1.21035
1.21074
1.21117
1.21163
1.21234
1.21336
1.21424
1.21487
1.21531
1.21569
1.21612
1.21671
1.21752
1.21856
1.21974
1.22081
1.2215
1.22173
1.22179
1.22163
1.2214
1.22136
1.2215
1.22189
1.22256
1.22317
1.22334
1.22329
1.22293
1.22227
1.22162
1.22131
1.22125
1.22125
1.22125
1.22125
1.22125
1.22125
1.22125
1.22125
1.22125
1.22125
1.22125
1.22125
1.22125
1.22125
1.22125
1.22125
1.22125
1.22125
1.22125
1.22125
1.22125
1.22125
1.22125
1.22125
1.22125
1.22125
1.22125
1.22125
1.22125
1.22125
1.22125
1.22125
1.22125
1.22125
1.22125
1.22125
1.22125
1.22125
1.22125
1.22125
1.22125
1.22125
1.22125
1.22125
1.22125
1.22125
1.22125
1.22125
1.22125
1.22125
1.22125
1.22125
1.22125
1.22125
1.22125
1.22125
1.22125
1.22125
1.22125
1.22125
1.22125
1.22125
1.22125
1.22125
1.22125
1.22125
1.22125
1.22125
1.22125
1.22125
1.22125
1.25892
1.25881
1.25804
1.25602
1.25269
1.24876
1.24457
1.23998
1.23504
1.22999
1.22522
1.22095
1.21744
1.21486
1.21329
1.21266
1.21267
1.21336
1.21449
1.21532
1.21612
1.21703
1.21787
1.21853
1.21899
1.2193
1.2195
1.21952
1.21929
1.21861
1.2179
1.21713
1.21629
1.21547
1.21471
1.21405
1.21351
1.21308
1.21279
1.21261
1.21253
1.21256
1.21268
1.21289
1.21315
1.21346
1.21396
1.21465
1.21519
1.21557
1.21589
1.21626
1.21673
1.21738
1.21823
1.21926
1.22032
1.22118
1.22165
1.22182
1.22179
1.22158
1.22139
1.22142
1.2216
1.22206
1.22274
1.22323
1.22334
1.22323
1.22279
1.2221
1.22152
1.22128
1.22125
1.22125
1.22125
1.22125
1.22125
1.22125
1.22125
1.22125
1.22125
1.22125
1.22125
1.22125
1.22125
1.22125
1.22125
1.22125
1.22125
1.22125
1.22125
1.22125
1.22125
1.22125
1.22125
1.22125
1.22125
1.22125
1.22125
1.22125
1.22125
1.22125
1.22125
1.22125
1.22125
1.22125
1.22125
1.22125
1.22125
1.22125
1.22125
1.22125
1.22125
1.22125
1.22125
1.22125
1.22125
1.22125
1.22125
1.22125
1.22125
1.22125
1.22125
1.22125
1.22125
1.22125
1.22125
1.22125
1.22125
1.22125
1.22125
1.22125
1.22125
1.22125
1.22125
1.22125
1.22125
1.22125
1.22125
1.22125
1.22125
1.22125
1.22125
1.25499
1.25505
1.25459
1.25314
1.25032
1.24674
1.24302
1.2392
1.23514
1.23089
1.2268
1.2231
1.22
1.21765
1.21611
1.21534
1.21513
1.21541
1.21615
1.21683
1.21733
1.21787
1.21843
1.2189
1.21928
1.21953
1.21964
1.21968
1.21964
1.21926
1.21881
1.21834
1.2178
1.21725
1.21674
1.21628
1.21588
1.21553
1.21525
1.21502
1.21486
1.21476
1.21474
1.2148
1.21491
1.21507
1.21535
1.2157
1.21597
1.21622
1.21651
1.21691
1.21744
1.21814
1.219
1.21995
1.22085
1.2215
1.22178
1.22188
1.22177
1.22153
1.22139
1.22148
1.22172
1.22226
1.22294
1.22328
1.22333
1.22314
1.22262
1.22192
1.22143
1.22127
1.22125
1.22125
1.22125
1.22125
1.22125
1.22125
1.22125
1.22125
1.22125
1.22125
1.22125
1.22125
1.22125
1.22125
1.22125
1.22125
1.22125
1.22125
1.22125
1.22125
1.22125
1.22125
1.22125
1.22125
1.22125
1.22125
1.22125
1.22125
1.22125
1.22125
1.22125
1.22125
1.22125
1.22125
1.22125
1.22125
1.22125
1.22125
1.22125
1.22125
1.22125
1.22125
1.22125
1.22125
1.22125
1.22125
1.22125
1.22125
1.22125
1.22125
1.22125
1.22125
1.22125
1.22125
1.22125
1.22125
1.22125
1.22125
1.22125
1.22125
1.22125
1.22125
1.22125
1.22125
1.22125
1.22125
1.22125
1.22125
1.22125
1.22125
1.22125
1.25107
1.25132
1.25121
1.25047
1.24851
1.24543
1.242
1.23862
1.23524
1.23178
1.22836
1.22518
1.22244
1.22027
1.21874
1.21782
1.21745
1.21745
1.21779
1.21835
1.21877
1.21912
1.21947
1.21977
1.22001
1.22016
1.22025
1.22021
1.22014
1.21996
1.21965
1.21935
1.21899
1.21861
1.21823
1.21785
1.2175
1.21718
1.21689
1.21664
1.21644
1.2163
1.21623
1.2162
1.21622
1.21627
1.21636
1.21652
1.21667
1.2169
1.21723
1.21768
1.21825
1.21896
1.21977
1.2206
1.22131
1.22173
1.2219
1.22189
1.22171
1.22149
1.22144
1.22156
1.22189
1.22249
1.22311
1.22331
1.2233
1.22302
1.22242
1.22174
1.22135
1.22126
1.22125
1.22125
1.22125
1.22125
1.22125
1.22125
1.22125
1.22125
1.22125
1.22125
1.22125
1.22125
1.22125
1.22125
1.22125
1.22125
1.22125
1.22125
1.22125
1.22125
1.22125
1.22125
1.22125
1.22125
1.22125
1.22125
1.22125
1.22125
1.22125
1.22125
1.22125
1.22125
1.22125
1.22125
1.22125
1.22125
1.22125
1.22125
1.22125
1.22125
1.22125
1.22125
1.22125
1.22125
1.22125
1.22125
1.22125
1.22125
1.22125
1.22125
1.22125
1.22125
1.22125
1.22125
1.22125
1.22125
1.22125
1.22125
1.22125
1.22125
1.22125
1.22125
1.22125
1.22125
1.22125
1.22125
1.22125
1.22125
1.22125
1.22125
1.22125
1.24724
1.24758
1.24768
1.24748
1.24658
1.24453
1.24155
1.23847
1.23548
1.23256
1.22966
1.22692
1.22449
1.22248
1.22096
1.21994
1.2194
1.21922
1.21929
1.2196
1.21995
1.22023
1.22047
1.22066
1.2208
1.22088
1.22091
1.22091
1.22085
1.22071
1.22047
1.22023
1.21996
1.21965
1.21933
1.21898
1.21865
1.21833
1.21804
1.21779
1.21759
1.21744
1.21733
1.21727
1.21723
1.21722
1.21721
1.2173
1.21745
1.21771
1.21808
1.21855
1.21912
1.2198
1.22052
1.22119
1.22168
1.22192
1.22197
1.22186
1.22163
1.22146
1.2215
1.22168
1.22211
1.22275
1.22323
1.22334
1.22324
1.22284
1.22218
1.22157
1.2213
1.22125
1.22125
1.22125
1.22125
1.22125
1.22125
1.22125
1.22125
1.22125
1.22125
1.22125
1.22125
1.22125
1.22125
1.22125
1.22125
1.22125
1.22125
1.22125
1.22125
1.22125
1.22125
1.22125
1.22125
1.22125
1.22125
1.22125
1.22125
1.22125
1.22125
1.22125
1.22125
1.22125
1.22125
1.22125
1.22125
1.22125
1.22125
1.22125
1.22125
1.22125
1.22125
1.22125
1.22125
1.22125
1.22125
1.22125
1.22125
1.22125
1.22125
1.22125
1.22125
1.22125
1.22125
1.22125
1.22125
1.22125
1.22125
1.22125
1.22125
1.22125
1.22125
1.22125
1.22125
1.22125
1.22125
1.22125
1.22125
1.22125
1.22125
1.22125
1.22125
1.24387
1.24407
1.24414
1.24411
1.2439
1.24313
1.24117
1.23858
1.23596
1.23344
1.23094
1.22853
1.22632
1.22439
1.22285
1.22172
1.22099
1.22061
1.22049
1.22056
1.22075
1.22097
1.22115
1.2213
1.22141
1.22148
1.22152
1.22152
1.22147
1.22136
1.22117
1.22096
1.22073
1.22047
1.22019
1.21989
1.21959
1.21931
1.21905
1.21883
1.21864
1.21849
1.21837
1.21828
1.21821
1.21816
1.21812
1.21819
1.21838
1.21866
1.21903
1.21949
1.22003
1.22063
1.22122
1.22169
1.22195
1.22203
1.22196
1.22177
1.22155
1.22149
1.22159
1.22185
1.22238
1.22301
1.2233
1.22333
1.22313
1.22261
1.22192
1.22143
1.22127
1.22125
1.22125
1.22125
1.22125
1.22125
1.22125
1.22125
1.22125
1.22125
1.22125
1.22125
1.22125
1.22125
1.22125
1.22125
1.22125
1.22125
1.22125
1.22125
1.22125
1.22125
1.22125
1.22125
1.22125
1.22125
1.22125
1.22125
1.22125
1.22125
1.22125
1.22125
1.22125
1.22125
1.22125
1.22125
1.22125
1.22125
1.22125
1.22125
1.22125
1.22125
1.22125
1.22125
1.22125
1.22125
1.22125
1.22125
1.22125
1.22125
1.22125
1.22125
1.22125
1.22125
1.22125
1.22125
1.22125
1.22125
1.22125
1.22125
1.22125
1.22125
1.22125
1.22125
1.22125
1.22125
1.22125
1.22125
1.22125
1.22125
1.22125
1.22125
1.22125
1.24124
1.24126
1.24107
1.2408
1.24069
1.2406
1.23997
1.23838
1.23627
1.23418
1.23216
1.23014
1.22818
1.22638
1.22483
1.22358
1.22265
1.22204
1.2217
1.22157
1.22157
1.22165
1.22176
1.22186
1.22194
1.222
1.22202
1.22203
1.222
1.22192
1.22179
1.22162
1.22144
1.22123
1.22101
1.22078
1.22056
1.22034
1.22013
1.21994
1.21978
1.21963
1.2195
1.2194
1.21931
1.21925
1.21921
1.21926
1.21946
1.21972
1.22006
1.22047
1.22094
1.22141
1.22179
1.22202
1.22208
1.22204
1.22188
1.22165
1.22152
1.22156
1.22172
1.22211
1.22271
1.22322
1.22334
1.22328
1.22294
1.22231
1.22167
1.22133
1.22126
1.22125
1.22125
1.22125
1.22125
1.22125
1.22125
1.22125
1.22125
1.22125
1.22125
1.22125
1.22125
1.22125
1.22125
1.22125
1.22125
1.22125
1.22125
1.22125
1.22125
1.22125
1.22125
1.22125
1.22125
1.22125
1.22125
1.22125
1.22125
1.22125
1.22125
1.22125
1.22125
1.22125
1.22125
1.22125
1.22125
1.22125
1.22125
1.22125
1.22125
1.22125
1.22125
1.22125
1.22125
1.22125
1.22125
1.22125
1.22125
1.22125
1.22125
1.22125
1.22125
1.22125
1.22125
1.22125
1.22125
1.22125
1.22125
1.22125
1.22125
1.22125
1.22125
1.22125
1.22125
1.22125
1.22125
1.22125
1.22125
1.22125
1.22125
1.22125
1.22125
1.23913
1.23921
1.23894
1.23831
1.23779
1.23759
1.2375
1.23705
1.23591
1.23437
1.23279
1.23122
1.22968
1.22819
1.22678
1.22554
1.22452
1.22374
1.2232
1.22286
1.22268
1.22262
1.22262
1.22264
1.22268
1.2227
1.22271
1.2227
1.22267
1.2226
1.22251
1.22239
1.22225
1.2221
1.22194
1.22178
1.22162
1.22146
1.22131
1.22116
1.22102
1.22089
1.22077
1.22067
1.22059
1.22053
1.22049
1.22052
1.22066
1.22086
1.22112
1.22143
1.22173
1.22197
1.2221
1.22213
1.2221
1.22197
1.22175
1.22158
1.22156
1.22167
1.22193
1.22244
1.22304
1.22333
1.22336
1.22316
1.22266
1.22198
1.22147
1.22128
1.22125
1.22125
1.22125
1.22125
1.22125
1.22125
1.22125
1.22125
1.22125
1.22125
1.22125
1.22125
1.22125
1.22125
1.22125
1.22125
1.22125
1.22125
1.22125
1.22125
1.22125
1.22125
1.22125
1.22125
1.22125
1.22125
1.22125
1.22125
1.22125
1.22125
1.22125
1.22125
1.22125
1.22125
1.22125
1.22125
1.22125
1.22125
1.22125
1.22125
1.22125
1.22125
1.22125
1.22125
1.22125
1.22125
1.22125
1.22125
1.22125
1.22125
1.22125
1.22125
1.22125
1.22125
1.22125
1.22125
1.22125
1.22125
1.22125
1.22125
1.22125
1.22125
1.22125
1.22125
1.22125
1.22125
1.22125
1.22125
1.22125
1.22125
1.22125
1.22125
1.22125
1.23694
1.23743
1.23743
1.23695
1.23605
1.2353
1.23488
1.23465
1.23431
1.2336
1.23257
1.23145
1.2303
1.22916
1.22806
1.22703
1.22611
1.22532
1.22469
1.22422
1.2239
1.2237
1.22359
1.22353
1.22351
1.2235
1.22348
1.22346
1.22342
1.22336
1.22329
1.2232
1.2231
1.22299
1.22288
1.22276
1.22265
1.22253
1.22242
1.22231
1.2222
1.22209
1.222
1.22191
1.22184
1.22179
1.22175
1.22173
1.22177
1.22185
1.22197
1.22209
1.22216
1.22219
1.22219
1.22214
1.22201
1.22182
1.22165
1.22159
1.22166
1.22185
1.22226
1.22285
1.22329
1.22338
1.22329
1.22292
1.22229
1.22167
1.22133
1.22126
1.22125
1.22125
1.22125
1.22125
1.22125
1.22125
1.22125
1.22125
1.22125
1.22125
1.22125
1.22125
1.22125
1.22125
1.22125
1.22125
1.22125
1.22125
1.22125
1.22125
1.22125
1.22125
1.22125
1.22125
1.22125
1.22125
1.22125
1.22125
1.22125
1.22125
1.22125
1.22125
1.22125
1.22125
1.22125
1.22125
1.22125
1.22125
1.22125
1.22125
1.22125
1.22125
1.22125
1.22125
1.22125
1.22125
1.22125
1.22125
1.22125
1.22125
1.22125
1.22125
1.22125
1.22125
1.22125
1.22125
1.22125
1.22125
1.22125
1.22125
1.22125
1.22125
1.22125
1.22125
1.22125
1.22125
1.22125
1.22125
1.22125
1.22125
1.22125
1.22125
1.22125
1.2339
1.23524
1.2358
1.23583
1.23534
1.23437
1.23346
1.23279
1.2323
1.23188
1.23137
1.23073
1.22998
1.22918
1.22839
1.22762
1.22689
1.22622
1.22563
1.22514
1.22476
1.22448
1.22429
1.22416
1.22409
1.22404
1.22401
1.22398
1.22394
1.22389
1.22384
1.22377
1.22369
1.2236
1.22351
1.22342
1.22333
1.22323
1.22314
1.22304
1.22295
1.22287
1.22279
1.22271
1.22265
1.22259
1.22252
1.22244
1.22238
1.22235
1.22232
1.22231
1.22229
1.22225
1.22216
1.22203
1.22185
1.2217
1.22164
1.22168
1.22183
1.22217
1.22272
1.22323
1.22339
1.22336
1.2231
1.22254
1.22188
1.22143
1.22127
1.22125
1.22125
1.22125
1.22125
1.22125
1.22125
1.22125
1.22125
1.22125
1.22125
1.22125
1.22125
1.22125
1.22125
1.22125
1.22125
1.22125
1.22125
1.22125
1.22125
1.22125
1.22125
1.22125
1.22125
1.22125
1.22125
1.22125
1.22125
1.22125
1.22125
1.22125
1.22125
1.22125
1.22125
1.22125
1.22125
1.22125
1.22125
1.22125
1.22125
1.22125
1.22125
1.22125
1.22125
1.22125
1.22125
1.22125
1.22125
1.22125
1.22125
1.22125
1.22125
1.22125
1.22125
1.22125
1.22125
1.22125
1.22125
1.22125
1.22125
1.22125
1.22125
1.22125
1.22125
1.22125
1.22125
1.22125
1.22125
1.22125
1.22125
1.22125
1.22125
1.22125
1.22125
1.22963
1.23187
1.23339
1.23415
1.23431
1.23398
1.23317
1.23227
1.23147
1.23078
1.23017
1.22962
1.22909
1.22855
1.22798
1.22741
1.22685
1.22632
1.22585
1.22544
1.22508
1.2248
1.22457
1.2244
1.22428
1.2242
1.22414
1.2241
1.22407
1.22404
1.22401
1.22397
1.22392
1.22385
1.22378
1.22371
1.22363
1.22354
1.22346
1.22337
1.22328
1.22319
1.22311
1.22303
1.22296
1.22289
1.2228
1.22268
1.22258
1.2225
1.22243
1.22235
1.22227
1.22216
1.22202
1.22187
1.22174
1.2217
1.22173
1.22186
1.22216
1.22266
1.22319
1.2234
1.2234
1.22321
1.22272
1.22207
1.22153
1.2213
1.22125
1.22125
1.22125
1.22125
1.22125
1.22125
1.22125
1.22125
1.22125
1.22125
1.22125
1.22125
1.22125
1.22125
1.22125
1.22125
1.22125
1.22125
1.22125
1.22125
1.22125
1.22125
1.22125
1.22125
1.22125
1.22125
1.22125
1.22125
1.22125
1.22125
1.22125
1.22125
1.22125
1.22125
1.22125
1.22125
1.22125
1.22125
1.22125
1.22125
1.22125
1.22125
1.22125
1.22125
1.22125
1.22125
1.22125
1.22125
1.22125
1.22125
1.22125
1.22125
1.22125
1.22125
1.22125
1.22125
1.22125
1.22125
1.22125
1.22125
1.22125
1.22125
1.22125
1.22125
1.22125
1.22125
1.22125
1.22125
1.22125
1.22125
1.22125
1.22125
1.22125
1.22125
1.22125
1.2251
1.22739
1.22957
1.23128
1.23233
1.23274
1.23266
1.23217
1.23144
1.2307
1.23001
1.22935
1.22869
1.22808
1.22753
1.22702
1.22655
1.22611
1.22569
1.22531
1.22498
1.22468
1.22444
1.22424
1.22409
1.22398
1.2239
1.22385
1.22381
1.22379
1.22377
1.22375
1.22372
1.22368
1.22363
1.22358
1.22352
1.22345
1.22339
1.22331
1.22324
1.22317
1.2231
1.22303
1.22296
1.22289
1.22279
1.22267
1.22255
1.22244
1.22234
1.22222
1.22211
1.22198
1.22187
1.2218
1.22178
1.22181
1.22194
1.22224
1.22271
1.2232
1.22341
1.22343
1.22326
1.22283
1.2222
1.22162
1.22133
1.22126
1.22125
1.22125
1.22125
1.22125
1.22125
1.22125
1.22125
1.22125
1.22125
1.22125
1.22125
1.22125
1.22125
1.22125
1.22125
1.22125
1.22125
1.22125
1.22125
1.22125
1.22125
1.22125
1.22125
1.22125
1.22125
1.22125
1.22125
1.22125
1.22125
1.22125
1.22125
1.22125
1.22125
1.22125
1.22125
1.22125
1.22125
1.22125
1.22125
1.22125
1.22125
1.22125
1.22125
1.22125
1.22125
1.22125
1.22125
1.22125
1.22125
1.22125
1.22125
1.22125
1.22125
1.22125
1.22125
1.22125
1.22125
1.22125
1.22125
1.22125
1.22125
1.22125
1.22125
1.22125
1.22125
1.22125
1.22125
1.22125
1.22125
1.22125
1.22125
1.22125
1.22125
1.22125
1.22125
1.22223
1.22346
1.22518
1.2271
1.22886
1.2302
1.23098
1.23122
1.23109
1.23068
1.23012
1.22951
1.22891
1.22832
1.22774
1.22716
1.2266
1.2261
1.22563
1.22522
1.22484