/*--------------------------------*- C++ -*----------------------------------*\
| =========                 |                                                 |
| \\      /  F ield         | OpenFOAM: The Open Source CFD Toolbox           |
|  \\    /   O peration     | Version:  2406                                  |
|   \\  /    A nd           | Website:  www.openfoam.com                      |
|    \\/     M anipulation  |                                                 |
\*---------------------------------------------------------------------------*/
FoamFile
{
    version     2.0;
    format      ascii;
    arch        "LSB;label=32;scalar=64";
    class       volScalarField;
    location    "0.075";
    object      T;
}
// * * * * * * * * * * * * * * * * * * * * * * * * * * * * * * * * * * * * * //

dimensions      [0 0 0 1 0 0 0];

internalField   nonuniform List<scalar> 
13948
(
299.859
294.311
292.435
291.875
291.768
291.839
291.964
292.053
292.103
292.16
292.268
292.451
292.686
292.9
293.006
293.027
293.021
292.99
292.965
292.974
293.006
293.082
293.178
293.222
293.229
293.201
293.133
293.054
293.01
293.001
293
293
293
293
293
293
293
293
293
293
293
293
293
293
293
293
293
293
293
293
293
293
293
293
293
293
293
293
293
293
293
293
293
293
293
293
293
293
293
293
293
293
293
293
293
293
293
293
293
293
293
293
293
293
293
293
293
293
293
293
293
293
293
293
293
293
293
293
293
306.953
298.534
294.071
292.471
291.948
291.831
291.893
292.008
292.092
292.141
292.198
292.304
292.479
292.704
292.907
293.008
293.028
293.023
292.993
292.97
292.979
293.01
293.085
293.178
293.219
293.224
293.196
293.13
293.052
293.009
293
293
293
293
293
293
293
293
293
293
293
293
293
293
293
293
293
293
293
293
293
293
293
293
293
293
293
293
293
293
293
293
293
293
293
293
293
293
293
293
293
293
293
293
293
293
293
293
293
293
293
293
293
293
293
293
293
293
293
293
293
293
293
293
293
293
293
293
293
293
313.458
314.067
314.276
313.426
311.853
309.291
306.377
303.157
299.771
297.525
294.838
293.381
292.385
291.987
291.886
291.943
292.046
292.12
292.167
292.225
292.331
292.502
292.72
292.916
293.01
293.03
293.024
292.995
292.973
292.983
293.014
293.088
293.179
293.217
293.221
293.193
293.127
293.05
293.009
293
293
293
293
293
293
293
293
293
293
293
293
293
293
293
293
293
293
293
293
293
293
293
293
293
293
293
293
293
293
293
293
293
293
293
293
293
293
293
293
293
293
293
293
293
293
293
293
293
293
293
293
293
293
293
293
293
293
293
293
293
293
293
293
293
293
293
293
293
293
305.57
306.366
307.199
309.029
313.461
321.197
326.329
315.293
284.025
267.471
282.892
298.205
304.529
306.345
306.745
305.903
304.962
304.008
303.292
302.677
301.891
301.189
300.54
299.713
298.652
297.576
296.784
296.556
296.71
297.525
298.629
299.808
300.918
301.857
302.369
302.536
302.072
301.092
299.552
297.709
295.98
294.402
293.754
293.038
292.767
292.266
292.008
291.942
291.999
292.088
292.15
292.194
292.254
292.361
292.529
292.74
292.925
293.013
293.031
293.024
292.996
292.976
292.987
293.019
293.092
293.18
293.215
293.218
293.189
293.123
293.048
293.008
293
293
293
293
293
293
293
293
293
293
293
293
293
293
293
293
293
293
293
293
293
293
293
293
293
293
293
293
293
293
293
293
293
293
293
293
293
293
293
293
293
293
293
293
293
293
293
293
293
293
293
293
293
293
293
293
293
293
293
293
293
293
293
293
293
293
293
293
293
293
303.042
303.835
304.671
305.409
306.012
306.672
307.452
310.144
313.359
311.648
296.021
282.106
282.318
291.662
297.677
298.997
299.705
299.841
299.751
299.448
298.93
298.358
297.558
296.508
295.537
294.548
293.499
292.588
291.909
291.578
291.549
291.827
292.325
292.934
293.634
294.397
294.95
295.213
295.207
294.924
294.352
293.608
292.999
292.491
292.346
292.21
292.224
292.09
291.997
291.984
292.05
292.127
292.178
292.22
292.282
292.391
292.557
292.761
292.936
293.015
293.033
293.025
292.997
292.979
292.99
293.023
293.097
293.182
293.213
293.215
293.185
293.118
293.045
293.007
293
293
293
293
293
293
293
293
293
293
293
293
293
293
293
293
293
293
293
293
293
293
293
293
293
293
293
293
293
293
293
293
293
293
293
293
293
293
293
293
293
293
293
293
293
293
293
293
293
293
293
293
293
293
293
293
293
293
293
293
293
293
293
293
293
293
293
293
293
293
301.818
302.361
302.989
303.659
304.26
304.639
304.653
303.58
301.975
300.683
299.209
291.054
282.985
278.356
281.674
287.895
291.04
292.917
294.402
295.325
295.723
295.729
295.539
295.071
294.258
293.402
292.56
291.705
290.92
290.261
289.833
289.689
289.74
289.939
290.263
290.7
291.211
291.662
291.986
292.181
292.25
292.22
292.113
292.004
291.921
291.946
291.961
292.001
291.984
291.985
292.021
292.098
292.163
292.207
292.248
292.313
292.424
292.588
292.785
292.948
293.018
293.034
293.025
292.998
292.982
292.994
293.029
293.103
293.184
293.212
293.212
293.18
293.113
293.042
293.007
293
293
293
293
293
293
293
293
293
293
293
293
293
293
293
293
293
293
293
293
293
293
293
293
293
293
293
293
293
293
293
293
293
293
293
293
293
293
293
293
293
293
293
293
293
293
293
293
293
293
293
293
293
293
293
293
293
293
293
293
293
293
293
293
293
293
293
293
293
293
301.238
301.656
302.116
302.587
302.973
303.161
302.862
301.333
298.363
294.513
290.314
284.995
280.107
276.964
277.858
282.505
286.364
288.908
290.961
292.4
293.283
293.718
293.829
293.679
293.241
292.614
292
291.335
290.705
290.163
289.721
289.412
289.303
289.323
289.498
289.833
290.222
290.591
290.896
291.146
291.354
291.522
291.641
291.719
291.762
291.803
291.831
291.873
291.908
291.97
292.051
292.135
292.195
292.236
292.278
292.346
292.459
292.622
292.811
292.961
293.021
293.036
293.025
292.999
292.986
292.999
293.035
293.109
293.186
293.211
293.209
293.175
293.107
293.038
293.006
293
293
293
293
293
293
293
293
293
293
293
293
293
293
293
293
293
293
293
293
293
293
293
293
293
293
293
293
293
293
293
293
293
293
293
293
293
293
293
293
293
293
293
293
293
293
293
293
293
293
293
293
293
293
293
293
293
293
293
293
293
293
293
293
293
293
293
293
293
293
300.643
300.945
301.247
301.524
301.694
301.677
301.199
299.797
297.172
293.388
288.882
284.18
280.087
277.841
278.219
281.392
285.023
287.58
289.607
291.071
292.07
292.666
292.961
293.027
292.852
292.423
291.939
291.393
290.821
290.329
289.927
289.635
289.5
289.492
289.581
289.76
290.021
290.342
290.615
290.86
291.096
291.3
291.453
291.562
291.642
291.696
291.733
291.807
291.89
291.986
292.085
292.17
292.227
292.266
292.31
292.383
292.498
292.658
292.838
292.974
293.025
293.037
293.025
292.999
292.989
293.003
293.042
293.117
293.189
293.21
293.206
293.169
293.101
293.034
293.005
293
293
293
293
293
293
293
293
293
293
293
293
293
293
293
293
293
293
293
293
293
293
293
293
293
293
293
293
293
293
293
293
293
293
293
293
293
293
293
293
293
293
293
293
293
293
293
293
293
293
293
293
293
293
293
293
293
293
293
293
293
293
293
293
293
293
293
293
293
293
300.044
300.244
300.41
300.516
300.515
300.3
299.715
298.529
296.473
293.542
289.863
286.038
282.928
281.25
281.198
282.899
285.695
287.772
289.432
290.727
291.647
292.261
292.619
292.757
292.713
292.449
292.056
291.628
291.149
290.719
290.361
290.09
289.921
289.855
289.862
289.927
290.089
290.321
290.554
290.768
290.97
291.151
291.306
291.433
291.534
291.606
291.675
291.787
291.897
292.01
292.116
292.201
292.257
292.297
292.345
292.422
292.54
292.698
292.867
292.987
293.028
293.038
293.024
292.999
292.993
293.008
293.05
293.125
293.191
293.209
293.202
293.163
293.093
293.03
293.004
293
293
293
293
293
293
293
293
293
293
293
293
293
293
293
293
293
293
293
293
293
293
293
293
293
293
293
293
293
293
293
293
293
293
293
293
293
293
293
293
293
293
293
293
293
293
293
293
293
293
293
293
293
293
293
293
293
293
293
293
293
293
293
293
293
293
293
293
293
293
299.456
299.574
299.633
299.613
299.443
299.088
298.498
297.48
295.867
293.725
291.161
288.518
286.327
285.043
284.752
285.504
287.252
288.682
289.878
290.933
291.72
292.256
292.578
292.722
292.73
292.572
292.268
291.946
291.57
291.203
290.881
290.621
290.431
290.315
290.262
290.257
290.315
290.443
290.616
290.781
290.933
291.084
291.227
291.354
291.465
291.556
291.664
291.81
291.939
292.057
292.159
292.237
292.29
292.332
292.384
292.465
292.585
292.739
292.896
293
293.032
293.04
293.023
293
292.997
293.014
293.059
293.134
293.194
293.208
293.198
293.156
293.085
293.025
293.003
293
293
293
293
293
293
293
293
293
293
293
293
293
293
293
293
293
293
293
293
293
293
293
293
293
293
293
293
293
293
293
293
293
293
293
293
293
293
293
293
293
293
293
293
293
293
293
293
293
293
293
293
293
293
293
293
293
293
293
293
293
293
293
293
293
293
293
293
293
293
298.888
298.947
298.941
298.812
298.504
298.083
297.52
296.658
295.385
293.792
292.019
290.259
288.779
287.846
287.502
287.767
288.723
289.718
290.549
291.327
291.957
292.406
292.682
292.82
292.852
292.762
292.525
292.258
291.963
291.656
291.37
291.124
290.928
290.788
290.703
290.664
290.667
290.715
290.809
290.918
291.02
291.131
291.251
291.369
291.479
291.579
291.709
291.868
291.996
292.108
292.203
292.274
292.325
292.368
292.425
292.511
292.633
292.783
292.925
293.012
293.036
293.04
293.022
293
293.001
293.02
293.069
293.144
293.195
293.207
293.193
293.147
293.076
293.021
293.002
293
293
293
293
293
293
293
293
293
293
293
293
293
293
293
293
293
293
293
293
293
293
293
293
293
293
293
293
293
293
293
293
293
293
293
293
293
293
293
293
293
293
293
293
293
293
293
293
293
293
293
293
293
293
293
293
293
293
293
293
293
293
293
293
293
293
293
293
293
293
298.349
298.377
298.328
298.119
297.736
297.274
296.736
296.017
295.031
293.832
292.552
291.327
290.304
289.615
289.317
289.357
289.816
290.511
291.084
291.646
292.149
292.529
292.788
292.927
292.972
292.918
292.754
292.523
292.282
292.031
291.783
291.56
291.372
291.224
291.117
291.052
291.021
291.021
291.059
291.131
291.207
291.286
291.379
291.477
291.573
291.667
291.792
291.938
292.06
292.168
292.256
292.319
292.365
292.41
292.471
292.561
292.685
292.828
292.954
293.023
293.041
293.041
293.021
293.001
293.006
293.028
293.081
293.155
293.197
293.205
293.188
293.137
293.067
293.017
293.001
293
293
293
293
293
293
293
293
293
293
293
293
293
293
293
293
293
293
293
293
293
293
293
293
293
293
293
293
293
293
293
293
293
293
293
293
293
293
293
293
293
293
293
293
293
293
293
293
293
293
293
293
293
293
293
293
293
293
293
293
293
293
293
293
293
293
293
293
293
293
297.849
297.856
297.782
297.54
297.133
296.655
296.128
295.508
294.747
293.858
292.917
292.034
291.299
290.786
290.535
290.489
290.693
291.122
291.492
291.869
292.246
292.551
292.784
292.933
292.992
292.975
292.889
292.719
292.523
292.323
292.122
291.93
291.758
291.61
291.491
291.403
291.347
291.321
291.323
291.362
291.424
291.487
291.558
291.633
291.709
291.785
291.889
292.019
292.135
292.237
292.312
292.365
292.407
292.455
292.521
292.617
292.74
292.873
292.98
293.031
293.046
293.04
293.019
293.003
293.011
293.037
293.094
293.166
293.198
293.203
293.181
293.126
293.057
293.012
293.001
293
293
293
293
293
293
293
293
293
293
293
293
293
293
293
293
293
293
293
293
293
293
293
293
293
293
293
293
293
293
293
293
293
293
293
293
293
293
293
293
293
293
293
293
293
293
293
293
293
293
293
293
293
293
293
293
293
293
293
293
293
293
293
293
293
293
293
293
293
293
297.392
297.385
297.298
297.057
296.669
296.207
295.699
295.134
294.509
293.835
293.139
292.493
291.954
291.573
291.369
291.307
291.394
291.633
291.86
292.08
292.326
292.544
292.713
292.841
292.917
292.939
292.912
292.829
292.684
292.535
292.382
292.228
292.081
291.944
291.825
291.728
291.657
291.614
291.598
291.609
291.648
291.697
291.749
291.805
291.861
291.919
292.003
292.119
292.227
292.312
292.371
292.414
292.454
292.505
292.578
292.677
292.797
292.917
293.004
293.039
293.049
293.039
293.017
293.006
293.017
293.048
293.109
293.176
293.199
293.2
293.172
293.113
293.046
293.009
293.001
293
293
293
293
293
293
293
293
293
293
293
293
293
293
293
293
293
293
293
293
293
293
293
293
293
293
293
293
293
293
293
293
293
293
293
293
293
293
293
293
293
293
293
293
293
293
293
293
293
293
293
293
293
293
293
293
293
293
293
293
293
293
293
293
293
293
293
293
293
293
296.977
296.962
296.875
296.651
296.3
295.883
295.422
294.911
294.363
293.807
293.265
292.77
292.36
292.066
291.899
291.84
291.872
292.002
292.152
292.275
292.415
292.556
292.673
292.758
292.82
292.857
292.869
292.848
292.773
292.671
292.565
292.452
292.337
292.226
292.124
292.037
291.968
291.921
291.895
291.888
291.899
291.924
291.957
291.994
292.034
292.077
292.145
292.242
292.326
292.387
292.429
292.464
292.506
292.563
292.641
292.741
292.855
292.958
293.024
293.046
293.052
293.036
293.015
293.01
293.024
293.061
293.126
293.185
293.201
293.196
293.162
293.098
293.035
293.006
293
293
293
293
293
293
293
293
293
293
293
293
293
293
293
293
293
293
293
293
293
293
293
293
293
293
293
293
293
293
293
293
293
293
293
293
293
293
293
293
293
293
293
293
293
293
293
293
293
293
293
293
293
293
293
293
293
293
293
293
293
293
293
293
293
293
293
293
293
293
293
296.592
296.582
296.51
296.318
296.004
295.631
295.232
294.796
294.324
293.842
293.384
292.974
292.635
292.387
292.235
292.174
292.175
292.242
292.351
292.431
292.507
292.595
292.678
292.742
292.787
292.817
292.837
292.84
292.818
292.752
292.684
292.61
292.53
292.45
292.377
292.313
292.26
292.219
292.191
292.173
292.166
292.168
292.179
292.198
292.223
292.252
292.3
292.366
292.417
292.454
292.485
292.519
292.565
292.628
292.71
292.808
292.911
292.994
293.039
293.054
293.052
293.032
293.013
293.016
293.033
293.077
293.144
293.191
293.201
293.19
293.148
293.082
293.026
293.003
293
293
293
293
293
293
293
293
293
293
293
293
293
293
293
293
293
293
293
293
293
293
293
293
293
293
293
293
293
293
293
293
293
293
293
293
293
293
293
293
293
293
293
293
293
293
293
293
293
293
293
293
293
293
293
293
293
293
293
293
293
293
293
293
293
293
293
293
293
293
293
296.221
296.226
296.183
296.046
295.779
295.439
295.086
294.721
294.334
293.927
293.535
293.18
292.882
292.656
292.507
292.433
292.413
292.44
292.511
292.577
292.625
292.677
292.729
292.776
292.813
292.837
292.849
292.853
292.85
292.813
292.771
292.726
292.674
292.621
292.572
292.527
292.488
292.455
292.427
292.405
292.388
292.379
292.377
292.381
292.392
292.407
292.434
292.467
292.492
292.516
292.544
292.582
292.634
292.701
292.783
292.875
292.962
293.024
293.051
293.06
293.05
293.027
293.014
293.022
293.045
293.097
293.162
293.195
293.2
293.182
293.132
293.065
293.017
293.002
293
293
293
293
293
293
293
293
293
293
293
293
293
293
293
293
293
293
293
293
293
293
293
293
293
293
293
293
293
293
293
293
293
293
293
293
293
293
293
293
293
293
293
293
293
293
293
293
293
293
293
293
293
293
293
293
293
293
293
293
293
293
293
293
293
293
293
293
293
293
293
295.85
295.873
295.862
295.792
295.607
295.314
294.988
294.666
294.343
294.012
293.685
293.38
293.117
292.908
292.76
292.672
292.637
292.636
292.67
292.723
292.765
292.798
292.831
292.861
292.884
292.899
292.907
292.903
292.897
292.88
292.851
292.821
292.788
292.75
292.713
292.678
292.644
292.612
292.584
292.56
292.54
292.527
292.519
292.517
292.518
292.522
292.531
292.546
292.56
292.582
292.614
292.656
292.711
292.779
292.858
292.938
293.006
293.047
293.063
293.062
293.044
293.023
293.018
293.03
293.061
293.119
293.178
293.198
293.197
293.17
293.112
293.047
293.01
293.001
293
293
293
293
293
293
293
293
293
293
293
293
293
293
293
293
293
293
293
293
293
293
293
293
293
293
293
293
293
293
293
293
293
293
293
293
293
293
293
293
293
293
293
293
293
293
293
293
293
293
293
293
293
293
293
293
293
293
293
293
293
293
293
293
293
293
293
293
293
293
293
295.485
295.518
295.528
295.508
295.424
295.228
294.945
294.651
294.366
294.087
293.81
293.547
293.313
293.12
292.974
292.876
292.824
292.807
292.814
292.843
292.878
292.905
292.928
292.947
292.96
292.967
292.971
292.971
292.965
292.952
292.929
292.905
292.88
292.85
292.818
292.786
292.753
292.722
292.694
292.67
292.65
292.635
292.625
292.619
292.615
292.613
292.613
292.62
292.635
292.66
292.695
292.74
292.795
292.86
292.93
292.995
293.042
293.064
293.07
293.059
293.036
293.02
293.024
293.041
293.082
293.144
293.19
293.201
293.191
293.153
293.089
293.031
293.005
293
293
293
293
293
293
293
293
293
293
293
293
293
293
293
293
293
293
293
293
293
293
293
293
293
293
293
293
293
293
293
293
293
293
293
293
293
293
293
293
293
293
293
293
293
293
293
293
293
293
293
293
293
293
293
293
293
293
293
293
293
293
293
293
293
293
293
293
293
293
293
293
295.165
295.184
295.191
295.188
295.168
295.095
294.908
294.662
294.412
294.171
293.932
293.701
293.488
293.304
293.155
293.047
292.977
292.94
292.929
292.936
292.954
292.975
292.993
293.007
293.018
293.025
293.029
293.029
293.024
293.013
292.995
292.975
292.953
292.928
292.901
292.872
292.843
292.816
292.791
292.769
292.751
292.736
292.724
292.715
292.708
292.704
292.7
292.706
292.724
292.751
292.787
292.831
292.883
292.941
292.997
293.042
293.067
293.075
293.069
293.05
293.029
293.023
293.033
293.058
293.109
293.169
293.197
293.2
293.18
293.13
293.065
293.017
293.002
293
293
293
293
293
293
293
293
293
293
293
293
293
293
293
293
293
293
293
293
293
293
293
293
293
293
293
293
293
293
293
293
293
293
293
293
293
293
293
293
293
293
293
293
293
293
293
293
293
293
293
293
293
293
293
293
293
293
293
293
293
293
293
293
293
293
293
293
293
293
293
293
294.914
294.916
294.898
294.873
294.862
294.854
294.794
294.642
294.441
294.242
294.048
293.855
293.667
293.495
293.346
293.225
293.137
293.078
293.045
293.033
293.033
293.041
293.051
293.061
293.069
293.074
293.077
293.077
293.075
293.067
293.054
293.038
293.02
293.001
292.979
292.957
292.935
292.914
292.894
292.876
292.86
292.846
292.833
292.823
292.815
292.809
292.804
292.809
292.828
292.853
292.886
292.926
292.971
293.015
293.052
293.074
293.08
293.076
293.061
293.039
293.026
293.029
293.045
293.082
293.14
293.189
293.201
293.195
293.162
293.102
293.041
293.008
293.001
293
293
293
293
293
293
293
293
293
293
293
293
293
293
293
293
293
293
293
293
293
293
293
293
293
293
293
293
293
293
293
293
293
293
293
293
293
293
293
293
293
293
293
293
293
293
293
293
293
293
293
293
293
293
293
293
293
293
293
293
293
293
293
293
293
293
293
293
293
293
293
293
294.714
294.721
294.695
294.635
294.585
294.566
294.558
294.516
294.406
294.26
294.109
293.958
293.811
293.668
293.533
293.414
293.316
293.241
293.189
293.157
293.14
293.133
293.133
293.136
293.139
293.141
293.142
293.141
293.138
293.132
293.123
293.111
293.098
293.083
293.068
293.053
293.037
293.022
293.007
292.993
292.979
292.967
292.955
292.945
292.937
292.931
292.928
292.931
292.944
292.963
292.988
293.017
293.046
293.07
293.082
293.085
293.081
293.069
293.048
293.032
293.03
293.04
293.065
293.115
293.172
293.2
293.202
293.184
293.135
293.07
293.021
293.003
293
293
293
293
293
293
293
293
293
293
293
293
293
293
293
293
293
293
293
293
293
293
293
293
293
293
293
293
293
293
293
293
293
293
293
293
293
293
293
293
293
293
293
293
293
293
293
293
293
293
293
293
293
293
293
293
293
293
293
293
293
293
293
293
293
293
293
293
293
293
293
293
293
294.505
294.551
294.551
294.506
294.419
294.348
294.307
294.286
294.254
294.185
294.088
293.98
293.87
293.761
293.655
293.556
293.468
293.393
293.332
293.287
293.256
293.237
293.226
293.221
293.219
293.218
293.216
293.214
293.21
293.205
293.198
293.189
293.179
293.169
293.158
293.147
293.136
293.124
293.113
293.102
293.092
293.082
293.073
293.064
293.058
293.053
293.048
293.047
293.051
293.058
293.069
293.081
293.088
293.091
293.091
293.086
293.073
293.055
293.038
293.033
293.039
293.058
293.097
293.154
293.196
293.205
293.196
293.161
293.1
293.04
293.008
293.001
293
293
293
293
293
293
293
293
293
293
293
293
293
293
293
293
293
293
293
293
293
293
293
293
293
293
293
293
293
293
293
293
293
293
293
293
293
293
293
293
293
293
293
293
293
293
293
293
293
293
293
293
293
293
293
293
293
293
293
293
293
293
293
293
293
293
293
293
293
293
293
293
293
294.214
294.342
294.395
294.398
294.352
294.259
294.172
294.108
294.061
294.021
293.972
293.911
293.839
293.763
293.687
293.613
293.543
293.478
293.422
293.375
293.339
293.312
293.293
293.281
293.274
293.27
293.267
293.264
293.26
293.255
293.25
293.243
293.235
293.227
293.218
293.21
293.201
293.191
293.182
293.173
293.164
293.156
293.148
293.141
293.135
293.13
293.123
293.115
293.109
293.106
293.103
293.102
293.1
293.096
293.088
293.075
293.058
293.043
293.037
293.041
293.055
293.088
293.141
293.191
293.205
293.203
293.177
293.124
293.061
293.017
293.002
293
293
293
293
293
293
293
293
293
293
293
293
293
293
293
293
293
293
293
293
293
293
293
293
293
293
293
293
293
293
293
293
293
293
293
293
293
293
293
293
293
293
293
293
293
293
293
293
293
293
293
293
293
293
293
293
293
293
293
293
293
293
293
293
293
293
293
293
293
293
293
293
293
293
293.805
294.02
294.165
294.237
294.253
294.221
294.144
294.058
293.981
293.916
293.857
293.804
293.753
293.702
293.647
293.592
293.539
293.488
293.443
293.403
293.37
293.342
293.32
293.304
293.293
293.284
293.279
293.275
293.272
293.269
293.266
293.262
293.257
293.251
293.244
293.237
293.229
293.221
293.213
293.204
293.196
293.187
293.179
293.172
293.165
293.158
293.149
293.138
293.128
293.121
293.113
293.106
293.098
293.087
293.074
293.059
293.047
293.043
293.046
293.058
293.087
293.136
293.186
293.207
293.207
293.188
293.142
293.079
293.027
293.005
293
293
293
293
293
293
293
293
293
293
293
293
293
293
293
293
293
293
293
293
293
293
293
293
293
293
293
293
293
293
293
293
293
293
293
293
293
293
293
293
293
293
293
293
293
293
293
293
293
293
293
293
293
293
293
293
293
293
293
293
293
293
293
293
293
293
293
293
293
293
293
293
293
293
293
293.371
293.59
293.799
293.963
294.064
294.103
294.096
294.049
293.979
293.908
293.842
293.778
293.716
293.657
293.604
293.555
293.51
293.467
293.428
293.391
293.359
293.331
293.307
293.288
293.274
293.263
293.255
293.25
293.247
293.245
293.243
293.241
293.238
293.234
293.23
293.224
293.219
293.212
293.206
293.199
293.192
293.185
293.178
293.171
293.164
293.158
293.148
293.136
293.125
293.115
293.105
293.094
293.082
293.07
293.059
293.052
293.051
293.054
293.067
293.095
293.14
293.187
293.208
293.209
293.193
293.152
293.091
293.036
293.008
293.001
293
293
293
293
293
293
293
293
293
293
293
293
293
293
293
293
293
293
293
293
293
293
293
293
293
293
293
293
293
293
293
293
293
293
293
293
293
293
293
293
293
293
293
293
293
293
293
293
293
293
293
293
293
293
293
293
293
293
293
293
293
293
293
293
293
293
293
293
293
293
293
293
293
293
293
293.094
293.212
293.378
293.562
293.731
293.859
293.934
293.958
293.945
293.906
293.852
293.794
293.736
293.679
293.624
293.568
293.515
293.466
293.422
293.382
293.346
293.314
293.287
293.264
293.246
293.231
293.219
293.21
293.203
293.197
293.193
293.189
293.186
293.183
293.18
293.177
293.174
293.171
293.167
293.163
293.158
293.153
293.148
293.143
293.138
293.133
293.125
293.115
293.105
293.095
293.086
293.076
293.068
293.063
293.061
293.061
293.066
293.082
293.112
293.154
293.194
293.209
293.21
293.194
293.154
293.096
293.041
293.01
293.001
293
293
293
293
293
293
293
293
293
293
293
293
293
293
293
293
293
293
293
293
293
293
293
293
293
293
293
293
293
293
293
293
293
293
293
293
293
293
293
293
293
293
293
293
293
293
293
293
293
293
293
293
293
293
293
293
293
293
293
293
293
293
293
293
293
293
293
293
293
293
293
293
293
293
293
293
293.01
293.036
293.097
293.199
293.336
293.485
293.622
293.726
293.79
293.814
293.809
293.786
293.749
293.706
293.658
293.611
293.564
293.518
293.472
293.428
293.386
293.348
293.313
293.283
293.256
293.233
293.213
293.197
293.183
293.171
293.162
293.154
293.149
293.144
293.14
293.137
293.134
293.13
293.127
293.125
293.121
293.118
293.115
293.112
293.109
293.105
293.1
293.093
293.087
293.082
293.078
293.075
293.074
293.074
293.078
293.088
293.107
293.139
293.175
293.202
293.21
293.208
293.19
293.149
293.092
293.04
293.01
293.001
293
293
293
293
293
293
293
293
293
293
293
293
293
293
293
293
293
293
293
293
293
293
293
293
293
293
293
293
293
293
293
293
293
293
293
293
293
293
293
293
293
293
293
293
293
293
293
293
293
293
293
293
293
293
293
293
293
293
293
293
293
293
293
293
293
293
293
293
293
293
293
293
293
293
293
293
293
293
293.002
293.01
293.033
293.08
293.158
293.261
293.377
293.486
293.576
293.638
293.672
293.681
293.674
293.656
293.629
293.598
293.563
293.526
293.489
293.454
293.42
293.387
293.355
293.323
293.294
293.267
293.244
293.224
293.207
293.192
293.18
293.169
293.159
293.151
293.144
293.138
293.133
293.128
293.124
293.12
293.116
293.113
293.11
293.108
293.106
293.102
293.099
293.096
293.094
293.093
293.094
293.098
293.107
293.123
293.146
293.173
293.194
293.205
293.209
293.201
293.177
293.134
293.08
293.034
293.009
293.001
293
293
293
293
293
293
293
293
293
293
293
293
293
293
293
293
293
293
293
293
293
293
293
293
293
293
293
293
293
293
293
293
293
293
293
293
293
293
293
293
293
293
293
293
293
293
293
293
293
293
293
293
293
293
293
293
293
293
293
293
293
293
293
293
293
293
293
293
293
293
293
293
293
293
293
293
293
293
293
293
293
293.002
293.007
293.022
293.053
293.104
293.175
293.258
293.342
293.419
293.48
293.524
293.55
293.56
293.558
293.549
293.534
293.515
293.492
293.468
293.441
293.415
293.39
293.366
293.344
293.322
293.302
293.282
293.263
293.246
293.229
293.215
293.202
293.19
293.18
293.172
293.164
293.158
293.152
293.147
293.143
293.139
293.136
293.134
293.13
293.128
293.127
293.129
293.135
293.144
293.156
293.17
293.183
293.194
293.202
293.206
293.202
293.186
293.155
293.109
293.061
293.024
293.006
293.001
293
293
293
293
293
293
293
293
293
293
293
293
293
293
293
293
293
293
293
293
293
293
293
293
293
293
293
293
293
293
293
293
293
293
293
293
293
293
293
293
293
293
293
293
293
293
293
293
293
293
293
293
293
293
293
293
293
293
293
293
293
293
293
293
293
293
293
293
293
293
293
293
293
293
293
293
293
293
293
293
293
293
293
293
293.001
293.004
293.012
293.028
293.055
293.096
293.148
293.206
293.266
293.321
293.368
293.404
293.43
293.446
293.452
293.452
293.447
293.438
293.427
293.414
293.399
293.383
293.367
293.35
293.334
293.318
293.304
293.291
293.279
293.268
293.257
293.248
293.239
293.231
293.224
293.217
293.211
293.206
293.201
293.198
293.194
293.191
293.188
293.187
293.188
293.19
293.193
293.196
293.199
293.202
293.202
293.196
293.182
293.156
293.12
293.077
293.039
293.014
293.003
293
293
293
293
293
293
293
293
293
293
293
293
293
293
293
293
293
293
293
293
293
293
293
293
293
293
293
293
293
293
293
293
293
293
293
293
293
293
293
293
293
293
293
293
293
293
293
293
293
293
293
293
293
293
293
293
293
293
293
293
293
293
293
293
293
293
293
293
293
293
293
293
293
293
293
293
293
293
293
293
293
293
293
293
293
293
293
293
293
293.002
293.004
293.011
293.022
293.041
293.066
293.099
293.136
293.176
293.214
293.25
293.281
293.307
293.326
293.341
293.35
293.354
293.355
293.353
293.349
293.343
293.336
293.329
293.321
293.312
293.304
293.295
293.287
293.279
293.271
293.264
293.257
293.251
293.245
293.24
293.235
293.231
293.227
293.222
293.217
293.213
293.21
293.207
293.204
293.199
293.193
293.182
293.166
293.143
293.111
293.076
293.043
293.019
293.006
293.001
293
293
293
293
293
293
293
293
293
293
293
293
293
293
293
293
293
293
293
293
293
293
293
293
293
293
293
293
293
293
293
293
293
293
293
293
293
293
293
293
293
293
293
293
293
293
293
293
293
293
293
293
293
293
293
293
293
293
293
293
293
293
293
293
293
293
293
293
293
293
293
293
293
293
293
293
293
293
293
293
293
293
293
293
293
293
293
293
293
293
293
293
293
293.001
293.003
293.006
293.012
293.021
293.034
293.05
293.07
293.093
293.116
293.14
293.163
293.185
293.203
293.22
293.233
293.243
293.251
293.257
293.261
293.263
293.263
293.262
293.26
293.258
293.255
293.251
293.248
293.244
293.24
293.236
293.232
293.228
293.224
293.22
293.215
293.207
293.199
293.191
293.181
293.169
293.154
293.136
293.113
293.087
293.06
293.035
293.017
293.006
293.002
293
293
293
293
293
293
293
293
293
293
293
293
293
293
293
293
293
293
293
293
293
293
293
293
293
293
293
293
293
293
293
293
293
293
293
293
293
293
293
293
293
293
293
293
293
293
293
293
293
293
293
293
293
293
293
293
293
293
293
293
293
293
293
293
293
293
293
293
293
293
293
293
293
293
293
293
293
293
293
293
293
293
293
293
293
293
293
293
293
293
293
293
293
293
293
293
293
293
293
293.001
293.002
293.004
293.007
293.012
293.018
293.026
293.035
293.045
293.057
293.069
293.081
293.093
293.105
293.116
293.125
293.134
293.141
293.148
293.153
293.157
293.16
293.162
293.163
293.163
293.163
293.162
293.16
293.158
293.156
293.153
293.148
293.139
293.129
293.117
293.103
293.087
293.069
293.052
293.035
293.021
293.01
293.004
293.001
293
293
293
293
293
293
293
293
293
293
293
293
293
293
293
293
293
293
293
293
293
293
293
293
293
293
293
293
293
293
293
293
293
293
293
293
293
293
293
293
293
293
293
293
293
293
293
293
293
293
293
293
293
293
293
293
293
293
293
293
293
293
293
293
293
293
293
293
293
293
293
293
293
293
293
293
293
293
293
293
293
293
293
293
293
293
293
293
293
293
293
293
293
293
293
293
293
293
293
293
293
293
293
293
293
293
293.001
293.002
293.002
293.004
293.006
293.008
293.011
293.014
293.018
293.022
293.026
293.03
293.034
293.038
293.042
293.046
293.049
293.052
293.054
293.056
293.057
293.058
293.058
293.058
293.057
293.055
293.053
293.048
293.041
293.034
293.027
293.019
293.013
293.008
293.004
293.002
293.001
293
293
293
293
293
293
293
293
293
293
293
293
293
293
293
293
293
293
293
293
293
293
293
293
293
293
293
293
293
293
293
293
293
293
293
293
293
293
293
293
293
293
293
293
293
293
293
293
293
293
293
293
293
293
293
293
293
293
293
293
293
293
293
293
293
293
293
293
293
293
293
293
293
293
293
293
293
293
293
293
293
293
293
293
293
293
293
293
293
293
293
293
293
293
293
293
293
293
293
293
293
293
293
293
293
293
293
293
293
293
293
293
293
293
293
293.001
293.001
293.001
293.002
293.002
293.003
293.003
293.004
293.005
293.005
293.006
293.006
293.007
293.007
293.007
293.008
293.008
293.007
293.007
293.007
293.006
293.005
293.003
293.002
293.001
293.001
293
293
293
293
293
293
293
293
293
293
293
293
293