/*--------------------------------*- C++ -*----------------------------------*\
| =========                 |                                                 |
| \\      /  F ield         | OpenFOAM: The Open Source CFD Toolbox           |
|  \\    /   O peration     | Version:  2406                                  |
|   \\  /    A nd           | Website:  www.openfoam.com                      |
|    \\/     M anipulation  |                                                 |
\*---------------------------------------------------------------------------*/
FoamFile
{
    version     2.0;
    format      ascii;
    arch        "LSB;label=32;scalar=64";
    class       volVectorField;
    location    "0.075";
    object      U;
}
// * * * * * * * * * * * * * * * * * * * * * * * * * * * * * * * * * * * * * //

dimensions      [0 1 -1 0 0 0 0];

internalField   nonuniform List<vector> 
13948
(
(38.4269 -28.4802 1.83078)
(22.6161 -24.6325 1.36314)
(14.3081 -15.5975 0.849546)
(9.80288 -8.7258 0.467021)
(6.89592 -5.04249 0.278763)
(5.09528 -3.19141 0.176611)
(3.91408 -2.14958 0.113616)
(3.14835 -1.44512 0.0698719)
(2.62236 -0.92136 0.038481)
(2.16574 -0.524962 0.0162501)
(1.65779 -0.229115 0.000816987)
(1.03974 -0.0256985 -0.00895037)
(0.347208 0.0907708 -0.0134418)
(-0.239926 0.135232 -0.0141282)
(-0.491634 0.135891 -0.0128245)
(-0.501335 0.124883 -0.0113672)
(-0.434004 0.115324 -0.0100317)
(-0.303926 0.114209 -0.00925971)
(-0.208856 0.124362 -0.0090558)
(-0.18984 0.140267 -0.00915059)
(-0.253582 0.154498 -0.00920312)
(-0.435675 0.160033 -0.0089041)
(-0.666966 0.148738 -0.00805492)
(-0.762241 0.11906 -0.00637977)
(-0.724403 0.0839293 -0.00448576)
(-0.617625 0.0476609 -0.00254851)
(-0.401559 0.0211103 -0.00113966)
(-0.159969 0.00585028 -0.00032319)
(-0.0282542 0.000769835 -4.40976e-05)
(-0.00147437 3.18329e-05 -1.90507e-06)
(-1.49582e-05 2.65421e-07 -1.65989e-08)
(-2.03203e-08 3.29867e-10 -4.89123e-11)
(-2.24588e-12 3.86341e-11 -6.94641e-12)
(-5.76872e-12 3.49236e-11 1.43886e-11)
(-9.38735e-12 2.40993e-11 3.29117e-11)
(-6.25242e-12 1.89353e-11 1.67779e-11)
(4.50124e-12 2.68611e-11 7.71431e-12)
(-2.40382e-12 3.64277e-11 5.12774e-12)
(-8.46594e-12 3.01755e-11 3.29661e-13)
(1.52361e-13 2.82645e-11 -1.07585e-12)
(-8.05677e-13 3.63738e-11 -7.51971e-13)
(-6.41222e-12 3.23581e-11 -2.41722e-12)
(-3.2654e-12 3.09774e-11 -7.9216e-12)
(-5.83544e-12 3.35173e-11 -1.21951e-11)
(-1.07004e-11 3.73894e-11 -1.42122e-11)
(-1.14378e-11 3.93648e-11 1.04163e-12)
(-6.89682e-13 3.1166e-11 7.78417e-12)
(8.84168e-12 4.25392e-11 7.19376e-12)
(4.85341e-12 4.96392e-11 1.30478e-12)
(-3.78114e-12 4.71909e-11 -1.75376e-12)
(-1.75388e-12 4.02478e-11 -1.72705e-11)
(1.58509e-12 4.99527e-11 -2.26442e-12)
(-3.55077e-12 5.38632e-11 3.35578e-12)
(-9.04871e-12 5.02464e-11 3.65943e-12)
(-1.5407e-11 4.82161e-11 -9.58807e-13)
(-2.39323e-11 3.61243e-11 -1.17949e-12)
(-2.0097e-11 2.04322e-11 -4.87987e-12)
(-1.38248e-11 1.93966e-11 -9.47989e-12)
(-1.33524e-11 1.21274e-11 -9.22247e-12)
(-1.1338e-11 1.7209e-11 -9.93028e-12)
(-1.70866e-11 1.61779e-11 1.55029e-12)
(-1.91838e-11 -1.93228e-12 -4.86074e-12)
(-1.09792e-11 -1.22052e-11 8.51436e-12)
(-8.22133e-12 -1.80653e-11 2.2756e-11)
(-2.24787e-12 -1.89458e-11 1.89018e-11)
(-2.31051e-12 -6.08379e-12 1.82625e-11)
(-1.79547e-12 -1.0951e-11 1.68568e-11)
(-3.40304e-13 -1.6997e-12 1.36871e-11)
(7.34102e-13 -1.42674e-11 1.42172e-11)
(1.14338e-11 -1.29088e-11 1.48331e-11)
(5.21116e-12 -3.53739e-12 1.50858e-11)
(6.61189e-12 -1.02874e-11 2.18265e-11)
(1.46046e-11 -6.1094e-12 2.70345e-11)
(4.48308e-12 -1.46275e-12 2.13012e-11)
(5.50286e-12 -1.3381e-11 9.35064e-12)
(2.33496e-11 -7.57378e-12 6.86182e-12)
(2.42471e-11 2.59727e-11 9.59596e-12)
(4.45898e-12 3.65372e-11 1.76875e-11)
(1.13171e-12 2.76099e-11 2.79351e-11)
(1.10125e-11 3.11752e-11 3.00973e-11)
(9.62144e-12 4.27702e-11 2.73857e-11)
(7.96136e-12 3.54797e-11 2.44627e-11)
(1.13683e-11 4.92272e-11 1.82839e-11)
(7.75653e-12 5.39371e-11 2.32311e-11)
(-2.88594e-12 4.95889e-11 2.62571e-11)
(-8.52291e-12 2.64862e-11 3.75695e-11)
(-8.06844e-12 8.87574e-12 2.25902e-11)
(-6.33408e-12 -1.68167e-12 2.0205e-11)
(-8.74037e-12 -9.88774e-13 9.00802e-12)
(-7.59775e-12 -1.86523e-11 3.16166e-12)
(8.06659e-12 -1.82129e-11 -3.64299e-12)
(2.03838e-11 -1.73487e-11 -3.2842e-12)
(2.19457e-11 -3.30227e-12 -8.23529e-12)
(1.60399e-11 -3.96919e-12 -2.27073e-11)
(1.66226e-11 -2.07164e-11 -3.49318e-11)
(1.83321e-11 -2.18062e-11 -5.06121e-11)
(2.11004e-11 -3.45952e-11 -5.61945e-11)
(3.32571e-11 -3.50195e-11 -5.89313e-11)
(4.63048e-11 -3.12235e-11 -5.90236e-11)
(32.2308 -20.6203 1.49996)
(24.7758 -32.2876 1.89939)
(19.8352 -25.0802 1.43257)
(13.6394 -15.7367 0.877907)
(9.62042 -8.91264 0.476899)
(6.81902 -5.23324 0.284869)
(5.04636 -3.36103 0.182075)
(3.8823 -2.30341 0.11891)
(3.12704 -1.59233 0.0750538)
(2.60376 -1.0677 0.0436571)
(2.14476 -0.665778 0.0212204)
(1.63394 -0.352878 0.00516013)
(1.01538 -0.119513 -0.00569858)
(0.32743 0.034782 -0.0113109)
(-0.249776 0.112766 -0.0133438)
(-0.493145 0.13018 -0.0125954)
(-0.500963 0.121428 -0.0112095)
(-0.432692 0.110652 -0.00988467)
(-0.302382 0.104964 -0.00891105)
(-0.209581 0.109428 -0.0085158)
(-0.1919 0.123949 -0.00857162)
(-0.258372 0.139236 -0.00868433)
(-0.442938 0.15288 -0.00870671)
(-0.67079 0.152627 -0.00820452)
(-0.762765 0.131507 -0.00682655)
(-0.72361 0.0993643 -0.00503945)
(-0.615093 0.0638485 -0.0031326)
(-0.397624 0.0333107 -0.00157593)
(-0.157174 0.0112471 -0.000513937)
(-0.027487 0.00180576 -8.03061e-05)
(-0.0014173 8.94316e-05 -3.90007e-06)
(-1.41873e-05 8.72389e-07 -3.74829e-08)
(-1.90048e-08 1.16179e-09 -7.40082e-11)
(-2.35935e-12 3.92742e-11 -7.22993e-12)
(-4.39743e-12 3.3628e-11 1.10383e-11)
(-7.37687e-12 2.4231e-11 2.70291e-11)
(-5.6369e-12 2.09915e-11 1.41014e-11)
(2.58599e-12 2.92818e-11 7.01613e-12)
(-2.68057e-12 3.61052e-11 5.59476e-12)
(-7.24722e-12 3.07069e-11 -2.23107e-13)
(-1.04164e-12 2.8289e-11 -3.38507e-12)
(-1.30199e-12 3.88041e-11 -2.51404e-12)
(-4.92325e-12 3.42684e-11 -7.183e-12)
(-3.10545e-12 3.03383e-11 -1.19639e-11)
(-6.0054e-12 3.53017e-11 -1.08799e-11)
(-1.23352e-11 3.79885e-11 -4.05862e-12)
(-9.92476e-12 3.64974e-11 8.49044e-12)
(-2.3586e-13 2.83956e-11 1.13698e-11)
(7.62723e-12 3.813e-11 8.18214e-12)
(5.15138e-12 4.38739e-11 3.51824e-12)
(-1.70243e-12 4.26926e-11 9.20104e-13)
(-2.02501e-12 3.69843e-11 -8.76073e-12)
(-7.8343e-13 5.00448e-11 -1.03752e-12)
(-3.18081e-12 5.35766e-11 3.33612e-12)
(-8.86386e-12 5.03369e-11 3.79906e-12)
(-1.51328e-11 4.89541e-11 -1.29188e-12)
(-2.29277e-11 3.67003e-11 -1.31236e-12)
(-1.97751e-11 2.09101e-11 -5.79901e-12)
(-1.37255e-11 2.04304e-11 -9.32742e-12)
(-1.33449e-11 1.14544e-11 -7.11003e-12)
(-1.30696e-11 1.5745e-11 -5.95405e-12)
(-1.56233e-11 1.86166e-11 1.0914e-12)
(-1.68438e-11 -1.16544e-12 3.17056e-12)
(-1.15036e-11 -6.69039e-12 1.03829e-11)
(-8.20742e-12 -1.43501e-11 1.64098e-11)
(-3.58916e-12 -1.43136e-11 1.8678e-11)
(-2.65435e-12 -2.41194e-12 2.04059e-11)
(-2.42605e-12 -8.28962e-12 1.61397e-11)
(-1.7403e-13 -9.21256e-13 1.02967e-11)
(3.46613e-12 -1.10231e-11 1.14636e-11)
(9.17228e-12 -9.71577e-12 1.24818e-11)
(5.52077e-12 1.61714e-12 1.24061e-11)
(8.10911e-12 -1.13474e-11 1.54807e-11)
(1.23997e-11 -3.25431e-12 1.8215e-11)
(6.34108e-12 3.47212e-12 1.06828e-11)
(8.60247e-12 -9.6761e-12 5.30348e-12)
(1.97707e-11 -2.55e-12 5.13751e-12)
(1.96645e-11 2.88203e-11 8.87061e-12)
(5.72034e-12 3.72117e-11 1.64109e-11)
(2.86038e-12 2.89307e-11 2.30094e-11)
(9.57132e-12 3.38175e-11 2.68562e-11)
(1.01812e-11 4.5925e-11 2.76814e-11)
(8.12835e-12 3.77837e-11 2.15839e-11)
(9.46516e-12 5.1006e-11 1.77758e-11)
(7.44404e-12 5.22179e-11 2.31675e-11)
(-7.4993e-13 5.12057e-11 2.29864e-11)
(-4.52596e-12 2.93215e-11 2.80681e-11)
(-8.09419e-12 1.19333e-11 2.19303e-11)
(-8.10584e-12 1.79008e-12 1.78528e-11)
(-7.54896e-12 2.76193e-13 7.78547e-12)
(-6.16239e-12 -1.4385e-11 2.00933e-12)
(7.91144e-12 -1.51202e-11 -3.75606e-12)
(1.81332e-11 -1.39553e-11 -1.35669e-12)
(2.05536e-11 -1.82383e-12 -7.91315e-12)
(1.72213e-11 -3.17727e-12 -2.39839e-11)
(1.81618e-11 -1.85804e-11 -3.51435e-11)
(1.94558e-11 -1.69989e-11 -4.82658e-11)
(2.2895e-11 -2.92083e-11 -5.22799e-11)
(3.23772e-11 -3.5018e-11 -5.94449e-11)
(4.43965e-11 -3.15879e-11 -6.0119e-11)
(64.1692 -5.71995 1.10334)
(64.625 -5.21268 0.909566)
(62.5796 -4.34742 0.288518)
(57.5484 -4.82122 0.150255)
(50.6041 -4.5109 0.150824)
(41.8705 -5.18824 0.344416)
(32.4384 -6.70218 0.677503)
(22.4271 -9.57614 0.957686)
(14.8977 -15.1675 1.24268)
(9.16117 -20.1568 1.39479)
(11.316 -24.8868 1.54688)
(13.7381 -22.222 1.31964)
(11.499 -15.2295 0.87899)
(8.88622 -8.89806 0.484451)
(6.41217 -5.30134 0.285588)
(4.75951 -3.41759 0.182818)
(3.66205 -2.35311 0.120676)
(2.9518 -1.64073 0.0775635)
(2.45232 -1.11621 0.0466494)
(2.0096 -0.71175 0.0242622)
(1.51784 -0.392716 0.00788487)
(0.925476 -0.149297 -0.00354124)
(0.27092 0.0174493 -0.00999582)
(-0.272738 0.106261 -0.0128306)
(-0.496446 0.129416 -0.0123806)
(-0.499894 0.122212 -0.0110413)
(-0.431015 0.110801 -0.00952112)
(-0.304353 0.10327 -0.00865124)
(-0.218131 0.105558 -0.00824014)
(-0.203281 0.119818 -0.00834071)
(-0.270923 0.135398 -0.00854085)
(-0.452296 0.149744 -0.00868221)
(-0.670707 0.156315 -0.0084685)
(-0.753216 0.136626 -0.00716316)
(-0.711406 0.105707 -0.00542372)
(-0.601007 0.0702053 -0.00349288)
(-0.385232 0.0379002 -0.00181814)
(-0.150514 0.0132858 -0.000614099)
(-0.0258912 0.00220409 -9.87629e-05)
(-0.00130599 0.000111775 -4.89014e-06)
(-1.2728e-05 1.10629e-06 -4.74814e-08)
(-1.6547e-08 1.47119e-09 -7.7906e-11)
(-1.39987e-12 3.29872e-11 -3.55781e-12)
(-1.91508e-12 2.99173e-11 1.05473e-11)
(-6.34922e-12 2.81383e-11 2.17639e-11)
(-6.32169e-12 2.57574e-11 1.22696e-11)
(1.45865e-12 2.98717e-11 5.57441e-12)
(-2.35154e-12 3.40013e-11 2.8107e-12)
(-6.6347e-12 2.87736e-11 -2.15006e-12)
(-1.99189e-12 2.9622e-11 -7.38413e-12)
(-2.73564e-12 3.91543e-11 -9.54254e-12)
(-3.78474e-12 3.72139e-11 -1.59938e-11)
(-3.14096e-12 3.38173e-11 -1.9176e-11)
(-6.54648e-12 3.69405e-11 -1.01375e-11)
(-1.14963e-11 3.74043e-11 5.53671e-12)
(-9.221e-12 3.18215e-11 1.69349e-11)
(1.10437e-13 3.14534e-11 1.56266e-11)
(7.25401e-12 3.79842e-11 1.04526e-11)
(4.94738e-12 4.07605e-11 6.23817e-12)
(-1.01125e-12 4.0059e-11 4.71626e-12)
(-4.54447e-12 4.03965e-11 1.22493e-13)
(-3.03219e-12 5.27578e-11 1.55089e-12)
(-2.3655e-12 5.40338e-11 4.45281e-12)
(-8.47105e-12 4.88029e-11 4.41757e-12)
(-1.52904e-11 4.46137e-11 -9.48625e-13)
(-2.18891e-11 3.26207e-11 -1.36803e-12)
(-1.92593e-11 2.06485e-11 -8.24085e-12)
(-1.27122e-11 2.07501e-11 -7.00619e-12)
(-1.2463e-11 1.35802e-11 -4.58363e-12)
(-1.52885e-11 1.71547e-11 -3.13555e-12)
(-1.4752e-11 1.57795e-11 2.71667e-12)
(-1.50286e-11 8.05844e-12 9.50555e-12)
(-1.19316e-11 3.87136e-14 1.13186e-11)
(-7.29705e-12 -3.68059e-12 1.26601e-11)
(-5.07109e-12 -4.65171e-12 1.67109e-11)
(-3.34193e-12 -3.1797e-13 2.39507e-11)
(-2.23869e-12 -1.88072e-12 1.668e-11)
(-4.61379e-13 1.90435e-12 1.03105e-11)
(3.93731e-12 -2.01233e-12 8.65413e-12)
(7.9737e-12 -2.03347e-12 1.05113e-11)
(6.70746e-12 -1.0141e-12 6.4961e-12)
(1.03003e-11 -5.28899e-12 4.53272e-12)
(1.13277e-11 2.72789e-13 2.89065e-12)
(8.28121e-12 7.28313e-12 -4.77678e-13)
(1.09422e-11 -1.27636e-12 -4.10123e-13)
(1.69641e-11 6.51224e-12 3.06977e-12)
(1.44799e-11 2.60727e-11 6.69764e-12)
(6.50861e-12 3.28787e-11 1.34068e-11)
(2.52979e-12 2.6564e-11 1.72238e-11)
(7.34754e-12 3.05849e-11 2.05568e-11)
(1.04693e-11 3.78392e-11 1.96748e-11)
(7.46316e-12 3.76044e-11 1.50717e-11)
(7.87459e-12 4.64464e-11 1.35084e-11)
(7.12673e-12 4.45918e-11 1.69244e-11)
(1.23647e-12 4.4468e-11 1.75791e-11)
(-1.65229e-12 3.1497e-11 1.41046e-11)
(-7.83091e-12 1.49863e-11 1.38655e-11)
(-6.56069e-12 3.71958e-12 1.10909e-11)
(-6.50785e-12 2.80372e-12 4.53477e-12)
(-5.87129e-12 -7.92183e-12 2.47001e-13)
(7.49289e-12 -1.0055e-11 -5.32474e-12)
(1.64619e-11 -8.37477e-12 -3.89099e-12)
(1.99813e-11 -5.94802e-12 -7.45072e-12)
(1.89059e-11 -1.07897e-11 -1.81489e-11)
(1.84028e-11 -1.71338e-11 -3.22245e-11)
(1.98136e-11 -1.42217e-11 -4.76912e-11)
(2.51618e-11 -2.23037e-11 -5.13487e-11)
(3.20249e-11 -2.75144e-11 -5.87243e-11)
(4.31457e-11 -2.98776e-11 -6.14228e-11)
(57.9533 37.0754 -1.88843)
(67.1563 46.2762 -2.57721)
(79.04 59.748 -3.55641)
(93.8509 82.8616 -4.8106)
(110.156 119.686 -5.8011)
(118.113 170.295 -6.42023)
(120.116 219.268 -7.61729)
(113.165 261.665 -10.0741)
(116.637 207.118 -9.87255)
(135.212 68.4754 -3.50139)
(102.383 -18.9135 2.02193)
(103.44 -67.0077 5.75493)
(95.4996 -82.6936 6.71281)
(87.0787 -76.5898 6.64686)
(80.9587 -65.9823 6.34584)
(74.3594 -51.1861 5.61705)
(67.8004 -34.6426 4.52064)
(60.6191 -19.6765 3.25105)
(53.1735 -6.54089 1.74249)
(46.2468 4.45808 0.361294)
(39.0512 12.6683 -0.877619)
(31.9832 18.1958 -1.36593)
(25.6364 21.3358 -1.43231)
(19.667 21.6534 -1.05577)
(14.4856 19.3183 -0.60439)
(10.6959 15.4787 0.299158)
(8.72122 11.176 0.945273)
(8.0077 7.74885 1.44569)
(8.19456 5.51239 1.68772)
(9.77505 4.59052 1.9957)
(11.2237 2.86241 1.81755)
(13.2693 0.947907 1.4433)
(14.938 -1.48843 1.23475)
(16.9266 -3.42038 1.12348)
(17.9068 -4.84964 1.11655)
(17.5327 -6.09304 0.838811)
(16.1254 -7.74562 0.826631)
(14.196 -9.26915 0.799564)
(11.1339 -10.5171 0.928131)
(8.11366 -12.3983 1.03733)
(4.49325 -14.1156 1.12349)
(3.15076 -17.2748 1.24349)
(1.4884 -19.0343 1.25408)
(3.13954 -21.7843 1.32948)
(7.18323 -19.5454 1.18774)
(8.36264 -13.9687 0.80215)
(7.53 -8.68157 0.473062)
(5.70265 -5.3793 0.287268)
(4.30111 -3.50652 0.185718)
(3.3251 -2.42602 0.123769)
(2.6997 -1.70639 0.0809914)
(2.25404 -1.18177 0.0504119)
(1.84945 -0.774751 0.0279044)
(1.38979 -0.447106 0.0109528)
(0.829607 -0.188268 -0.00138536)
(0.21043 -0.00249161 -0.00864622)
(-0.297427 0.101476 -0.0123777)
(-0.499378 0.130507 -0.0122244)
(-0.497757 0.124614 -0.0109725)
(-0.429018 0.111801 -0.00953537)
(-0.30435 0.101646 -0.00854915)
(-0.224462 0.101632 -0.00807418)
(-0.211532 0.114145 -0.00815216)
(-0.279634 0.130113 -0.00844289)
(-0.459212 0.149991 -0.00882073)
(-0.668231 0.161395 -0.00876142)
(-0.741764 0.144739 -0.00759559)
(-0.698488 0.115475 -0.00590409)
(-0.586423 0.07991 -0.0039379)
(-0.371776 0.0444072 -0.00209867)
(-0.142773 0.0158246 -0.000718425)
(-0.0239406 0.00262241 -0.000115378)
(-0.0011668 0.000130627 -5.61916e-06)
(-1.09028e-05 1.25334e-06 -5.30019e-08)
(-1.3513e-08 1.60125e-09 -7.62536e-11)
(-3.54224e-12 2.56432e-11 1.36723e-12)
(-2.40814e-12 2.36572e-11 1.13733e-11)
(-4.43315e-12 2.64656e-11 1.71575e-11)
(-4.47697e-12 2.30045e-11 1.16892e-11)
(1.96491e-12 2.50136e-11 4.52812e-12)
(-8.55368e-13 3.03975e-11 -1.07302e-12)
(-5.23171e-12 2.79289e-11 -5.05555e-12)
(-4.29995e-12 2.99357e-11 -8.93562e-12)
(-5.019e-12 3.26578e-11 -1.4146e-11)
(-2.54826e-12 3.18858e-11 -1.86063e-11)
(-2.98767e-12 3.2329e-11 -2.29142e-11)
(-6.64923e-12 3.29196e-11 -8.32527e-12)
(-9.18845e-12 3.27006e-11 5.55074e-12)
(-8.18805e-12 2.94732e-11 1.3089e-11)
(-1.42093e-12 3.04366e-11 1.38421e-11)
(6.10121e-12 3.92527e-11 1.08785e-11)
(7.35472e-12 3.81105e-11 7.45573e-12)
(5.63175e-13 4.21436e-11 5.13952e-12)
(-7.87432e-12 4.34169e-11 3.15669e-12)
(-5.9044e-12 4.99874e-11 3.36041e-12)
(1.05644e-13 4.93624e-11 4.70157e-12)
(-6.1081e-12 4.79957e-11 5.27958e-12)
(-1.18111e-11 4.02283e-11 4.51488e-12)
(-1.79114e-11 2.79072e-11 1.79851e-12)
(-1.90359e-11 2.00892e-11 -3.29985e-12)
(-1.26374e-11 1.91902e-11 -2.82465e-12)
(-1.25163e-11 1.56818e-11 -2.35028e-12)
(-1.60944e-11 1.45525e-11 -2.77867e-13)
(-1.41776e-11 8.00098e-12 4.23274e-12)
(-1.33738e-11 8.56564e-12 1.35979e-11)
(-1.12298e-11 8.09482e-14 1.31154e-11)
(-9.66831e-12 1.20792e-12 9.50526e-12)
(-7.03289e-12 -4.44887e-13 1.09171e-11)
(-4.84136e-12 2.16541e-12 1.68004e-11)
(-3.98067e-12 -3.01155e-12 1.14538e-11)
(-6.51168e-13 3.17692e-12 5.21013e-12)
(6.63925e-12 2.1792e-12 2.52069e-12)
(9.55898e-12 6.32108e-12 1.06338e-12)
(7.42733e-12 6.34954e-12 -3.6282e-12)
(1.00233e-11 3.53248e-12 -7.06928e-12)
(9.02847e-12 3.28195e-12 -1.16111e-11)
(8.23569e-12 4.10567e-12 -8.88372e-12)
(1.20898e-11 4.16573e-12 -4.46746e-12)
(1.47103e-11 5.82871e-12 1.97488e-12)
(1.21706e-11 1.6792e-11 5.88653e-12)
(8.95476e-12 2.58787e-11 9.60995e-12)
(5.63272e-12 2.28738e-11 1.1813e-11)
(5.31823e-12 2.28447e-11 1.43964e-11)
(8.89326e-12 2.57431e-11 1.38695e-11)
(6.00143e-12 2.8564e-11 1.12743e-11)
(6.49431e-12 3.44823e-11 7.89652e-12)
(6.65642e-12 3.45558e-11 8.17778e-12)
(4.11661e-12 3.70444e-11 7.28361e-12)
(4.20315e-12 2.72438e-11 5.71948e-12)
(-3.90705e-12 1.56282e-11 5.02328e-12)
(-6.68336e-12 1.20947e-12 3.21431e-12)
(-5.43821e-12 4.82012e-12 -4.53291e-13)
(-4.25462e-12 -5.0392e-12 -4.73684e-12)
(6.37762e-12 -9.10925e-12 -1.06393e-11)
(1.69882e-11 -9.65663e-12 -8.89341e-12)
(2.09527e-11 -8.50143e-12 -6.44674e-12)
(2.08933e-11 -1.15581e-11 -9.69045e-12)
(1.76924e-11 -1.84845e-11 -2.46311e-11)
(1.94375e-11 -1.80743e-11 -4.35334e-11)
(2.41687e-11 -2.33915e-11 -5.0725e-11)
(3.22924e-11 -2.34203e-11 -5.3453e-11)
(4.25553e-11 -3.01184e-11 -5.49221e-11)
(40.5661 24.5809 -1.09227)
(45.6478 30.1541 -1.40757)
(51.6865 37.3328 -1.87849)
(58.7814 46.8592 -2.57856)
(67.1037 60.4186 -3.59234)
(75.5242 81.3077 -4.94719)
(81.6958 111.201 -6.21938)
(75.9795 150.557 -6.94933)
(54.1016 192.643 -7.06718)
(8.55755 219.644 -6.75328)
(-50.5816 179.088 -4.52791)
(-61.8297 63.7259 0.74912)
(-64.6439 -31.4276 3.90463)
(-20.5759 -72.6867 5.36328)
(11.4274 -78.774 5.5652)
(26.361 -75.1205 5.55498)
(34.9869 -62.9003 5.16459)
(38.3451 -48.7337 4.48781)
(38.6918 -34.579 3.67011)
(36.9144 -21.4529 2.79279)
(33.4933 -10.4434 1.80932)
(29.1893 -1.13786 0.785188)
(24.2747 6.57416 -0.0856905)
(18.1853 11.703 -0.644558)
(12.4487 15.0406 -0.924402)
(6.9058 16.4831 -0.930631)
(1.9482 15.8549 -0.955489)
(-1.76622 13.9995 -0.380545)
(-4.18679 11.5505 0.0600385)
(-5.44904 9.08683 0.460178)
(-5.89841 6.88279 0.835607)
(-5.85695 5.02312 1.28953)
(-5.53071 2.80153 1.36212)
(-4.87993 0.246105 1.26292)
(-4.00115 -2.3051 1.21077)
(-2.48391 -4.14691 1.16988)
(-1.42459 -5.62668 1.11644)
(-0.943242 -7.11701 1.05491)
(-0.653362 -8.73676 1.04246)
(-0.505238 -10.292 1.01796)
(-0.887496 -11.8803 1.06802)
(-1.05628 -13.4748 1.11989)
(-1.77752 -14.5884 1.11807)
(-1.58072 -15.8669 1.18693)
(-1.71087 -16.7753 1.0719)
(0.217817 -17.8589 1.11176)
(3.86007 -15.88 0.97608)
(5.8928 -11.9941 0.67433)
(5.98985 -8.07317 0.434333)
(4.84533 -5.27185 0.279087)
(3.77093 -3.50719 0.184473)
(2.95575 -2.43881 0.12391)
(2.43163 -1.72456 0.0820353)
(2.04803 -1.20634 0.0520611)
(1.68626 -0.801395 0.0297049)
(1.26008 -0.471049 0.0125383)
(0.731893 -0.204722 -0.000277647)
(0.148038 -0.00929814 -0.0080135)
(-0.322331 0.101689 -0.0121659)
(-0.501426 0.133019 -0.0121761)
(-0.494169 0.12824 -0.0110309)
(-0.424951 0.113769 -0.00956506)
(-0.301779 0.100987 -0.00851047)
(-0.227953 0.0998221 -0.00803559)
(-0.21707 0.111427 -0.00813252)
(-0.286618 0.129017 -0.00853584)
(-0.465474 0.152688 -0.0090545)
(-0.664711 0.166496 -0.0090456)
(-0.728828 0.151193 -0.00793021)
(-0.684502 0.122625 -0.00624905)
(-0.570524 0.0866462 -0.00424092)
(-0.356811 0.0486076 -0.00227631)
(-0.13395 0.0173247 -0.000779036)
(-0.0216979 0.00282774 -0.000123318)
(-0.00100892 0.000136332 -5.81861e-06)
(-8.89745e-06 1.24717e-06 -5.23633e-08)
(-1.03205e-08 1.50716e-09 -6.40121e-11)
(-9.61374e-13 2.01544e-11 5.20653e-12)
(-2.06005e-12 1.85402e-11 1.16133e-11)
(-3.95304e-12 2.00275e-11 1.03643e-11)
(-3.91148e-12 1.74701e-11 1.0048e-11)
(7.74135e-13 1.73901e-11 3.63494e-12)
(-2.40287e-12 2.43395e-11 -2.77161e-12)
(-6.43504e-12 2.3386e-11 -7.37478e-12)
(-4.39591e-12 2.53595e-11 -8.56947e-12)
(-3.33393e-12 2.46853e-11 -1.38208e-11)
(-2.67857e-12 2.59763e-11 -1.80523e-11)
(-3.30213e-12 2.53323e-11 -2.04246e-11)
(-6.91347e-12 2.59397e-11 -6.34081e-12)
(-8.58828e-12 2.21899e-11 4.63138e-12)
(-6.63269e-12 2.15111e-11 9.56652e-12)
(-1.92198e-12 2.22986e-11 1.29644e-11)
(5.77014e-12 2.9789e-11 1.17189e-11)
(6.72683e-12 3.36896e-11 7.30159e-12)
(-5.855e-13 4.19648e-11 5.64877e-12)
(-6.84832e-12 4.33072e-11 6.24915e-12)
(-5.27189e-12 4.04243e-11 5.01613e-12)
(-2.26245e-12 3.98513e-11 5.38361e-12)
(-6.19064e-12 4.06198e-11 6.039e-12)
(-7.61652e-12 3.1823e-11 8.34056e-12)
(-1.34112e-11 2.42238e-11 4.4366e-12)
(-1.69943e-11 1.54305e-11 -5.85024e-13)
(-1.23661e-11 1.18007e-11 2.87592e-13)
(-1.13746e-11 1.22437e-11 5.95194e-13)
(-1.37291e-11 7.57402e-12 4.50231e-14)
(-1.47637e-11 3.20025e-12 5.76239e-12)
(-1.33013e-11 3.00361e-12 1.04716e-11)
(-1.13884e-11 -9.49124e-13 1.03475e-11)
(-1.05914e-11 8.13258e-13 4.25154e-12)
(-8.24922e-12 -5.72445e-12 3.06506e-12)
(-4.54579e-12 -4.05636e-12 1.85689e-12)
(-4.94747e-12 -6.3686e-12 7.98315e-13)
(-3.23209e-12 -4.10386e-12 -1.19721e-12)
(4.92189e-12 -2.67711e-12 -4.11255e-12)
(8.11564e-12 5.33282e-12 -9.26835e-12)
(9.86935e-12 8.45309e-12 -1.42129e-11)
(1.27833e-11 3.64125e-12 -1.80383e-11)
(1.09699e-11 8.25246e-12 -2.14753e-11)
(7.98083e-12 4.25035e-12 -1.48112e-11)
(1.3377e-11 3.70322e-12 -5.97659e-12)
(1.54965e-11 7.68181e-12 6.47519e-13)
(9.0935e-12 1.29025e-11 4.88203e-12)
(6.92531e-12 1.49471e-11 9.16159e-12)
(6.26308e-12 1.65647e-11 1.04181e-11)
(6.02311e-12 1.5758e-11 1.07212e-11)
(8.92568e-12 2.08205e-11 1.02914e-11)
(4.39501e-12 2.3788e-11 7.7412e-12)
(5.10093e-12 2.37874e-11 3.56695e-12)
(6.3476e-12 2.58444e-11 1.3116e-12)
(4.16927e-12 2.439e-11 1.96176e-12)
(4.78519e-12 2.04428e-11 -1.72602e-13)
(6.80836e-13 9.21127e-12 9.45423e-13)
(-4.25023e-12 -1.24452e-13 1.78445e-13)
(-5.0324e-12 1.1506e-12 -5.17533e-12)
(-1.0415e-12 -4.49613e-12 -1.0253e-11)
(7.67289e-12 -9.37209e-12 -1.51287e-11)
(1.63833e-11 -1.31331e-11 -1.24492e-11)
(1.962e-11 -7.67363e-12 -6.01975e-12)
(2.24282e-11 -8.36233e-12 -7.0598e-12)
(1.9775e-11 -1.56151e-11 -1.83096e-11)
(1.9348e-11 -1.50378e-11 -3.43376e-11)
(2.31647e-11 -1.70991e-11 -4.40439e-11)
(2.86575e-11 -2.22978e-11 -4.58994e-11)
(3.71969e-11 -2.5949e-11 -4.7256e-11)
(33.2646 20.0395 -0.865751)
(36.6439 24.2714 -1.07169)
(40.6198 29.6737 -1.36937)
(45.1668 36.6443 -1.80987)
(50.0922 45.7943 -2.46025)
(54.8802 58.2653 -3.39306)
(58.7719 75.6056 -4.64013)
(58.0483 98.27 -5.97808)
(45.8717 125.004 -6.97804)
(17.1055 151.647 -7.09808)
(-34.5923 165.603 -6.21618)
(-92.4934 134.335 -3.94886)
(-116.63 62.0065 -0.629234)
(-111.36 -10.8736 2.38577)
(-78.3893 -54.813 3.64066)
(-36.1776 -64.3901 3.92792)
(-10.8835 -62.9806 4.11489)
(4.77824 -54.7856 3.90955)
(14.0699 -43.26 3.35654)
(18.9619 -31.447 2.71877)
(20.8366 -20.7441 2.09395)
(20.5359 -11.2847 1.49472)
(18.6613 -3.57896 0.905337)
(16.0956 2.40949 0.341077)
(12.046 6.84579 -0.0326397)
(7.63886 9.80411 -0.251021)
(3.2637 11.3045 -0.397983)
(-0.919246 11.4295 -0.497768)
(-4.36269 10.5277 -0.158752)
(-6.84065 8.98545 0.117468)
(-8.30315 7.21128 0.414208)
(-9.04567 5.60649 0.752526)
(-9.55998 4.22038 1.05076)
(-9.77971 2.7419 1.13307)
(-9.74275 1.03069 1.09858)
(-9.28864 -0.914921 1.06782)
(-8.49848 -2.85228 1.0445)
(-7.66828 -4.68124 1.01105)
(-6.93696 -6.40365 1.01231)
(-6.29689 -8.06337 1.03027)
(-5.62355 -9.53653 1.03895)
(-5.0753 -10.7961 1.06654)
(-4.51898 -11.8762 1.08861)
(-3.9683 -12.6947 1.06403)
(-3.35101 -13.531 1.07433)
(-2.7287 -14.2142 0.945016)
(-0.756634 -14.5667 0.912455)
(2.13516 -13.0737 0.775972)
(4.0324 -10.3697 0.573404)
(4.57008 -7.43332 0.398018)
(3.99903 -5.08767 0.267836)
(3.24624 -3.47553 0.182099)
(2.60824 -2.44139 0.123592)
(2.18526 -1.73986 0.0828053)
(1.85866 -1.22966 0.0533446)
(1.53407 -0.825822 0.0310196)
(1.13488 -0.490904 0.013529)
(0.633281 -0.215755 0.000234347)
(0.0828847 -0.011043 -0.00784512)
(-0.347597 0.105084 -0.012211)
(-0.502133 0.136964 -0.0122697)
(-0.488508 0.132444 -0.0111566)
(-0.418061 0.116616 -0.00965409)
(-0.296574 0.101829 -0.00854317)
(-0.22919 0.098824 -0.00805712)
(-0.221514 0.11048 -0.00819864)
(-0.294499 0.129836 -0.0086875)
(-0.474773 0.156356 -0.00932203)
(-0.664294 0.173431 -0.00942224)
(-0.717789 0.159695 -0.00836091)
(-0.672255 0.131178 -0.00664887)
(-0.554337 0.0939173 -0.00455791)
(-0.340343 0.0526753 -0.00244167)
(-0.123984 0.0185328 -0.000824972)
(-0.0191976 0.0029286 -0.000126579)
(-0.000839894 0.000133917 -5.67134e-06)
(-6.87318e-06 1.14217e-06 -4.76122e-08)
(-7.31431e-09 1.27439e-09 -4.80981e-11)
(-1.43648e-12 1.5149e-11 4.167e-12)
(-2.20147e-12 1.64505e-11 7.63757e-12)
(-3.14765e-12 2.02769e-11 3.2821e-12)
(-2.09241e-12 1.62763e-11 5.95972e-12)
(-4.73268e-13 1.50407e-11 1.97346e-12)
(-2.65659e-12 1.92611e-11 -4.04641e-12)
(-5.64987e-12 1.89522e-11 -8.88028e-12)
(-5.3085e-12 2.11003e-11 -5.77302e-12)
(-4.33481e-12 2.3619e-11 -1.03402e-11)
(-2.85128e-12 2.32526e-11 -1.47339e-11)
(-2.75247e-12 1.96061e-11 -1.53321e-11)
(-5.77043e-12 2.18943e-11 -3.58803e-12)
(-6.95574e-12 1.7511e-11 3.8711e-12)
(-6.57839e-12 1.7298e-11 9.34492e-12)
(-3.65923e-12 1.77429e-11 1.22315e-11)
(3.02577e-12 2.16991e-11 1.13175e-11)
(2.92085e-12 3.2413e-11 9.41951e-12)
(-1.57293e-12 3.58082e-11 6.32398e-12)
(-4.47718e-12 3.50969e-11 9.2022e-12)
(-3.78695e-12 3.06872e-11 7.4424e-12)
(-2.07959e-12 3.11899e-11 6.94245e-12)
(-5.27702e-12 2.99569e-11 5.91602e-12)
(-6.54001e-12 2.2598e-11 8.75326e-12)
(-1.14742e-11 1.88667e-11 5.37089e-12)
(-1.45097e-11 1.17277e-11 1.32926e-12)
(-1.12885e-11 6.69234e-12 3.56218e-12)
(-1.12101e-11 4.68094e-12 1.07349e-12)
(-1.37077e-11 3.72799e-12 8.22698e-13)
(-1.44273e-11 5.34424e-13 3.8279e-12)
(-1.30714e-11 -1.74762e-12 7.05436e-12)
(-1.298e-11 -1.70956e-12 8.31944e-12)
(-9.07143e-12 -1.11121e-12 -8.9406e-13)
(-6.77648e-12 -6.36075e-12 -8.2899e-12)
(-6.50405e-12 -5.29528e-12 -1.22207e-11)
(-4.82928e-12 -1.7495e-12 -1.12999e-11)
(-1.547e-12 -2.47411e-12 -1.14856e-11)
(3.67326e-12 -1.50473e-12 -1.3709e-11)
(6.95259e-12 2.90431e-13 -1.55629e-11)
(9.99388e-12 1.48707e-12 -1.82036e-11)
(1.17653e-11 1.59685e-12 -2.43285e-11)
(9.97772e-12 9.27071e-12 -2.99984e-11)
(1.05855e-11 5.75862e-12 -1.67411e-11)
(1.24701e-11 4.1457e-12 -6.66e-12)
(1.23704e-11 1.28893e-11 -6.1649e-13)
(1.03133e-11 1.63987e-11 4.93036e-12)
(8.41861e-12 1.23767e-11 8.44415e-12)
(4.84047e-12 1.35597e-11 9.86555e-12)
(3.96157e-12 1.13302e-11 1.0485e-11)
(6.94337e-12 2.24447e-11 9.97068e-12)
(5.28251e-12 2.28689e-11 5.88398e-12)
(5.24692e-12 2.09703e-11 4.17471e-13)
(7.32304e-12 2.20595e-11 -2.82186e-12)
(4.04139e-12 2.0213e-11 -3.64049e-12)
(5.51841e-12 1.3309e-11 -2.26576e-12)
(3.60638e-12 4.82596e-12 -1.79966e-12)
(-3.09037e-12 1.26522e-12 1.06636e-12)
(-4.02503e-12 -3.90208e-12 -6.85178e-12)
(1.47812e-13 -7.75048e-12 -1.388e-11)
(8.31635e-12 -1.0085e-11 -1.31603e-11)
(1.54904e-11 -9.03465e-12 -8.27104e-12)
(1.88369e-11 -9.7869e-12 -2.73352e-12)
(2.33052e-11 -7.73223e-12 -6.32347e-12)
(2.01953e-11 -1.14659e-11 -2.06579e-11)
(1.78598e-11 -1.5652e-11 -2.95153e-11)
(2.20014e-11 -1.31912e-11 -3.14844e-11)
(2.75158e-11 -2.03662e-11 -3.54763e-11)
(3.64994e-11 -2.44049e-11 -3.5955e-11)
(30.1547 19.5848 -0.842627)
(32.7357 23.5819 -1.03381)
(35.6312 28.6311 -1.30364)
(38.7235 35.059 -1.69199)
(41.651 43.2771 -2.25032)
(43.7376 53.9661 -3.03097)
(44.6092 67.621 -4.05562)
(39.8859 84.2325 -5.22224)
(26.4697 101.378 -6.2139)
(1.7865 114.988 -6.59033)
(-35.8354 117.672 -5.98471)
(-77.6199 97.3554 -4.1595)
(-99.4823 56.1018 -1.97988)
(-98.9004 9.67415 0.361691)
(-84.9428 -27.1979 1.67257)
(-52.5996 -43.0944 2.22399)
(-27.5109 -45.9335 2.52644)
(-11.0006 -42.129 2.44001)
(0.212181 -34.6314 2.08646)
(7.26642 -26.258 1.71544)
(11.0824 -17.9878 1.41174)
(12.5727 -10.6138 1.13771)
(12.3312 -4.28444 0.847762)
(11.2109 0.845022 0.559506)
(8.68146 4.47224 0.422501)
(5.44828 6.66908 0.313998)
(2.24354 7.96336 0.17165)
(-0.885418 8.37517 0.0467523)
(-3.6602 8.08582 0.209354)
(-5.98107 7.25418 0.336283)
(-7.78297 6.00924 0.482501)
(-8.95959 4.56098 0.659626)
(-9.74495 3.23389 0.790017)
(-10.2559 1.9304 0.876264)
(-10.4257 0.461559 0.915514)
(-10.1808 -1.07643 0.928431)
(-9.65698 -2.53862 0.941171)
(-8.97636 -3.9953 0.954261)
(-8.36909 -5.47333 0.963062)
(-7.73208 -6.81484 0.980758)
(-6.97266 -7.94684 0.989205)
(-6.15765 -8.89026 0.997463)
(-5.35732 -9.72007 1.00236)
(-4.54429 -10.4803 0.962336)
(-3.62263 -11.206 0.895529)
(-2.66284 -11.8504 0.799944)
(-0.797718 -12.0555 0.759837)
(1.5628 -10.873 0.651562)
(3.04958 -8.82828 0.490611)
(3.55997 -6.60735 0.351688)
(3.26342 -4.74323 0.247697)
(2.76204 -3.3423 0.173644)
(2.28805 -2.38318 0.119583)
(1.95648 -1.7133 0.080923)
(1.67782 -1.22031 0.0525999)
(1.38372 -0.823978 0.0307942)
(1.00677 -0.490931 0.0134372)
(0.529624 -0.213286 6.85783e-05)
(0.0137205 -0.00516679 -0.00805887)
(-0.373375 0.111811 -0.0124375)
(-0.502254 0.142355 -0.0124546)
(-0.481526 0.137434 -0.0113289)
(-0.40926 0.119603 -0.00976013)
(-0.290054 0.103435 -0.00859741)
(-0.230214 0.0995064 -0.00811949)
(-0.22675 0.11142 -0.00830935)
(-0.304853 0.132229 -0.00889826)
(-0.486846 0.16145 -0.00964687)
(-0.664481 0.180658 -0.0097926)
(-0.706153 0.166968 -0.00872297)
(-0.659391 0.13815 -0.00696604)
(-0.53629 0.0996717 -0.00480033)
(-0.321773 0.0555615 -0.00255283)
(-0.11287 0.0191258 -0.000844348)
(-0.016514 0.00288885 -0.000123982)
(-0.000669426 0.000123219 -5.18625e-06)
(-4.98971e-06 9.60467e-07 -3.97921e-08)
(-4.76652e-09 9.67309e-10 -3.65058e-11)
(-9.1055e-13 2.00803e-11 3.16599e-12)
(-3.72797e-12 1.90252e-11 3.42574e-12)
(-3.75241e-12 1.92935e-11 2.78828e-14)
(-1.36181e-12 2.05517e-11 3.78381e-12)
(-2.52596e-13 2.2612e-11 8.79271e-13)
(-2.45606e-12 1.95191e-11 -5.06092e-12)
(-6.28728e-12 1.97511e-11 -1.1023e-11)
(-5.66933e-12 2.14485e-11 -9.45499e-12)
(-4.62876e-12 2.38697e-11 -1.17304e-11)
(-2.19817e-12 2.67801e-11 -9.81314e-12)
(-2.55226e-12 2.38003e-11 -8.59888e-12)
(-6.14922e-12 2.4266e-11 -2.74441e-12)
(-6.23241e-12 2.28864e-11 -8.5339e-13)
(-5.43501e-12 2.38803e-11 4.50843e-12)
(-3.61152e-12 2.05682e-11 1.02196e-11)
(2.18482e-13 2.09526e-11 1.10853e-11)
(1.26618e-12 2.60919e-11 1.19728e-11)
(-2.12994e-12 3.20823e-11 1.12978e-11)
(-3.96505e-12 2.98576e-11 1.39986e-11)
(-4.2263e-12 2.37587e-11 9.63785e-12)
(-2.46359e-12 2.53378e-11 8.27833e-12)
(-3.28669e-12 2.46691e-11 3.28144e-12)
(-5.04021e-12 2.30019e-11 8.73001e-12)
(-1.1405e-11 1.8236e-11 6.00735e-12)
(-1.24536e-11 1.54909e-11 7.14977e-13)
(-9.95676e-12 8.93595e-12 7.55955e-12)
(-1.06745e-11 5.54471e-12 2.42606e-12)