/*--------------------------------*- C++ -*----------------------------------*\
| =========                 |                                                 |
| \\      /  F ield         | OpenFOAM: The Open Source CFD Toolbox           |
|  \\    /   O peration     | Version:  2406                                  |
|   \\  /    A nd           | Website:  www.openfoam.com                      |
|    \\/     M anipulation  |                                                 |
\*---------------------------------------------------------------------------*/
FoamFile
{
    version     2.0;
    format      ascii;
    arch        "LSB;label=32;scalar=64";
    class       volScalarField;
    location    "0.075";
    object      Ma;
}
// * * * * * * * * * * * * * * * * * * * * * * * * * * * * * * * * * * * * * //

dimensions      [0 0 0 0 0 0 0];

internalField   nonuniform List<scalar> 
13988
(
3.95348e-14
5.52138e-14
4.98918e-14
4.6746e-14
4.84733e-14
4.94302e-14
2.52303e-14
2.55556e-14
2.21526e-14
2.26681e-14
2.08602e-14
3.81758e-14
6.37623e-14
6.75799e-14
8.34729e-14
1.09361e-13
1.00396e-13
6.42091e-14
4.18822e-14
2.63612e-14
3.05786e-14
3.28922e-14
5.49635e-14
6.9413e-14
7.93533e-14
6.30696e-14
5.0735e-14
3.16012e-14
3.45336e-14
5.26421e-14
5.4094e-14
6.64313e-14
7.70613e-14
7.59918e-14
7.955e-14
6.75518e-14
5.71563e-14
5.38737e-14
4.80751e-14
4.0574e-14
3.53045e-14
2.79416e-14
3.22307e-14
3.15638e-14
2.96203e-14
4.03852e-14
4.01338e-14
3.37218e-14
3.44769e-14
3.73223e-14
4.82277e-14
5.62077e-14
4.43079e-14
4.33054e-14
5.10259e-14
3.97129e-14
4.40585e-14
3.82526e-14
3.78654e-14
4.74679e-14
5.54921e-14
4.64236e-14
4.28464e-14
3.66465e-14
3.82602e-14
3.76654e-14
3.65344e-14
3.14283e-14
3.48628e-14
3.3738e-14
3.22074e-14
3.12902e-14
3.39729e-14
4.65574e-14
4.78264e-14
5.04539e-14
4.56853e-14
4.89921e-14
4.88372e-14
4.70678e-14
3.99233e-14
3.08251e-14
2.91831e-14
3.23269e-14
3.00788e-14
2.82643e-14
3.56058e-14
5.48089e-14
7.16587e-14
6.35237e-14
4.21217e-14
2.83816e-14
3.35209e-14
3.48156e-14
3.441e-14
3.71801e-14
3.4831e-14
4.70501e-14
6.84492e-14
7.59934e-14
7.33793e-14
2.5268e-14
3.10997e-14
4.84046e-14
4.96477e-14
5.63442e-14
6.19282e-14
3.13035e-14
1.42881e-14
3.06937e-14
2.63441e-14
3.17026e-14
4.45872e-14
6.3092e-14
6.49701e-14
7.42917e-14
8.85647e-14
9.02772e-14
5.16465e-14
2.99006e-14
3.67538e-14
3.69729e-14
4.12724e-14
5.23844e-14
5.87834e-14
6.5279e-14
5.35718e-14
3.67475e-14
3.16649e-14
5.03604e-14
6.44243e-14
6.47501e-14
7.35053e-14
9.09324e-14
8.27056e-14
7.50215e-14
6.55156e-14
4.95948e-14
4.30741e-14
4.89957e-14
3.68921e-14
3.82095e-14
3.27851e-14
3.22968e-14
2.73746e-14
3.77754e-14
4.32061e-14
4.03577e-14
3.01883e-14
3.75242e-14
4.21527e-14
6.05085e-14
7.10664e-14
5.49721e-14
5.74364e-14
5.53654e-14
4.50705e-14
4.40391e-14
2.92629e-14
3.63688e-14
4.53274e-14
5.70162e-14
4.9282e-14
4.12892e-14
3.52421e-14
3.86955e-14
4.01236e-14
4.21384e-14
4.46098e-14
4.73152e-14
4.66852e-14
3.63889e-14
2.85591e-14
3.19328e-14
4.64939e-14
5.40243e-14
4.98319e-14
4.4011e-14
4.81234e-14
4.65466e-14
4.86241e-14
4.7658e-14
3.77478e-14
4.11733e-14
3.91473e-14
3.658e-14
3.78158e-14
4.34537e-14
5.79185e-14
8.42257e-14
7.80217e-14
5.58168e-14
3.49222e-14
3.43706e-14
2.41152e-14
2.6502e-14
3.24695e-14
2.81583e-14
5.37387e-14
8.33129e-14
8.32644e-14
1.95332e-14
2.12141e-14
3.74667e-14
4.09609e-14
4.10512e-14
5.1516e-14
2.89631e-14
2.80769e-14
4.90398e-14
4.942e-14
5.79096e-14
5.80895e-14
5.90062e-14
6.37055e-14
6.49515e-14
7.57237e-14
6.84337e-14
4.59449e-14
3.12367e-14
3.06988e-14
3.33999e-14
4.1185e-14
4.49238e-14
5.69321e-14
6.12887e-14
5.01586e-14
3.05323e-14
4.57437e-14
5.72577e-14
7.03892e-14
8.07305e-14
8.65698e-14
9.09393e-14
9.52459e-14
8.27723e-14
7.30967e-14
5.5332e-14
4.39569e-14
4.35634e-14
4.69042e-14
3.85346e-14
3.20052e-14
3.64756e-14
3.47902e-14
4.41834e-14
4.01994e-14
2.85167e-14
1.87126e-14
2.99212e-14
3.88174e-14
5.0366e-14
6.3472e-14
5.7388e-14
4.854e-14
4.66302e-14
4.14396e-14
3.62543e-14
3.08323e-14
3.4442e-14
4.54373e-14
5.53838e-14
5.41613e-14
4.68349e-14
4.44877e-14
3.76365e-14
3.52606e-14
4.60968e-14
5.30808e-14
5.21313e-14
5.14973e-14
4.3628e-14
4.46349e-14
4.13258e-14
4.78465e-14
5.14257e-14
5.32162e-14
5.15824e-14
5.21656e-14
5.35674e-14
5.52888e-14
5.22001e-14
3.62931e-14
3.60761e-14
3.47018e-14
4.29081e-14
4.79747e-14
4.87188e-14
3.59248e-14
5.87616e-14
5.13887e-14
4.43398e-14
4.50169e-14
3.67011e-14
2.72234e-14
3.10624e-14
2.59008e-14
1.56038e-14
4.24626e-14
6.68152e-14
6.54223e-14
2.23479e-14
2.38932e-14
2.00452e-14
1.62675e-14
1.74597e-14
1.63485e-14
3.59872e-14
4.20439e-14
4.43692e-14
5.18975e-14
5.03995e-14
5.03562e-14
5.45864e-14
5.52549e-14
5.26386e-14
3.96832e-14
3.97785e-14
3.39303e-14
2.33306e-14
2.70756e-14
3.23154e-14
3.33808e-14
3.60968e-14
4.51614e-14
4.27835e-14
3.14295e-14
5.42317e-14
5.54511e-14
7.3067e-14
8.54186e-14
9.50138e-14
9.77081e-14
9.30563e-14
7.42603e-14
6.66441e-14
5.2007e-14
5.05452e-14
4.23859e-14
4.01893e-14
4.25286e-14
3.77992e-14
3.64223e-14
3.49683e-14
3.7477e-14
3.35231e-14
2.45892e-14
2.3427e-14
2.0606e-14
3.13645e-14
3.85831e-14
3.95497e-14
3.40771e-14
3.1086e-14
3.18597e-14
3.4196e-14
3.45236e-14
3.29432e-14
3.6914e-14
3.94782e-14
4.86455e-14
4.81234e-14
3.91353e-14
4.00711e-14
3.55938e-14
3.83251e-14
4.46456e-14
4.8937e-14
4.50515e-14
5.39725e-14
5.339e-14
5.49009e-14
4.92518e-14
5.01193e-14
5.47307e-14
5.12362e-14
4.56129e-14
4.66667e-14
5.22362e-14
5.33985e-14
4.74561e-14
3.23752e-14
3.06957e-14
2.51285e-14
3.76699e-14
4.5517e-14
4.52403e-14
3.60178e-14
3.45869e-14
3.27791e-14
3.80311e-14
4.87473e-14
4.82058e-14
3.72696e-14
2.62346e-14
1.78883e-14
1.96347e-14
2.43051e-14
3.70487e-14
2.32556e-14
1.39897e-14
8.03098e-15
1.51555e-14
1.92356e-14
3.52644e-14
3.3603e-14
3.86824e-14
3.99538e-14
4.95797e-14
4.63961e-14
4.72475e-14
4.56297e-14
4.88927e-14
4.45444e-14
3.74557e-14
3.68674e-14
3.86595e-14
3.16946e-14
3.80431e-14
3.53222e-14
3.47245e-14
2.69903e-14
2.62173e-14
3.47032e-14
3.41675e-14
4.98434e-14
5.47046e-14
6.93516e-14
7.91945e-14
9.27874e-14
1.01863e-13
8.87136e-14
6.6193e-14
5.99689e-14
5.72493e-14
5.91986e-14
5.35556e-14
3.48821e-14
4.16497e-14
4.25519e-14
4.13931e-14
3.79385e-14
3.41372e-14
3.34305e-14
3.24273e-14
3.11469e-14
2.7585e-14
3.25445e-14
3.5245e-14
3.28917e-14
3.09563e-14
3.63812e-14
3.67761e-14
3.6576e-14
3.43906e-14
3.33386e-14
3.82346e-14
4.15565e-14
4.72725e-14
4.40835e-14
4.06355e-14
3.96901e-14
3.82318e-14
3.94875e-14
3.27343e-14
3.28558e-14
4.27269e-14
6.2215e-14
6.25823e-14
5.51587e-14
5.29492e-14
5.29998e-14
5.43052e-14
5.22146e-14
4.37775e-14
4.65086e-14
4.58429e-14
4.72091e-14
5.02878e-14
3.92748e-14
3.26097e-14
3.40395e-14
4.06492e-14
5.67448e-14
5.69141e-14
5.48948e-14
5.88024e-14
6.32974e-14
6.49424e-14
6.29327e-14
5.55269e-14
4.50057e-14
2.99726e-14
1.55193e-14
2.15411e-14
2.40095e-14
3.08104e-14
2.08473e-14
1.05366e-14
9.99435e-15
1.77171e-14
2.74769e-14
3.45498e-14
3.70686e-14
3.78868e-14
4.11611e-14
4.39418e-14
4.25751e-14
4.13718e-14
3.82606e-14
4.04621e-14
3.78006e-14
3.86474e-14
3.26367e-14
4.16758e-14
3.63962e-14
3.66522e-14
3.27447e-14
2.45303e-14
3.36504e-14
3.41632e-14
4.20878e-14
4.51775e-14
4.85893e-14
5.5834e-14
6.13238e-14
7.48204e-14
9.02863e-14
1.01122e-13
8.5723e-14
6.59116e-14
6.71809e-14
6.64688e-14
5.46793e-14
4.95072e-14
3.22041e-14
2.91057e-14
3.2203e-14
3.56565e-14
3.28433e-14
3.24931e-14
3.00698e-14
3.15956e-14
3.40499e-14
3.29325e-14
4.23728e-14
4.19827e-14
3.67873e-14
3.54632e-14
3.75418e-14
3.55532e-14
3.96639e-14
2.96011e-14
4.02252e-14
4.27135e-14
4.88538e-14
5.26305e-14
4.70246e-14
4.79053e-14
4.38209e-14
3.88472e-14
3.16618e-14
2.74169e-14
2.52014e-14
4.05916e-14
6.25051e-14
6.61569e-14
6.12816e-14
5.15996e-14
5.30871e-14
4.89159e-14
4.96199e-14
4.33724e-14
4.30712e-14
4.16139e-14
4.23423e-14
4.67832e-14
3.83246e-14
3.51414e-14
3.62035e-14
3.8065e-14
5.35008e-14
5.20314e-14
5.45568e-14
6.37736e-14
6.86378e-14
7.86428e-14
7.94938e-14
7.22214e-14
6.46661e-14
4.80625e-14
2.53513e-14
1.72335e-14
1.77642e-14
1.84798e-14
3.47239e-14
1.89715e-14
2.29524e-14
3.2098e-14
3.6304e-14
3.96551e-14
3.97343e-14
3.80233e-14
3.94582e-14
3.96526e-14
4.05438e-14
3.81521e-14
3.68083e-14
3.71592e-14
3.80101e-14
3.71903e-14
3.82272e-14
3.88006e-14
3.48286e-14
3.48823e-14
2.89286e-14
2.43413e-14
4.45607e-14
4.06775e-14
4.03935e-14
4.3759e-14
4.54679e-14
4.92916e-14
5.51041e-14
6.38715e-14
8.26206e-14
9.60843e-14
8.54538e-14
6.58322e-14
7.44077e-14
7.22638e-14
5.94698e-14
4.32712e-14
3.43684e-14
3.64442e-14
3.26845e-14
3.79364e-14
4.32946e-14
4.66001e-14
4.64685e-14
4.97216e-14
5.40368e-14
4.65189e-14
4.59793e-14
4.77461e-14
3.93446e-14
4.05175e-14
3.81849e-14
4.36023e-14
5.11149e-14
4.52304e-14
4.74072e-14
5.21299e-14
5.09817e-14
4.9401e-14
5.04475e-14
5.84429e-14
4.47432e-14
3.79454e-14
3.94971e-14
3.52142e-14
3.89053e-14
4.87898e-14
5.22842e-14
5.49377e-14
5.87665e-14
6.19071e-14
6.07726e-14
4.8949e-14
4.36535e-14
4.28264e-14
3.98514e-14
4.0347e-14
4.39623e-14
4.66859e-14
3.65254e-14
4.09345e-14
4.02705e-14
4.96704e-14
5.94453e-14
5.68428e-14
5.65621e-14
5.85543e-14
6.60368e-14
7.63018e-14
8.56579e-14
8.55665e-14
7.28147e-14
6.17858e-14
4.34135e-14
3.07594e-14
2.57688e-14
2.46845e-14
5.69124e-14
3.8241e-14
4.71372e-14
5.95935e-14
5.12562e-14
3.92818e-14
4.08913e-14
4.11679e-14
4.53614e-14
5.04469e-14
5.30017e-14
4.98188e-14
5.10993e-14
5.5852e-14
6.05068e-14
5.34226e-14
5.17677e-14
4.36758e-14
4.64886e-14
4.18523e-14
4.48581e-14
4.23614e-14
4.74718e-14
4.92821e-14
5.65711e-14
5.5447e-14
5.86655e-14
5.56763e-14
6.35873e-14
7.26047e-14
7.90495e-14
8.31753e-14
8.52991e-14
7.31829e-14
6.85736e-14
6.50265e-14
6.03597e-14
5.44716e-14
5.00223e-14
5.36213e-14
5.30106e-14
4.88173e-14
5.54789e-14
5.96378e-14
6.33545e-14
6.66005e-14
6.64656e-14
5.95457e-14
5.05547e-14
5.0605e-14
5.45206e-14
6.0588e-14
6.09963e-14
6.61539e-14
6.46647e-14
6.77914e-14
5.58911e-14
5.08869e-14
5.46123e-14
5.92268e-14
6.97203e-14
7.02034e-14
6.40796e-14
5.75126e-14
5.55958e-14
5.18137e-14
5.89308e-14
6.00855e-14
5.90118e-14
6.17484e-14
6.46336e-14
6.98293e-14
7.45543e-14
6.50263e-14
5.13771e-14
5.45186e-14
5.37229e-14
5.00961e-14
4.31675e-14
4.74824e-14
4.29379e-14
4.76132e-14
4.75863e-14
5.70253e-14
6.14681e-14
6.26127e-14
5.83419e-14
6.43613e-14
6.61521e-14
7.43446e-14
7.4906e-14
8.0935e-14
7.6745e-14
7.01003e-14
5.45966e-14
5.57229e-14
4.536e-14
4.71487e-14
5.72833e-14
5.11678e-14
5.97383e-14
6.88608e-14
6.35672e-14
5.31146e-14
5.46138e-14
5.0307e-14
5.89092e-14
5.66337e-14
5.12052e-14
4.75896e-14
5.56863e-14
6.22508e-14
6.49499e-14
6.11063e-14
6.30692e-14
5.99735e-14
5.39059e-14
4.24479e-14
4.96255e-14
4.98568e-14
4.23454e-14
5.53229e-14
6.71107e-14
6.41933e-14
6.95929e-14
6.52594e-14
6.63617e-14
5.97892e-14
7.17477e-14
7.6303e-14
6.96351e-14
6.62283e-14
6.84546e-14
6.92259e-14
6.27522e-14
5.43199e-14
5.86817e-14
5.14264e-14
5.73848e-14
5.30181e-14
5.23243e-14
5.23073e-14
5.37615e-14
5.16485e-14
6.08697e-14
7.20386e-14
6.83792e-14
5.70576e-14
6.74416e-14
6.74489e-14
7.10352e-14
7.10146e-14
6.29505e-14
6.31363e-14
6.61618e-14
5.79386e-14
6.68999e-14
6.63981e-14
6.9555e-14
6.88304e-14
6.90794e-14
6.76669e-14
6.64499e-14
6.23827e-14
6.42582e-14
6.40183e-14
6.85022e-14
6.90661e-14
6.87761e-14
6.6088e-14
6.75845e-14
6.7533e-14
6.45106e-14
6.38253e-14
6.15307e-14
6.01758e-14
4.88247e-14
5.29356e-14
5.10121e-14
4.47074e-14
4.91012e-14
5.55365e-14
6.97633e-14
6.98179e-14
6.75722e-14
7.15013e-14
7.18206e-14
7.82895e-14
8.04774e-14
7.32579e-14
8.22888e-14
8.24645e-14
7.11497e-14
6.29128e-14
5.76238e-14
5.75258e-14
4.94913e-14
4.78907e-14
5.00611e-14
5.28506e-14
5.42322e-14
5.30365e-14
5.23748e-14
4.96768e-14
5.20254e-14
4.91072e-14
5.13557e-14
5.88138e-14
5.82643e-14
5.70701e-14
5.70904e-14
6.1643e-14
5.41531e-14
5.83335e-14
4.86746e-14
4.30282e-14
4.90029e-14
5.04818e-14
4.9926e-14
5.63817e-14
5.63017e-14
5.14201e-14
6.07937e-14
6.12168e-14
6.27679e-14
5.58917e-14
6.1212e-14
6.5879e-14
5.50616e-14
5.79095e-14
6.3454e-14
6.51493e-14
6.11959e-14
5.33935e-14
5.81342e-14
5.52646e-14
5.29089e-14
5.1739e-14
5.42282e-14
4.98714e-14
5.30353e-14
4.73367e-14
5.68893e-14
7.0093e-14
7.16075e-14
6.76712e-14
6.55595e-14
6.5514e-14
6.8686e-14
6.41445e-14
6.00137e-14
5.80404e-14
6.65555e-14
6.53104e-14
6.1593e-14
6.02877e-14
6.0672e-14
6.20007e-14
6.30338e-14
6.24053e-14
6.43788e-14
6.28256e-14
5.8484e-14
6.28506e-14
5.97268e-14
6.3658e-14
6.07765e-14
5.72017e-14
5.47092e-14
5.74582e-14
5.55621e-14
5.02494e-14
4.80785e-14
5.28918e-14
5.64411e-14
5.01593e-14
5.53138e-14
5.33073e-14
5.68531e-14
5.61491e-14
5.53591e-14
6.36467e-14
6.47226e-14
6.90048e-14
7.0948e-14
6.92435e-14
7.25867e-14
7.03742e-14
7.20659e-14
6.4433e-14
5.47726e-14
5.49457e-14
6.24335e-14
5.90033e-14
3.56758e-14
4.23851e-14
4.33128e-14
4.02026e-14
4.38754e-14
4.76734e-14
4.38631e-14
4.75398e-14
4.22712e-14
4.27937e-14
5.34267e-14
6.07804e-14
6.24187e-14
6.19839e-14
6.08615e-14
5.72443e-14
4.75292e-14
4.86405e-14
4.51436e-14
5.31658e-14
4.78831e-14
5.55855e-14
5.84749e-14
5.46643e-14
4.72294e-14
4.67784e-14
4.85803e-14
5.49309e-14
5.09254e-14
5.77576e-14
5.24027e-14
4.94678e-14
3.75724e-14
4.18201e-14
4.67781e-14
4.72266e-14
4.35675e-14
4.66824e-14
4.25676e-14
4.36491e-14
3.77532e-14
3.87697e-14
4.0197e-14
4.65726e-14
4.24741e-14
4.70971e-14
5.05422e-14
5.53085e-14
5.9904e-14
6.62228e-14
5.4858e-14
5.32026e-14
5.53218e-14
4.92191e-14
4.8137e-14
4.90288e-14
4.73384e-14
4.80224e-14
4.35771e-14
4.44366e-14
4.60849e-14
4.32235e-14
4.36444e-14
5.04188e-14
4.94245e-14
5.82783e-14
5.9005e-14
5.65116e-14
5.47948e-14
5.59863e-14
5.77462e-14
5.26349e-14
5.08418e-14
4.39589e-14
4.47894e-14
4.17326e-14
4.04233e-14
3.98794e-14
4.3036e-14
4.23544e-14
4.86441e-14
5.19476e-14
5.26607e-14
4.61044e-14
4.0797e-14
4.82825e-14
5.62509e-14
5.74061e-14
5.56622e-14
5.45857e-14
5.79283e-14
5.91197e-14
4.67062e-14
3.52712e-14
3.51093e-14
3.55959e-14
4.49638e-14
4.23967e-14
4.08678e-14
4.58512e-14
4.19212e-14
4.28847e-14
3.55092e-14
3.16989e-14
3.66709e-14
3.92101e-14
3.38331e-14
3.01901e-14
4.61724e-14
5.22099e-14
5.42845e-14
5.69768e-14
5.3428e-14
5.13899e-14
4.9753e-14
4.04171e-14
4.49927e-14
4.78021e-14
4.6986e-14
5.33409e-14
5.75653e-14
5.068e-14
5.12475e-14
5.276e-14
4.86575e-14
5.3532e-14
4.79923e-14
5.12104e-14
4.07942e-14
4.83905e-14
4.73165e-14
3.62084e-14
3.23992e-14
3.52858e-14
3.58782e-14
4.14407e-14
4.28889e-14
4.01161e-14
4.05423e-14
3.95561e-14
3.71875e-14
4.40733e-14
4.73049e-14
5.21337e-14
5.56833e-14
6.03935e-14
6.36367e-14
5.8391e-14
5.05313e-14
5.06889e-14
4.39354e-14
3.74661e-14
4.11438e-14
4.69774e-14
4.99055e-14
4.74228e-14
5.00202e-14
4.9516e-14
4.35266e-14
3.00439e-14
2.58659e-14
3.92039e-14
3.83048e-14
4.97735e-14
5.55933e-14
5.24319e-14
4.98957e-14
5.05924e-14
4.71389e-14
5.31845e-14
4.3753e-14
2.98346e-14
3.75928e-14
4.28691e-14
3.87363e-14
3.16858e-14
2.75664e-14
2.96615e-14
3.62002e-14
3.38138e-14
4.03449e-14
4.12329e-14
3.42984e-14
4.3392e-14
5.74806e-14
5.02028e-14
5.05468e-14
5.4423e-14
4.42726e-14
3.68512e-14
3.18172e-14
3.73737e-14
3.57205e-14
3.19106e-14
4.04547e-14
3.8966e-14
4.20796e-14
5.18046e-14
3.89817e-14
3.89902e-14
2.71855e-14
3.52342e-14
3.32559e-14
3.04873e-14
2.52651e-14
3.64488e-14
4.62687e-14
4.78992e-14
5.46496e-14
5.85298e-14
5.4181e-14
5.66748e-14
4.79405e-14
4.0461e-14
4.34499e-14
4.23076e-14
4.73744e-14
4.63661e-14
5.5388e-14
5.94331e-14
5.6325e-14
6.23633e-14
5.86983e-14
5.79148e-14
5.41028e-14
6.09252e-14
6.93188e-14
7.33109e-14
7.19591e-14
6.7074e-14
6.05922e-14
5.13613e-14
4.39671e-14
4.39951e-14
5.4412e-14
5.40578e-14
5.34126e-14
5.30454e-14
4.66186e-14
4.35104e-14
4.74333e-14
5.79338e-14
6.93783e-14
6.65441e-14
6.54091e-14
5.48691e-14
5.35568e-14
5.49183e-14
4.83695e-14
5.25701e-14
4.77665e-14
5.77689e-14
6.13603e-14
6.2491e-14
5.75773e-14
4.66987e-14
4.1753e-14
3.71117e-14
3.74909e-14
3.24818e-14
3.81465e-14
4.56025e-14
4.17107e-14
3.89804e-14
4.50198e-14
5.03072e-14
4.918e-14
4.92423e-14
3.85133e-14
3.49457e-14
3.79406e-14
3.48849e-14
3.85638e-14
3.2439e-14
3.15298e-14
2.455e-14
2.99914e-14
2.99162e-14
3.75395e-14
4.05019e-14
4.21153e-14
4.55763e-14
5.69047e-14
5.33202e-14
5.28009e-14
4.43786e-14
3.343e-14
4.16744e-14
5.37471e-14
4.66534e-14
4.42734e-14
4.39823e-14
4.65609e-14
4.41391e-14
2.88412e-14
2.95567e-14
2.45589e-14
2.3765e-14
1.93823e-14
2.81893e-14
2.33215e-14
2.20528e-14
2.54233e-14
3.35971e-14
3.86643e-14
3.87373e-14
3.92272e-14
3.97271e-14
3.35841e-14
3.29176e-14
2.65525e-14
2.92925e-14
3.36383e-14
3.1148e-14
2.74063e-14
3.28908e-14
4.0336e-14
4.80237e-14
4.49908e-14
4.90793e-14
4.92559e-14
4.18791e-14
4.3209e-14
6.66583e-14
8.59609e-14
9.20926e-14
9.94364e-14
9.66237e-14
9.28393e-14
7.42385e-14
4.90622e-14
4.29849e-14
5.22436e-14
5.41502e-14
5.68282e-14
5.26204e-14
4.76929e-14
4.26007e-14
4.42047e-14
5.26378e-14
6.00728e-14
5.71474e-14
5.27244e-14
4.51302e-14
4.55708e-14
4.11723e-14
4.0514e-14
5.26618e-14
4.90732e-14
5.22557e-14
5.45236e-14
5.69019e-14
4.69741e-14
4.41712e-14
4.0408e-14
3.78371e-14
3.95525e-14
2.95075e-14
2.51e-14
3.08205e-14
2.68499e-14
2.74468e-14
3.49791e-14
3.57124e-14
4.0999e-14
3.36644e-14
2.60823e-14
3.03515e-14
3.43072e-14
3.95536e-14
3.62774e-14
3.59515e-14
3.61934e-14
3.27662e-14
2.87358e-14
3.26126e-14
3.53204e-14
3.37637e-14
3.64267e-14
3.76643e-14
3.70912e-14
3.37162e-14
2.83731e-14
2.23021e-14
2.61257e-14
4.596e-14
6.00008e-14
4.80976e-14
4.52141e-14
5.00117e-14
4.93843e-14
5.51091e-14
1.41761e-14
1.24352e-14
1.07048e-14
1.31877e-14
1.49724e-14
1.59622e-14
2.34726e-14
2.84268e-14
3.2479e-14
3.37313e-14
3.65433e-14
3.18076e-14
3.07776e-14
2.71605e-14
3.33542e-14
2.91309e-14
2.86642e-14
2.97342e-14
3.37515e-14
3.10789e-14
2.59044e-14
2.91377e-14
3.88595e-14
4.11985e-14
4.15584e-14
3.90866e-14
3.1519e-14
1.19984e-14
3.15059e-14
5.79392e-14
9.0665e-14
1.18668e-13
1.3755e-13
1.3419e-13
1.33759e-13
1.13148e-13
6.9274e-14
3.30122e-14
4.91226e-14
5.11189e-14
5.90475e-14
5.25495e-14
4.99384e-14
4.28805e-14
4.49522e-14
4.75041e-14
5.30919e-14
4.74192e-14
4.58783e-14
3.90979e-14
3.28654e-14
3.0133e-14
3.42017e-14
3.60599e-14
3.77729e-14
3.44042e-14
3.62569e-14
4.03146e-14
4.31295e-14
4.80774e-14
4.41679e-14
4.15906e-14
4.11599e-14
2.60877e-14
1.93457e-14
2.10353e-14
2.46036e-14
2.68671e-14
2.47398e-14
3.25985e-14
3.21587e-14
2.73428e-14
2.89372e-14
3.90792e-14
3.93753e-14
4.22462e-14
3.94735e-14
4.37229e-14
4.11563e-14
3.61149e-14
2.56732e-14
3.19094e-14
3.2737e-14
2.5626e-14
2.22529e-14
2.22219e-14
2.44085e-14
1.70461e-14
2.03956e-14
2.74256e-14
3.58298e-14
4.5513e-14
5.21019e-14
4.48154e-14
4.61621e-14
4.48808e-14
5.04558e-14
5.96548e-14
2.30825e-14
2.14881e-14
2.44459e-14
2.56356e-14
2.582e-14
3.05336e-14
3.67558e-14
3.3537e-14
3.52772e-14
3.87807e-14
3.26545e-14
3.71934e-14
3.6542e-14
2.73648e-14
3.56198e-14
4.02221e-14
3.91946e-14
3.67442e-14
3.77713e-14
3.50011e-14
3.25892e-14
3.93073e-14
3.90438e-14
3.87763e-14
3.85923e-14
3.12355e-14
2.25091e-14
1.68909e-14
3.15566e-14
5.57372e-14
9.42737e-14
1.41596e-13
1.67722e-13
1.68283e-13
1.60115e-13
1.3291e-13
8.67473e-14
4.74838e-14
4.9722e-14
4.67685e-14
5.66531e-14
5.17767e-14
4.99319e-14
4.24566e-14
4.53485e-14
5.23484e-14
5.06569e-14
4.45976e-14
4.62985e-14
3.70172e-14
3.46111e-14
2.99179e-14
3.27699e-14
2.39895e-14
2.63551e-14
2.76615e-14
3.28049e-14
2.82188e-14
4.10718e-14
4.49054e-14
4.3099e-14
4.57153e-14
4.15269e-14
3.35832e-14
2.92755e-14
2.46514e-14
2.55556e-14
2.88171e-14
2.93337e-14
3.30843e-14
3.56211e-14
3.80961e-14
3.71877e-14
4.50932e-14
3.90918e-14
3.87816e-14
4.21744e-14
4.07495e-14
3.75593e-14
3.23173e-14
2.84306e-14
2.8186e-14
2.40941e-14
2.01396e-14
2.42072e-14
2.78473e-14
2.92917e-14
2.52498e-14
3.31925e-14
4.38079e-14
4.53853e-14
4.96241e-14
5.34762e-14
5.13896e-14
5.29073e-14
4.62612e-14
4.73009e-14
4.78787e-14
2.59776e-14
2.90443e-14
2.98278e-14
2.92577e-14
2.69564e-14
3.32855e-14
2.70973e-14
2.07578e-14
3.08073e-14
3.58119e-14
3.65317e-14
3.53294e-14
2.60419e-14
1.68001e-14
2.18837e-14
2.5208e-14
2.2015e-14
2.5089e-14
2.72138e-14
2.62158e-14
2.68703e-14
3.46888e-14
4.04728e-14
3.58778e-14
2.6742e-14
1.26296e-14
1.39341e-14
2.60867e-14
4.13787e-14
6.54807e-14
1.03047e-13
1.44238e-13
1.76831e-13
1.82143e-13
1.66186e-13
1.31904e-13
9.02685e-14
4.8788e-14
4.40708e-14
5.19569e-14
5.54536e-14
5.26398e-14
4.69928e-14
4.48594e-14
4.73821e-14
4.45142e-14
4.06931e-14
3.7577e-14
3.33085e-14
2.42889e-14
1.43964e-14
1.73894e-14
1.58527e-14
9.62601e-15
1.47823e-14
1.91562e-14
1.68155e-14
2.01722e-14
2.95202e-14
2.46664e-14
2.98491e-14
2.87978e-14
2.58703e-14
2.80364e-14
2.27698e-14
2.48927e-14
2.28732e-14
2.16343e-14
2.4133e-14
1.93858e-14
2.46077e-14
2.87101e-14
3.57726e-14
3.92113e-14
3.91367e-14
3.79681e-14
3.56249e-14
3.81066e-14
3.59524e-14
3.37239e-14
2.94932e-14
1.79463e-14
1.75394e-14
1.3283e-14
1.52596e-14
2.09967e-14
2.20622e-14
2.61475e-14
3.17131e-14
3.5352e-14
3.9644e-14
4.06131e-14
4.29685e-14
4.12372e-14
4.34566e-14
3.98132e-14
3.84257e-14
3.94239e-14
3.27948e-14
4.23232e-14
4.5182e-14
4.49633e-14
3.64251e-14
2.49058e-14
1.13849e-14
1.66323e-14
3.47752e-14
4.22886e-14
3.23646e-14
2.28e-14
2.14833e-14
1.90718e-14
1.06617e-14
9.67318e-15
1.52738e-14
2.30733e-14
2.14221e-14
1.54703e-14
1.69051e-14
2.50923e-14
3.06857e-14
3.23713e-14
1.58913e-14
1.47853e-14
1.97118e-14
3.32657e-14
4.50627e-14
6.94863e-14
1.04104e-13
1.37385e-13
1.64888e-13
1.70564e-13
1.56829e-13
1.27418e-13
8.99808e-14
4.86127e-14
2.37756e-14
3.68181e-14
4.18543e-14
4.62498e-14
3.63994e-14
3.11161e-14
3.21324e-14
3.20145e-14
2.94046e-14
2.66738e-14
2.4995e-14
2.25351e-14
1.90005e-14
1.89802e-14
1.13603e-14
8.98485e-15
5.85452e-15
7.3586e-15
1.18133e-14
1.67435e-14
2.22119e-14
1.89998e-14
1.53446e-14
1.08559e-14
3.29741e-15
1.16154e-14
7.47857e-15
1.04988e-14
1.26249e-14
8.52912e-15
1.54062e-14
9.12192e-15
2.02554e-14
2.25353e-14
2.76145e-14
3.41012e-14
3.87923e-14
3.1693e-14
3.04776e-14
2.80458e-14
2.63902e-14
2.84338e-14
2.44594e-14
1.83823e-14
1.36364e-14
1.28411e-14
1.73462e-14
1.76363e-14
1.68445e-14
1.9803e-14
2.32884e-14
2.73978e-14
3.36574e-14
3.80341e-14
3.6521e-14
3.48906e-14
3.22383e-14
3.21082e-14
3.02582e-14
2.83772e-14
4.57427e-14
4.6347e-14
4.34015e-14
4.13878e-14
2.96974e-14
2.37037e-14
2.04328e-14
2.66327e-14
3.1675e-14
3.35276e-14
2.98046e-14
2.76378e-14
2.78032e-14
2.86799e-14
2.27081e-14
2.92448e-14
2.4062e-14
3.41876e-14
2.93571e-14
1.88657e-14
1.43961e-14
2.93347e-14
4.0152e-14
3.59502e-14
2.31988e-14
2.89458e-14
2.98389e-14
4.03244e-14
4.95812e-14
7.50954e-14
1.10442e-13
1.36907e-13
1.51409e-13
1.5726e-13
1.46344e-13
1.26989e-13
8.78018e-14
3.82086e-14
2.1e-14
2.04755e-14
3.20414e-14
3.74994e-14
2.98269e-14
2.71318e-14
2.20619e-14
2.78127e-14
2.77918e-14
2.58169e-14
2.30926e-14
2.18364e-14
1.48261e-14
1.77426e-14
9.16857e-15
1.43771e-14
1.36672e-14
1.86434e-14
1.94404e-14
2.41249e-14
3.08041e-14
3.72796e-14
3.3769e-14
3.14077e-14
2.58401e-14
1.74139e-14
1.65668e-14
1.10111e-14
8.42651e-15
1.58824e-14
1.44628e-14
7.99977e-15
1.34777e-14
2.09605e-14
1.84701e-14
2.19868e-14
2.80186e-14
2.50795e-14
3.26692e-14
2.92466e-14
2.57802e-14
2.2631e-14
1.72304e-14
1.86089e-14
1.74377e-14
1.56779e-14
1.40959e-14
2.01547e-14
2.2831e-14
2.05698e-14
2.01403e-14
1.86175e-14
2.60715e-14
2.69748e-14
3.27606e-14
3.2622e-14
3.37538e-14
2.87234e-14
3.16282e-14
3.1215e-14
5.28065e-14
4.92844e-14
4.5866e-14
4.20131e-14
2.82721e-14
1.69519e-14
2.08598e-14
2.76223e-14
1.46323e-14
1.90205e-14
2.52585e-14
2.47731e-14
2.59035e-14
2.72093e-14
2.4195e-14
1.49872e-14
1.97579e-14
2.50613e-14
3.2973e-14
3.20583e-14
1.8572e-14
4.12129e-14
5.64313e-14
5.11949e-14
3.17313e-14
2.10577e-14
1.94577e-14
3.55772e-14
5.68547e-14
7.01476e-14
9.85519e-14
1.2915e-13
1.5206e-13
1.58568e-13
1.42738e-13
1.14776e-13
6.72828e-14
1.58859e-14
3.25245e-14
3.18253e-14
3.08072e-14
4.83051e-14
4.62092e-14
3.37324e-14
3.26152e-14
3.92415e-14
4.1842e-14
3.49864e-14
2.6977e-14
2.12011e-14
8.33488e-15
1.17616e-14
1.0721e-14
1.07645e-14
8.26381e-15
1.0892e-14
4.9211e-15
2.68554e-14
4.44063e-14
4.41485e-14
4.6431e-14
4.83352e-14
4.54349e-14
2.77683e-14
2.31647e-14
2.28353e-14
1.59497e-14
1.8391e-14
1.05748e-14
9.42578e-15
5.78908e-15
1.29054e-14
1.75099e-14
3.09358e-14
3.50035e-14
2.19612e-14
2.06436e-14
1.55447e-14
2.66272e-14
2.37965e-14
1.71378e-14
1.19624e-14
1.43522e-14
1.57298e-14
1.46389e-14
1.30397e-14
1.88024e-14
2.223e-14
1.82332e-14
5.52776e-15
1.50567e-14
1.49728e-14
1.95862e-14
1.68888e-14
2.30656e-14
2.24522e-14
2.70809e-14
2.87114e-14
4.69152e-14
3.99309e-14
3.92975e-14
3.77625e-14
2.98477e-14
3.36374e-14
3.78755e-14
2.77207e-14
1.88516e-14
1.55706e-14
1.24412e-14
5.95494e-15
1.06034e-14
1.60315e-14
1.52059e-14
2.56363e-14
3.20218e-14
2.74582e-14
2.56414e-14
2.41508e-14
1.81269e-14
3.47206e-14
3.91948e-14
3.87766e-14
2.9987e-14
3.30373e-14
2.39984e-14
1.41709e-14
3.44699e-14
5.05595e-14
5.99844e-14
9.14123e-14
1.13913e-13
1.13104e-13
1.03799e-13
7.98348e-14
3.34556e-14
3.46478e-14
3.24141e-14
4.54644e-14
4.3675e-14
5.24413e-14
5.65237e-14
5.38982e-14
4.77495e-14
5.03179e-14
4.89741e-14
4.3313e-14
3.52053e-14
3.75138e-14
2.27927e-14
1.4318e-14
1.41122e-14
1.504e-14
1.3675e-14
1.72434e-14
2.74443e-14
4.68847e-14
5.77242e-14
6.71456e-14
7.42159e-14
6.06397e-14
4.42887e-14
3.03806e-14
2.13599e-14
2.30729e-14
1.30992e-14
1.04666e-14
3.91566e-15
1.89494e-15
4.8056e-15
8.31015e-15
1.54991e-14
2.10626e-14
3.95252e-14
3.67095e-14
2.85051e-14
3.16762e-14
3.39782e-14
2.29797e-14
2.93153e-14
1.94606e-14
1.77868e-14
1.05728e-14
1.39897e-14
2.05392e-14
2.01966e-14
2.12948e-14
1.85029e-14
2.15503e-14
2.5951e-14
2.4515e-14
2.78781e-14
2.68705e-14
3.42734e-14
3.5119e-14
3.17906e-14
3.33835e-14
4.23626e-14
4.83127e-14
4.61355e-14
4.15522e-14
3.77259e-14
3.82625e-14
3.54185e-14
3.20085e-14
3.77064e-14
3.75718e-14
3.51038e-14
3.63542e-14
3.17831e-14
3.54399e-14
3.41329e-14
3.75561e-14
3.90616e-14
4.37818e-14
4.90765e-14
4.60377e-14
3.8663e-14
4.46576e-14
4.13443e-14
4.79456e-14
5.45678e-14
5.10423e-14
4.37411e-14
4.14169e-14
3.32291e-14
3.50014e-14
2.88135e-14
4.99381e-14
5.82943e-14
5.70851e-14
6.16933e-14
6.31369e-14
4.83706e-14
3.65193e-14
4.29378e-14
4.68932e-14
5.08646e-14
5.61915e-14
5.52643e-14
5.60849e-14
5.00848e-14
4.78162e-14
4.11255e-14
3.8793e-14
3.57905e-14
3.55711e-14
2.87226e-14
3.14233e-14
3.09133e-14
3.8449e-14
3.28681e-14
3.78188e-14
4.12131e-14
5.16251e-14
4.79505e-14
5.9328e-14
6.07343e-14
5.37863e-14
4.22272e-14
3.93169e-14
2.67538e-14
2.3738e-14
2.56242e-14
2.32518e-14
2.38576e-14
2.13079e-14
2.62478e-14
2.94138e-14
3.22286e-14
2.89762e-14
3.49341e-14
3.52534e-14
3.75566e-14
3.50656e-14
3.47776e-14
3.11752e-14
3.7006e-14
3.04931e-14
3.4214e-14
2.81437e-14
2.73658e-14
2.32368e-14
2.41509e-14
3.1017e-14
3.40454e-14
3.33095e-14
3.64959e-14
3.3637e-14
3.62951e-14
3.76196e-14
4.04488e-14
3.59433e-14
3.49611e-14
3.44079e-14
4.32171e-14
4.69154e-14
4.75704e-14
4.48678e-14
4.57312e-14
4.67803e-14
4.86625e-14
4.69667e-14
5.0252e-14
5.48798e-14
5.99045e-14
5.6012e-14
5.02815e-14
4.83456e-14
4.77899e-14
4.54175e-14
4.77796e-14
5.23583e-14
4.29719e-14
4.65688e-14
4.91779e-14
5.41038e-14
4.83324e-14
4.52187e-14
4.76808e-14
5.10287e-14
5.29461e-14
5.22454e-14
4.36224e-14
4.40059e-14
3.55395e-14
3.97439e-14
4.59013e-14
5.52319e-14
5.75845e-14
5.86535e-14
5.45171e-14
4.12055e-14
4.97941e-14
5.54136e-14
6.56596e-14
7.358e-14
6.709e-14
6.75757e-14
6.54444e-14
6.49526e-14
6.08413e-14
5.79598e-14
5.60724e-14
5.52081e-14
5.54391e-14
5.69913e-14
6.25089e-14
6.163e-14
5.8572e-14
5.57673e-14
5.3572e-14
5.57753e-14
5.86268e-14
6.60571e-14
5.60208e-14
5.40914e-14
4.51366e-14
4.89285e-14
4.10153e-14
3.57638e-14
3.60846e-14
3.54519e-14
4.42212e-14
4.44825e-14
4.45147e-14
4.81881e-14
4.69675e-14
4.68059e-14
5.12798e-14
4.80678e-14
5.00116e-14
4.64381e-14
4.13116e-14
4.44284e-14
4.37023e-14
3.92998e-14
3.47191e-14
3.61244e-14
3.93518e-14
3.80916e-14
3.67714e-14
3.67996e-14
3.56621e-14
3.40277e-14
4.39991e-14
3.1411e-14
3.03585e-14
3.46098e-14
3.55589e-14
3.25889e-14
3.59338e-14
3.93119e-14
4.46713e-14
3.49584e-14
3.88231e-14
3.85667e-14
4.53987e-14
4.53039e-14
4.52197e-14
4.11599e-14
4.37459e-14
4.32141e-14
4.59749e-14
4.91225e-14
4.96742e-14
4.74623e-14
5.22599e-14
4.94385e-14
5.16611e-14
4.34993e-14
4.47423e-14
4.20138e-14
5.34181e-14
5.52751e-14
5.86154e-14
4.87067e-14
4.869e-14
4.46739e-14
5.28497e-14
4.84175e-14
4.59552e-14
3.75239e-14
4.04698e-14
3.63299e-14
4.59907e-14
4.21101e-14
4.29165e-14
3.88984e-14
4.38116e-14
5.06515e-14
4.8102e-14
5.57447e-14
6.51921e-14
7.20083e-14
6.98492e-14
6.71031e-14
7.09914e-14
6.84482e-14
6.84142e-14
6.67792e-14
7.04402e-14
6.7253e-14
7.18934e-14
6.78755e-14
6.9906e-14
6.30832e-14
6.38152e-14
5.87203e-14
6.47463e-14
5.81057e-14
6.01733e-14
5.32852e-14
4.66999e-14
5.1032e-14
4.87111e-14
4.74418e-14
5.06326e-14
4.79303e-14
5.04492e-14
5.09497e-14
6.04864e-14
5.76217e-14
5.2362e-14
4.57986e-14
4.64373e-14
4.74771e-14
4.88197e-14
5.47419e-14
5.01481e-14
5.45588e-14
4.87573e-14
4.34922e-14
3.75652e-14
3.86221e-14
3.12946e-14
3.63846e-14
3.83968e-14
4.33511e-14
3.75859e-14
3.97517e-14
3.79483e-14
3.02849e-14
4.12081e-14
4.46377e-14
3.5728e-14
3.52446e-14
3.18311e-14
3.22956e-14
2.82848e-14
3.19391e-14
4.02981e-14
3.32608e-14
3.56255e-14
4.1994e-14
3.97781e-14
3.65095e-14
3.33875e-14
3.0933e-14
3.69789e-14
3.8926e-14
4.66746e-14
4.87378e-14
4.5588e-14
4.49923e-14
4.25902e-14
4.36442e-14
3.73565e-14
3.6549e-14
4.08201e-14
3.98851e-14
4.30809e-14
4.75907e-14
5.50017e-14
5.02244e-14
4.59646e-14
3.90443e-14
3.55014e-14
3.83016e-14
3.61952e-14
3.20593e-14
3.17125e-14
3.37261e-14
3.33714e-14
3.10905e-14
3.3298e-14
3.60096e-14
3.51003e-14
4.44137e-14
4.67991e-14
5.24806e-14
5.71124e-14
6.49859e-14
6.72176e-14
5.9498e-14
5.81913e-14
5.91346e-14
5.74084e-14
5.39775e-14
6.27478e-14
6.4311e-14
6.60577e-14
6.50536e-14
6.49981e-14
5.907e-14
5.34848e-14
5.25998e-14
4.65832e-14
3.91232e-14
4.26225e-14
4.41786e-14
4.46133e-14
5.26124e-14
5.68854e-14
6.052e-14
6.77824e-14
6.93921e-14
6.99217e-14
6.96787e-14
6.07975e-14
5.09226e-14
4.98548e-14
4.62761e-14
4.76626e-14
4.3064e-14
3.96669e-14
4.0139e-14
3.53018e-14
3.98989e-14
4.28843e-14
3.93094e-14
3.89838e-14
3.90884e-14
4.02028e-14
3.82035e-14
3.41597e-14
3.84551e-14
4.00717e-14