/*--------------------------------*- C++ -*----------------------------------*\
| =========                 |                                                 |
| \\      /  F ield         | OpenFOAM: The Open Source CFD Toolbox           |
|  \\    /   O peration     | Version:  2406                                  |
|   \\  /    A nd           | Website:  www.openfoam.com                      |
|    \\/     M anipulation  |                                                 |
\*---------------------------------------------------------------------------*/
FoamFile
{
    version     2.0;
    format      ascii;
    arch        "LSB;label=32;scalar=64";
    class       volVectorField;
    location    "0.075";
    object      U;
}
// * * * * * * * * * * * * * * * * * * * * * * * * * * * * * * * * * * * * * //

dimensions      [0 1 -1 0 0 0 0];

internalField   nonuniform List<vector> 
13988
(
(1.98259e-12 8.36486e-12 1.05212e-11)
(8.19811e-14 7.2999e-12 1.75144e-11)
(-1.33276e-12 7.04708e-12 1.5574e-11)
(-3.54813e-13 6.39969e-12 1.47309e-11)
(-2.85478e-12 7.74752e-12 1.44684e-11)
(-5.01761e-12 6.93712e-12 1.46721e-11)
(-1.1657e-12 5.90762e-12 6.23882e-12)
(3.58523e-12 7.91893e-12 1.25289e-12)
(3.64588e-12 6.61727e-12 9.36852e-13)
(-5.48437e-13 6.47712e-12 4.29341e-12)
(-2.23641e-12 6.78685e-12 -5.74478e-13)
(2.58544e-12 7.21268e-12 -1.06498e-11)
(2.61399e-12 5.94573e-12 -2.09281e-11)
(-1.1278e-12 4.65658e-12 -2.27252e-11)
(-1.05371e-12 7.75219e-12 -2.75992e-11)
(5.66866e-13 8.61586e-12 -3.6578e-11)
(4.39434e-13 9.88526e-12 -3.30532e-11)
(9.44719e-13 7.60175e-12 -2.06941e-11)
(5.27103e-12 7.92238e-12 -1.07992e-11)
(3.74128e-12 6.63195e-12 -4.90844e-12)
(2.03506e-12 8.91812e-12 -5.173e-12)
(1.33009e-13 8.42798e-12 -7.53187e-12)
(-3.17843e-12 1.08241e-11 -1.51502e-11)
(7.14588e-13 8.9376e-12 -2.21056e-11)
(3.83413e-12 1.0383e-11 -2.49237e-11)
(3.66701e-12 8.69485e-12 -1.95128e-11)
(5.15812e-12 1.08492e-11 -1.26371e-11)
(7.55894e-12 5.8281e-12 -5.18066e-12)
(7.24206e-12 7.89014e-12 5.11342e-12)
(6.63317e-12 9.08253e-12 1.41704e-11)
(3.32281e-12 1.17623e-11 1.40071e-11)
(-1.70689e-12 1.33546e-11 1.84378e-11)
(-7.20668e-13 1.36768e-11 2.26668e-11)
(1.07666e-12 1.47353e-11 2.15346e-11)
(2.02615e-12 1.78941e-11 2.05691e-11)
(3.696e-12 1.60476e-11 1.63633e-11)
(3.62988e-12 1.76205e-11 7.88484e-12)
(5.93604e-12 1.7381e-11 -2.33402e-12)
(4.13992e-12 1.56493e-11 -3.30568e-12)
(2.47456e-12 1.34852e-11 -2.54092e-12)
(3.05114e-12 1.16591e-11 1.40122e-12)
(4.01438e-12 8.28621e-12 2.72618e-12)
(6.81708e-12 8.27762e-12 2.77457e-12)
(6.17304e-12 7.85028e-12 4.2346e-12)
(3.21913e-12 9.43143e-12 -2.07505e-12)
(-1.6349e-12 1.26862e-11 -5.38631e-12)
(1.09181e-12 1.22012e-11 -6.3383e-12)
(3.17573e-12 9.68308e-12 -5.51878e-12)
(3.07333e-12 1.13328e-11 -1.58415e-12)
(-8.26655e-13 1.22778e-11 3.61763e-12)
(-8.40278e-13 1.38508e-11 9.06376e-12)
(-1.68035e-12 1.20307e-11 1.50189e-11)
(-1.28212e-12 1.26288e-11 8.41024e-12)
(-1.52758e-12 1.16081e-11 9.18731e-12)
(-3.75897e-12 1.30492e-11 1.10946e-11)
(-4.29501e-12 1.04919e-11 7.59851e-12)
(-8.76791e-12 1.14226e-11 4.68055e-12)
(-7.09897e-12 1.10542e-11 4.77971e-13)
(-4.38623e-12 9.6448e-12 -7.55489e-12)
(-4.22317e-12 8.51947e-12 -1.32551e-11)
(-2.65198e-12 9.8441e-12 -1.61167e-11)
(-5.98323e-12 8.18722e-12 -1.23168e-11)
(-7.87008e-12 1.06058e-11 -6.51127e-12)
(-3.35406e-12 1.11939e-11 -4.69664e-12)
(1.589e-12 1.25603e-11 -3.54984e-12)
(2.80487e-12 1.25321e-11 -1.62227e-12)
(2.98109e-12 1.20701e-11 -1.75161e-12)
(2.02489e-12 1.05709e-11 9.01796e-13)
(-4.60228e-13 1.16594e-11 2.71889e-12)
(-8.60335e-13 1.10524e-11 3.39667e-12)
(-1.49304e-12 1.0709e-11 2.36664e-12)
(-3.73296e-12 1.00821e-11 -2.23066e-13)
(-8.3763e-13 9.66222e-12 -6.50016e-12)
(2.3479e-12 1.27649e-11 -9.35672e-12)
(-7.50523e-13 1.32118e-11 -9.74851e-12)
(-2.74411e-12 1.4299e-11 -9.41576e-12)
(1.54905e-12 1.26106e-11 -9.22374e-12)
(3.8824e-12 1.32302e-11 -9.66269e-12)
(3.45997e-12 1.23242e-11 -1.0855e-11)
(3.95787e-12 1.26328e-11 -9.29493e-12)
(2.14945e-12 1.08317e-11 -8.14235e-12)
(1.66299e-12 1.03353e-11 -1.62438e-12)
(3.15529e-13 9.68855e-12 2.57239e-12)
(-9.06051e-13 1.07239e-11 2.75666e-12)
(7.78387e-13 1.0296e-11 4.90598e-13)
(4.65294e-13 9.69412e-12 -3.97234e-13)
(-3.824e-12 9.92431e-12 6.05108e-12)
(-4.02412e-12 1.29552e-11 1.30674e-11)
(-2.33428e-12 1.05712e-11 2.21194e-11)
(-1.02211e-12 1.24498e-11 1.79037e-11)
(-1.9014e-12 1.01197e-11 1.01747e-11)
(-6.16432e-12 6.33912e-12 4.11732e-12)
(-7.63584e-12 8.62477e-12 1.2839e-13)
(-3.67912e-12 1.12648e-11 -1.65128e-12)
(-1.54089e-12 1.16959e-11 8.20529e-13)
(-9.73686e-13 1.26274e-11 -1.69236e-12)
(3.33078e-12 1.14252e-11 1.28663e-12)
(5.21494e-12 8.95921e-12 1.24092e-11)
(1.97993e-12 8.93946e-12 2.16685e-11)
(2.39358e-12 1.0463e-11 2.38086e-11)
(3.65526e-12 1.11746e-11 2.23093e-11)
(2.25712e-12 8.24691e-12 -1.51671e-12)
(1.86632e-12 5.76052e-12 8.80701e-12)
(2.41301e-13 9.85666e-12 1.33981e-11)
(-1.57717e-12 9.89631e-12 1.38091e-11)
(-2.9535e-12 1.12414e-11 1.54871e-11)
(-2.30902e-12 7.61415e-12 1.97393e-11)
(-6.22924e-13 6.69856e-12 8.39483e-12)
(2.52196e-12 3.96197e-12 -1.43306e-12)
(2.1683e-12 8.91927e-12 -5.19732e-12)
(2.90678e-13 8.29764e-12 -3.60982e-12)
(-2.44052e-13 5.85345e-12 -9.18585e-12)
(2.07412e-12 4.93045e-12 -1.43591e-11)
(1.91557e-12 7.47659e-12 -2.02623e-11)
(-3.14492e-13 4.20982e-12 -2.19252e-11)
(-1.04742e-12 1.50732e-12 -2.54653e-11)
(7.50369e-14 5.16873e-12 -2.99943e-11)
(2.34239e-12 6.76765e-12 -3.01871e-11)
(1.67932e-12 6.38813e-12 -1.64742e-11)
(2.46691e-12 8.07913e-12 -5.85095e-12)
(2.58448e-12 1.23617e-11 -2.26653e-13)
(1.79956e-12 1.20457e-11 -3.62105e-12)
(-1.66876e-13 1.21913e-11 -7.24748e-12)
(-1.45071e-12 1.18037e-11 -1.35153e-11)
(-3.56429e-13 8.30629e-12 -1.84117e-11)
(3.57121e-12 8.28858e-12 -2.05386e-11)
(4.67142e-12 4.5383e-12 -1.72202e-11)
(5.75282e-12 7.1999e-12 -8.63439e-12)
(8.2948e-12 4.71773e-12 5.23063e-12)
(5.32611e-12 1.02058e-11 1.29232e-11)
(3.10553e-12 8.62242e-12 2.01545e-11)
(1.31975e-12 1.17703e-11 1.88383e-11)
(-4.94283e-13 1.06928e-11 2.28811e-11)
(-2.51166e-13 1.23469e-11 2.87066e-11)
(-1.19342e-12 1.04409e-11 2.64088e-11)
(5.88226e-13 1.39141e-11 2.16973e-11)
(4.31564e-12 1.44381e-11 1.67289e-11)
(3.63886e-12 1.37723e-11 9.35838e-12)
(5.27361e-12 1.38113e-11 -7.529e-13)
(4.7927e-12 1.60615e-11 1.60543e-12)
(3.66298e-12 1.20501e-11 1.45641e-12)
(4.74688e-12 1.18586e-11 3.04479e-12)
(5.41141e-12 9.07465e-12 3.91333e-12)
(6.00589e-12 9.22534e-12 1.4199e-12)
(3.66097e-12 8.66604e-12 3.12787e-14)
(-3.65334e-13 1.18706e-11 -5.24312e-12)
(-1.01855e-12 1.14482e-11 -9.40079e-12)
(2.68115e-12 9.57023e-12 -9.67394e-12)
(4.29172e-12 8.52891e-12 -4.05857e-12)
(1.99037e-12 1.27051e-11 -9.58106e-13)
(-1.7466e-12 1.2863e-11 6.43025e-12)
(1.71491e-13 1.39779e-11 1.53949e-11)
(-2.28299e-12 1.35568e-11 2.01862e-11)
(-1.8618e-12 1.27892e-11 1.37796e-11)
(-1.16934e-12 1.70197e-11 9.92891e-12)
(-4.14224e-12 1.6415e-11 8.68451e-12)
(-3.44751e-12 1.40862e-11 5.44111e-12)
(-6.90464e-12 1.30841e-11 3.19213e-12)
(-5.96356e-12 8.09711e-12 8.88033e-14)
(-4.28402e-12 8.28347e-12 -8.32151e-12)
(-5.57196e-12 5.34477e-12 -1.35293e-11)
(-3.89176e-12 8.55949e-12 -1.7191e-11)
(-4.84378e-12 1.07552e-11 -1.21535e-11)
(-6.29357e-12 1.20835e-11 -3.96552e-12)
(-3.59674e-12 1.14382e-11 -1.70819e-12)
(1.2559e-13 1.31902e-11 -1.68759e-12)
(1.77523e-12 1.35937e-11 1.48279e-12)
(2.42949e-12 1.41927e-11 -1.54215e-12)
(2.41406e-12 1.43505e-11 4.82373e-12)
(2.20501e-13 1.47462e-11 6.84878e-12)
(5.20186e-13 1.38916e-11 8.01025e-12)
(-5.86467e-13 1.09142e-11 6.0767e-12)
(-3.18279e-12 9.26116e-12 6.55382e-13)
(-1.74422e-12 7.6578e-12 -7.66472e-12)
(-4.66972e-13 1.17539e-11 -1.08136e-11)
(-2.90336e-12 1.4578e-11 -1.11246e-11)
(-1.47586e-12 1.36883e-11 -1.0185e-11)
(2.11469e-12 1.26253e-11 -8.05578e-12)
(3.91148e-12 1.4119e-11 -7.67263e-12)
(3.51299e-12 1.12611e-11 -1.08042e-11)
(2.98371e-12 1.34366e-11 -9.47575e-12)
(2.69649e-12 1.35773e-11 -8.75416e-12)
(1.85007e-12 1.28364e-11 3.02496e-13)
(6.9692e-14 1.17518e-11 7.88076e-12)
(-1.02972e-12 1.21311e-11 5.72489e-12)
(7.436e-13 1.24399e-11 1.65315e-12)
(-1.07933e-12 1.26845e-11 -2.61404e-12)
(-4.00373e-12 1.43033e-11 1.54741e-12)
(-3.386e-12 1.20816e-11 1.54519e-11)
(-3.243e-12 1.33502e-11 2.54772e-11)
(-2.613e-12 1.63884e-11 2.10604e-11)
(-6.91408e-13 1.56324e-11 1.10954e-11)
(-4.41176e-12 1.05745e-11 3.57106e-12)
(-7.21777e-12 9.26948e-12 1.22583e-12)
(-4.07874e-12 7.10488e-12 -1.25215e-12)
(-2.21315e-12 8.80979e-12 -6.64195e-13)
(-2.07031e-12 9.84239e-12 -4.83275e-12)
(3.85391e-12 8.82848e-12 9.2169e-13)
(6.1908e-12 9.58524e-12 1.45213e-11)
(2.53108e-12 1.00749e-11 2.66807e-11)
(1.98427e-12 1.03511e-11 2.66033e-11)
(3.78447e-12 4.71183e-12 -2.92217e-12)
(-2.31499e-13 6.1172e-12 3.95955e-12)
(-3.44419e-12 9.3435e-12 8.16252e-12)
(-1.06641e-12 1.00215e-11 9.82798e-12)
(-4.09737e-13 7.25804e-12 1.20906e-11)
(-1.27904e-12 7.97095e-12 1.57565e-11)
(5.24045e-13 7.98757e-12 5.91589e-12)
(2.38647e-12 7.98096e-12 -4.86957e-12)
(1.16544e-12 1.01483e-11 -1.34047e-11)
(1.08721e-12 6.81125e-12 -1.55202e-11)
(9.76188e-13 7.20975e-12 -1.85239e-11)
(1.33726e-12 4.48594e-12 -1.94067e-11)
(2.47254e-12 5.42756e-12 -1.93814e-11)
(3.01876e-12 5.5343e-12 -2.09661e-11)
(-1.7317e-12 2.23536e-12 -2.21417e-11)
(-4.29104e-12 1.67449e-12 -2.56126e-11)
(-8.49785e-13 4.6818e-12 -2.30318e-11)
(6.51356e-13 7.91764e-12 -1.36455e-11)
(4.79714e-13 1.01007e-11 -3.6035e-12)
(1.57837e-12 1.03173e-11 -1.53833e-12)
(1.20082e-12 1.07887e-11 -3.73015e-12)
(3.2437e-14 1.1426e-11 -8.35323e-12)
(1.31649e-12 9.80197e-12 -1.1855e-11)
(2.17734e-12 9.87342e-12 -1.67507e-11)
(5.94289e-12 1.08582e-11 -1.70417e-11)
(4.87743e-12 9.39745e-12 -1.36028e-11)
(3.43836e-12 9.3477e-12 -3.30118e-12)
(5.26206e-12 8.77093e-12 1.19379e-11)
(5.5355e-12 1.10795e-11 1.52906e-11)
(3.6222e-12 1.19568e-11 2.07143e-11)
(4.26526e-13 1.3786e-11 2.40729e-11)
(-1.33005e-12 1.47649e-11 2.57943e-11)
(-3.36459e-13 1.32182e-11 2.83176e-11)
(-5.66004e-13 1.30082e-11 3.00315e-11)
(-8.06794e-13 1.40867e-11 2.46998e-11)
(3.80553e-12 1.59793e-11 1.9006e-11)
(3.89444e-12 1.39189e-11 1.23568e-11)
(3.4574e-12 1.37191e-11 5.2948e-12)
(4.42855e-12 1.31361e-11 5.65394e-12)
(4.49822e-12 1.50324e-11 3.6913e-12)
(5.07101e-12 1.20872e-11 1.88728e-12)
(5.18229e-12 9.67605e-12 -7.0457e-13)
(6.50384e-12 1.06176e-11 -1.44998e-12)
(3.79744e-12 1.08007e-11 -3.44583e-12)
(1.46872e-13 1.23168e-11 -8.87904e-12)
(1.10761e-12 6.68584e-12 -1.20387e-11)
(3.39973e-12 4.89699e-12 -7.77845e-12)
(2.32948e-12 5.92977e-12 -8.7597e-13)
(9.53037e-14 1.02743e-11 4.07676e-13)
(-1.12377e-12 1.10506e-11 7.38793e-12)
(-1.39743e-13 1.27231e-11 1.17348e-11)
(-7.43345e-13 1.35274e-11 1.70958e-11)
(-4.26575e-12 1.29148e-11 1.4282e-11)
(-3.61634e-12 1.36599e-11 8.86568e-12)
(-1.92435e-12 1.49629e-11 5.40497e-12)
(-1.47365e-12 1.38613e-11 2.91691e-12)
(-5.13593e-12 1.13213e-11 8.28193e-13)
(-4.81555e-12 9.33252e-12 -1.41016e-12)
(-3.80286e-12 1.02644e-11 -4.50361e-12)
(-5.23997e-12 9.33693e-12 -1.13665e-11)
(-5.59643e-12 8.51868e-12 -1.60743e-11)
(-7.07797e-12 1.2076e-11 -1.2269e-11)
(-7.08517e-12 1.24171e-11 -7.3946e-12)
(-3.78203e-12 1.31247e-11 -6.86933e-12)
(6.59931e-14 1.18559e-11 -5.17013e-12)
(1.8398e-12 1.19759e-11 1.83301e-13)
(2.05848e-12 1.57059e-11 2.2449e-13)
(1.85258e-12 1.79459e-11 2.69829e-12)
(-2.05208e-14 1.74087e-11 4.23183e-12)
(1.67282e-12 1.75974e-11 8.6366e-13)
(9.86278e-13 1.4901e-11 -1.33775e-12)
(-2.22944e-12 1.36672e-11 -6.59796e-12)
(-2.32396e-12 9.34171e-12 -1.04419e-11)
(-3.07486e-12 1.07201e-11 -1.20831e-11)
(-3.29871e-12 1.39769e-11 -1.03008e-11)
(-1.87681e-12 1.32659e-11 -1.24484e-11)
(1.60858e-12 1.1769e-11 -1.31587e-11)
(4.97092e-12 1.27878e-11 -1.15393e-11)
(3.80593e-12 1.33456e-11 -1.20958e-11)
(1.75017e-12 1.47073e-11 -1.19022e-11)
(2.77398e-12 1.28428e-11 -1.22141e-11)
(2.51513e-12 1.13381e-11 -4.54847e-12)
(4.9966e-13 1.21932e-11 2.188e-12)
(-1.22767e-12 1.18612e-11 -1.72071e-13)
(2.08797e-13 1.44967e-11 -2.69163e-12)
(-1.66662e-12 1.55606e-11 -5.18823e-12)
(-2.87004e-12 1.44455e-11 -7.96341e-12)
(-2.34428e-12 1.16388e-11 3.38642e-12)
(-4.81214e-12 1.43063e-11 1.34157e-11)
(-3.78141e-12 1.4977e-11 8.56054e-12)
(1.23462e-12 1.48948e-11 2.96945e-12)
(-2.33326e-12 1.52276e-11 -1.42026e-12)
(-4.04028e-12 1.13881e-11 -3.61535e-12)
(-2.92717e-12 7.91515e-12 -4.03871e-12)
(-4.09451e-12 8.98947e-12 -4.04727e-12)
(-1.00264e-12 6.6637e-12 -5.81556e-12)
(4.25065e-12 3.03764e-12 1.20863e-12)
(5.09783e-12 6.39101e-12 1.2088e-11)
(1.70333e-12 8.56346e-12 2.12372e-11)
(1.48025e-12 1.11528e-11 1.94659e-11)
(-1.03682e-12 6.701e-12 3.60646e-12)
(-1.78142e-12 5.66407e-12 5.6718e-12)
(2.23252e-13 3.39813e-12 5.98821e-12)
(-6.60474e-13 1.91633e-12 5.21016e-12)
(-2.35232e-12 3.60085e-12 4.18376e-12)
(-1.77753e-12 4.44711e-12 -2.93769e-12)
(4.78255e-14 8.03257e-12 -9.40377e-12)
(3.0477e-12 5.90274e-12 -1.28313e-11)
(1.32167e-12 3.71409e-12 -1.47297e-11)
(1.96431e-12 5.15125e-12 -1.69618e-11)
(2.62978e-12 3.0645e-12 -1.68432e-11)
(4.46549e-13 3.14092e-12 -1.70123e-11)
(1.7947e-12 5.62351e-12 -1.78065e-11)
(1.35141e-12 5.28906e-12 -1.81875e-11)
(-2.92517e-12 4.04442e-12 -1.73878e-11)
(-2.55556e-12 3.91743e-12 -1.28105e-11)
(-1.22919e-12 7.26136e-12 -1.15171e-11)
(2.76962e-13 9.26269e-12 -7.07784e-12)
(2.29011e-12 7.53702e-12 -1.49506e-12)
(5.44053e-13 8.64829e-12 -3.39004e-12)
(2.11402e-13 9.37177e-12 -5.95488e-12)
(9.46526e-13 8.77318e-12 -7.33056e-12)
(-5.95035e-13 8.56584e-12 -8.95324e-12)
(3.80688e-12 1.18147e-11 -9.31675e-12)
(6.24749e-12 1.23508e-11 -4.96076e-12)
(4.81616e-12 8.83503e-12 3.92585e-12)
(6.83592e-12 1.01203e-11 1.40786e-11)
(3.83471e-12 1.01549e-11 1.56629e-11)
(1.52042e-12 1.4078e-11 2.07373e-11)
(-1.65423e-12 1.17323e-11 2.6858e-11)
(2.15432e-13 1.37201e-11 2.96297e-11)
(8.46396e-13 1.11801e-11 3.16516e-11)
(-1.7804e-12 1.36189e-11 2.88805e-11)
(-1.8402e-12 1.29018e-11 2.19421e-11)
(3.71932e-12 1.48313e-11 1.70515e-11)
(4.81679e-12 1.22601e-11 1.20801e-11)
(6.10187e-12 1.10714e-11 1.19134e-11)
(3.19198e-12 1.09712e-11 9.03481e-12)
(3.23938e-12 1.30457e-11 3.17425e-12)
(7.26828e-12 1.26651e-11 6.18164e-13)
(6.21585e-12 1.13132e-11 -1.45655e-12)
(5.86046e-12 1.09919e-11 -1.22817e-12)
(2.62244e-12 1.1172e-11 -3.56752e-12)
(2.43244e-12 1.04034e-11 -7.19269e-12)
(4.40984e-12 7.67796e-12 -7.37079e-12)
(3.14954e-12 5.75149e-12 -5.33015e-12)
(1.05149e-12 7.46499e-12 -2.82621e-12)
(-1.32039e-12 6.92331e-12 -6.87335e-13)
(-1.55182e-12 9.33579e-12 5.15934e-12)
(-9.3429e-13 8.65363e-12 1.0003e-11)
(-2.27472e-12 9.89894e-12 9.03185e-12)
(-2.49664e-12 9.71164e-12 6.0498e-12)
(-2.63236e-12 8.15804e-12 6.37548e-12)
(-3.1599e-12 9.52318e-12 4.38242e-12)
(-1.20778e-12 1.13653e-11 2.73478e-12)
(-2.81178e-12 1.15185e-11 -4.29847e-13)
(-5.63983e-12 9.50814e-12 -2.44154e-12)
(-4.83601e-12 1.13018e-11 -3.13335e-12)
(-5.24495e-12 1.01442e-11 -7.32495e-12)
(-7.02054e-12 9.84065e-12 -1.1548e-11)
(-6.6322e-12 1.01748e-11 -1.12251e-11)
(-5.82693e-12 7.11567e-12 -9.81327e-12)
(-3.93761e-12 8.89493e-12 -9.7476e-12)
(-7.90422e-13 8.45896e-12 -8.8006e-12)
(-1.43535e-12 1.27171e-11 -3.11282e-12)
(-5.21658e-13 1.52332e-11 -1.7568e-12)
(2.24981e-12 1.64382e-11 -2.7504e-12)
(1.57037e-12 1.44977e-11 -5.2022e-12)
(2.05297e-12 1.35567e-11 -1.24918e-11)
(1.40973e-12 1.34158e-11 -1.24373e-11)
(1.24932e-12 1.20309e-11 -1.44803e-11)
(4.72787e-13 1.09072e-11 -1.29345e-11)
(-4.35148e-12 9.49556e-12 -1.36957e-11)
(-4.74063e-12 1.19275e-11 -1.37491e-11)
(2.4998e-13 1.08632e-11 -1.38554e-11)
(1.87945e-12 9.41716e-12 -1.23898e-11)
(3.15413e-12 9.8457e-12 -1.22605e-11)
(2.59823e-12 1.28138e-11 -1.23012e-11)
(3.17094e-12 1.30672e-11 -1.24883e-11)
(4.96671e-12 1.08815e-11 -1.10864e-11)
(2.3589e-12 7.90486e-12 -7.46598e-12)
(-5.85415e-13 9.51802e-12 -4.51064e-12)
(-2.32973e-12 8.03455e-12 -2.1436e-12)
(-2.4629e-12 1.03433e-11 -7.3854e-12)
(-8.52685e-13 1.00372e-11 -1.19673e-11)
(1.43065e-13 8.68082e-12 -1.28975e-11)
(-2.95518e-12 7.55868e-12 -9.34608e-12)
(-5.32624e-12 8.99434e-12 -5.65831e-12)
(-3.30143e-12 7.81519e-12 -7.41104e-12)
(-1.01733e-12 9.08959e-12 -9.33632e-12)
(-2.69855e-12 1.31256e-11 -1.00544e-11)
(-2.0375e-12 1.26037e-11 -1.05569e-11)
(-1.44595e-12 1.02132e-11 -7.59285e-12)
(-2.93888e-12 7.15262e-12 -4.63564e-12)
(1.98717e-12 4.26642e-12 -3.95493e-12)
(5.4907e-12 3.4508e-12 1.86445e-12)
(2.22774e-12 3.99633e-12 6.98823e-12)
(-1.0816e-12 7.63841e-12 1.0129e-11)
(-1.75083e-12 7.02e-12 3.39531e-12)
(-6.24618e-13 4.76657e-12 6.51658e-14)
(1.36941e-12 2.34535e-12 -4.91339e-13)
(-7.4387e-13 4.75921e-12 -1.98089e-12)
(-3.08348e-12 6.65481e-13 -5.80939e-12)
(-2.36793e-12 1.31942e-12 -1.18121e-11)
(5.08836e-13 2.3408e-12 -1.12969e-11)
(3.56278e-12 3.59466e-12 -1.22926e-11)
(8.01116e-13 3.76273e-12 -1.31807e-11)
(1.08606e-12 4.85671e-12 -1.62958e-11)
(2.66618e-12 5.6446e-12 -1.46718e-11)
(3.41926e-13 6.3358e-12 -1.49462e-11)
(5.0162e-13 5.78044e-12 -1.45684e-11)
(-1.83849e-13 7.99844e-12 -1.47757e-11)
(-2.58302e-12 6.59951e-12 -1.3569e-11)
(-3.24946e-12 6.14422e-12 -1.08343e-11)
(-2.46708e-12 7.32535e-12 -1.0039e-11)
(1.21755e-12 9.12581e-12 -9.57873e-12)
(1.75871e-12 9.35429e-12 -5.29587e-12)
(2.41412e-13 1.2419e-11 -4.07926e-12)
(3.47582e-13 1.14145e-11 -4.1163e-12)
(1.47704e-12 1.14502e-11 -3.01995e-12)
(6.48499e-13 9.03581e-12 -1.99252e-12)
(3.89373e-12 7.9814e-12 -1.5216e-12)
(7.26393e-12 9.18875e-12 2.24449e-12)
(4.4359e-12 8.33071e-12 6.98567e-12)
(5.36682e-12 1.0916e-11 1.20604e-11)
(2.43829e-12 1.11059e-11 1.49718e-11)
(3.18144e-12 1.2715e-11 1.9906e-11)
(-1.87088e-13 9.36358e-12 2.55542e-11)
(-5.67247e-13 8.74626e-12 3.06595e-11)
(1.34045e-13 1.08578e-11 3.32799e-11)
(-1.82701e-12 1.24841e-11 2.77544e-11)
(-2.01896e-12 1.16802e-11 1.94159e-11)
(3.71467e-12 1.21152e-11 1.6253e-11)
(5.79763e-12 9.97978e-12 1.59336e-11)
(4.21243e-12 1.18505e-11 1.59911e-11)
(2.63394e-12 1.51674e-11 1.00876e-11)
(1.49177e-12 1.16488e-11 2.40512e-12)
(6.06584e-12 1.29304e-11 -9.41128e-13)
(6.68344e-12 1.25149e-11 -3.5438e-12)
(6.65863e-12 1.22992e-11 -2.59863e-12)
(4.24853e-12 1.17068e-11 -3.85909e-12)
(3.58275e-12 9.0946e-12 -6.48731e-12)
(4.55023e-12 9.9421e-12 -3.52762e-12)
(3.29579e-12 1.0208e-11 -3.02077e-12)
(8.0456e-13 1.01561e-11 -3.28384e-12)
(-6.59073e-13 9.25942e-12 -1.92313e-12)
(-9.83535e-13 1.10363e-11 1.52429e-12)
(-5.69854e-13 1.12232e-11 4.51968e-12)
(-2.0157e-12 1.09507e-11 1.94729e-12)
(-2.04964e-12 1.02456e-11 -2.0016e-12)
(-2.19049e-12 1.22495e-11 1.21443e-12)
(-2.98368e-12 1.19184e-11 2.96359e-12)
(-2.84405e-12 1.1785e-11 3.32047e-12)
(-2.52581e-12 1.14452e-11 -1.52009e-12)
(-4.9414e-12 9.39711e-12 -4.30651e-12)
(-4.76553e-12 1.01571e-11 -6.83948e-12)
(-4.62308e-12 1.12288e-11 -7.5168e-12)
(-6.43821e-12 1.19038e-11 -8.98765e-12)
(-5.15542e-12 1e-11 -1.0146e-11)
(-5.25673e-12 8.22793e-12 -9.9844e-12)
(-4.52427e-12 9.10397e-12 -9.09395e-12)
(-3.39071e-12 9.59047e-12 -8.31602e-12)
(-2.9593e-12 1.2008e-11 -5.58633e-12)
(4.86594e-13 1.07268e-11 -3.35436e-12)
(2.42193e-12 9.74693e-12 -5.1601e-12)
(1.74122e-12 1.03471e-11 -1.02721e-11)
(2.41145e-12 1.03588e-11 -1.85481e-11)
(2.68394e-12 1.06939e-11 -1.84662e-11)
(1.41303e-12 8.82828e-12 -1.67152e-11)
(3.72116e-14 1.0752e-11 -1.46804e-11)
(-3.86803e-12 1.0609e-11 -1.42914e-11)
(-3.93116e-12 1.03547e-11 -1.50208e-11)
(4.67142e-13 9.54359e-12 -1.51888e-11)
(1.6548e-12 9.44635e-12 -1.15919e-11)
(2.32834e-12 1.02716e-11 -1.20225e-11)
(1.36781e-12 9.60627e-12 -1.24119e-11)
(3.00685e-12 1.08232e-11 -1.17063e-11)
(6.44433e-12 1.19401e-11 -1.0704e-11)
(3.72017e-12 1.02641e-11 -7.93643e-12)
(4.88167e-13 9.9653e-12 -5.10356e-12)
(-3.0162e-12 9.58915e-12 -5.9831e-12)
(-2.05994e-12 7.25915e-12 -1.17564e-11)
(-2.44223e-13 7.39946e-12 -1.80411e-11)
(-1.2806e-12 7.89288e-12 -1.78502e-11)
(-3.02833e-12 1.08838e-11 -1.51088e-11)
(-4.77997e-12 1.11156e-11 -1.61855e-11)
(-2.85328e-12 1.07481e-11 -1.86958e-11)
(-2.87946e-12 1.0663e-11 -1.93938e-11)
(-4.47551e-12 1.015e-11 -1.85662e-11)
(5.38736e-13 9.04658e-12 -1.67933e-11)
(2.27303e-12 8.67592e-12 -1.2601e-11)
(-1.73703e-12 5.63044e-12 -8.44873e-12)
(1.63875e-12 2.83049e-12 -4.21288e-12)
(4.65668e-12 5.74742e-12 -2.91923e-13)
(9.40891e-13 7.46174e-12 3.39401e-12)
(-2.61543e-12 9.32835e-12 4.27273e-12)
(-3.11751e-13 5.09726e-12 5.02496e-12)
(2.08913e-12 2.95603e-12 -9.7237e-14)
(-1.00429e-12 1.10233e-12 -3.0941e-12)
(-4.37001e-13 9.89367e-13 -5.9919e-12)
(4.4313e-13 -1.86984e-13 -9.43056e-12)
(-1.64207e-12 -5.92023e-13 -1.17445e-11)
(-1.1295e-12 1.0397e-12 -1.26463e-11)
(1.51812e-12 4.22437e-12 -1.22221e-11)
(2.15264e-13 5.11126e-12 -1.31881e-11)
(1.60155e-13 4.34217e-12 -1.44626e-11)
(1.36288e-12 4.28201e-12 -1.39244e-11)
(1.64083e-13 4.65085e-12 -1.34348e-11)
(2.63251e-13 3.9403e-12 -1.25417e-11)
(-5.79248e-14 6.55605e-12 -1.22627e-11)
(-1.18635e-12 4.99638e-12 -1.19326e-11)
(-2.94012e-12 5.32562e-12 -1.18067e-11)
(-2.51579e-12 5.57485e-12 -9.40168e-12)
(-8.25953e-13 7.67129e-12 -1.20666e-11)
(-9.76155e-13 9.42244e-12 -8.16804e-12)
(-2.04788e-13 1.17482e-11 -4.53844e-12)
(2.48418e-12 9.91147e-12 -4.7144e-12)
(2.68584e-12 7.98398e-12 3.31907e-13)
(1.6575e-12 1.01765e-11 5.23709e-12)
(3.3743e-12 8.43865e-12 7.43282e-12)
(5.27828e-12 1.01467e-11 8.85405e-12)
(4.04585e-12 1.21474e-11 8.78201e-12)
(5.17199e-12 1.06142e-11 1.18078e-11)
(3.24303e-12 1.25695e-11 1.41306e-11)
(3.62534e-12 9.22232e-12 1.85998e-11)
(1.83306e-12 1.03592e-11 2.34625e-11)
(-1.90922e-12 9.76426e-12 2.93898e-11)
(-1.59938e-12 1.09756e-11 3.29343e-11)
(-1.85962e-12 1.10189e-11 2.72582e-11)
(-1.15158e-12 1.24043e-11 1.89182e-11)
(3.63944e-12 1.21864e-11 1.92688e-11)
(5.08e-12 1.25363e-11 1.84074e-11)
(1.33362e-12 1.12699e-11 1.49775e-11)
(2.91325e-12 1.41701e-11 8.95493e-12)
(4.2494e-12 9.72084e-12 3.15204e-12)
(5.89355e-12 8.05422e-12 -6.68975e-13)
(6.45389e-12 8.69849e-12 -2.27214e-12)
(6.03227e-12 1.04783e-11 -1.99329e-12)
(5.09897e-12 9.80256e-12 -2.30397e-12)
(5.12481e-12 9.5187e-12 -2.79759e-12)
(3.6944e-12 9.27609e-12 -2.66367e-12)
(2.00355e-12 1.05904e-11 -1.31583e-12)
(1.30031e-13 1.15802e-11 -1.67747e-12)
(-2.45242e-12 1.08444e-11 -2.11552e-12)
(-2.58048e-12 1.42047e-11 -1.90242e-12)
(-8.65725e-13 1.42935e-11 -1.7639e-12)
(-1.1396e-12 1.25154e-11 -1.37737e-12)
(-2.83012e-12 1.07409e-11 -5.01581e-12)
(-3.47397e-12 1.21506e-11 -2.59808e-12)
(-2.42058e-12 1.19016e-11 1.33407e-12)
(-9.55478e-13 1.34064e-11 2.27155e-12)
(-1.55148e-12 1.00538e-11 -4.07754e-14)
(-4.36173e-12 1.23476e-11 -4.42863e-12)
(-5.47792e-12 1.12855e-11 -7.62276e-12)
(-6.40711e-12 1.32979e-11 -7.99976e-12)
(-6.82271e-12 1.39892e-11 -9.2142e-12)
(-4.24194e-12 1.17943e-11 -1.02014e-11)
(-4.29739e-12 1.18915e-11 -1.05435e-11)
(-4.87367e-12 1.02849e-11 -9.86211e-12)
(-3.29085e-12 9.54477e-12 -8.73501e-12)
(-1.54927e-12 8.97171e-12 -5.95862e-12)
(6.43873e-13 9.07663e-12 -2.445e-12)
(1.48255e-12 7.55779e-12 -3.96125e-12)
(6.57537e-13 9.71759e-12 -9.98674e-12)
(1.34364e-12 1.02534e-11 -1.88278e-11)
(3.70238e-12 1.0408e-11 -1.98716e-11)
(2.74539e-12 1.17376e-11 -1.72692e-11)
(-3.24209e-13 1.00564e-11 -1.46021e-11)
(-4.37895e-12 1.09337e-11 -1.39329e-11)
(-3.61764e-12 8.78905e-12 -1.38659e-11)
(1.23928e-12 1.06478e-11 -1.32619e-11)
(1.65353e-12 9.09399e-12 -1.16936e-11)
(2.44303e-12 8.97252e-12 -1.15163e-11)
(2.23776e-12 8.45105e-12 -1.1318e-11)
(1.70805e-12 8.92967e-12 -1.13618e-11)
(4.76546e-12 1.07285e-11 -1.09856e-11)
(3.26439e-12 1.02205e-11 -7.639e-12)
(1.37445e-12 1.11375e-11 -4.46286e-12)
(3.67915e-13 9.74817e-12 -7.72251e-12)
(-1.22299e-12 5.95079e-12 -1.15853e-11)
(-1.41109e-12 7.67884e-12 -1.66463e-11)
(-2.20445e-12 8.4337e-12 -1.56127e-11)
(-4.24457e-12 1.09787e-11 -1.4594e-11)
(-4.25094e-12 9.63934e-12 -1.92186e-11)
(-2.4585e-12 7.41825e-12 -2.22561e-11)
(-2.05541e-12 9.17337e-12 -2.53391e-11)
(-2.09964e-12 1.11116e-11 -2.48689e-11)
(-4.04189e-13 9.34343e-12 -2.29905e-11)
(1.64575e-12 1.13473e-11 -1.90371e-11)
(2.66556e-12 8.20739e-12 -1.40839e-11)
(2.09584e-12 3.76116e-12 -7.57404e-12)
(2.40551e-12 4.98446e-12 -2.10837e-12)
(2.78426e-13 5.91109e-12 1.50048e-12)
(-2.42595e-12 5.6685e-12 1.52184e-12)
(1.86207e-12 7.74981e-12 8.88135e-12)
(2.2226e-12 5.98535e-12 -1.32052e-12)
(1.30876e-12 4.9582e-12 -5.99356e-12)
(-8.15954e-13 4.97146e-12 -9.81327e-12)
(-1.76087e-12 4.20249e-12 -1.16146e-11)
(-2.49553e-12 3.32e-12 -1.29797e-11)
(-3.08679e-12 4.0998e-12 -1.26542e-11)
(-5.55385e-13 4.94765e-12 -1.20816e-11)
(1.11819e-12 6.01651e-12 -1.2101e-11)
(2.08518e-12 5.4829e-12 -1.23e-11)
(2.3771e-12 6.60329e-12 -1.20369e-11)
(-8.41577e-13 5.94109e-12 -1.16579e-11)
(-2.87395e-12 6.48778e-12 -1.04721e-11)
(-1.78749e-12 8.34862e-12 -9.4966e-12)
(-6.52992e-14 9.36801e-12 -9.10332e-12)
(-2.53572e-12 8.44313e-12 -9.25403e-12)
(-3.78109e-12 8.48525e-12 -9.28941e-12)
(-2.66986e-12 7.30228e-12 -1.0833e-11)
(-2.96374e-12 9.53575e-12 -6.59929e-12)
(2.49515e-13 1.15293e-11 -3.27409e-12)
(4.65551e-12 8.69609e-12 -1.24167e-12)
(1.32657e-12 7.59762e-12 3.23941e-12)
(5.4056e-13 1.20745e-11 9.40371e-12)
(2.6767e-12 9.90794e-12 9.49163e-12)
(2.07817e-12 1.08427e-11 8.41549e-12)
(3.87966e-12 1.18304e-11 8.43458e-12)
(4.34201e-12 1.13792e-11 9.78896e-12)
(3.62264e-12 1.26952e-11 1.06143e-11)
(5.3204e-12 1.14028e-11 1.41525e-11)
(-1.01247e-12 1.35623e-11 1.72296e-11)
(-1.28819e-12 1.42405e-11 2.45306e-11)
(-1.03868e-12 1.54483e-11 2.91657e-11)
(-2.6279e-12 1.55615e-11 2.47665e-11)
(-1.65903e-12 1.22165e-11 1.89699e-11)
(3.2189e-12 1.47288e-11 2.0654e-11)
(6.91458e-12 1.54001e-11 1.82147e-11)
(2.59421e-12 1.4041e-11 1.46225e-11)
(3.52375e-12 1.2584e-11 7.09685e-12)
(6.64363e-12 9.66885e-12 1.37103e-12)
(5.93955e-12 1.07673e-11 -2.37715e-12)
(3.95502e-12 1.03896e-11 -1.60702e-12)
(4.20039e-12 1.23161e-11 -8.02652e-13)
(5.24777e-12 1.39158e-11 -4.343e-13)
(4.12448e-12 1.54731e-11 -2.14116e-13)
(2.7262e-12 1.5735e-11 -6.57171e-14)
(2.42848e-13 1.70824e-11 3.39008e-13)
(6.60046e-14 1.85704e-11 3.03718e-14)
(-2.62267e-12 1.56717e-11 -1.76027e-12)
(-3.02698e-12 1.41634e-11 -6.31818e-12)
(6.9776e-13 1.51622e-11 -6.23399e-12)
(8.12069e-13 1.31208e-11 -3.16409e-12)
(-1.60569e-12 1.34828e-11 -3.08618e-12)
(-2.73345e-12 1.28332e-11 2.12969e-13)
(-4.73161e-12 1.38933e-11 3.0207e-12)
(-2.5584e-12 1.69719e-11 3.73955e-12)
(-1.9933e-12 1.53894e-11 9.0061e-13)
(-4.71773e-12 1.49631e-11 -4.39119e-12)
(-4.79027e-12 1.64464e-11 -5.24625e-12)
(-6.90081e-12 1.47605e-11 -6.44029e-12)
(-5.4764e-12 1.36953e-11 -8.40705e-12)
(-3.73387e-12 1.40188e-11 -9.49223e-12)
(-3.60768e-12 1.70691e-11 -9.95124e-12)
(-1.57857e-12 1.21871e-11 -9.2424e-12)
(-2.68051e-12 1.02162e-11 -7.64849e-12)
(-3.08077e-12 1.19352e-11 -5.68384e-12)
(5.19473e-13 1.17624e-11 -2.79854e-12)
(1.11781e-12 1.10342e-11 -7.46751e-12)
(-1.13338e-12 1.25734e-11 -1.10348e-11)
(1.64908e-12 1.08078e-11 -1.42593e-11)
(1.92963e-12 9.74286e-12 -1.60565e-11)
(1.48567e-12 1.3198e-11 -1.52145e-11)
(6.24051e-13 1.58269e-11 -1.42041e-11)
(-1.76941e-12 1.57879e-11 -1.35576e-11)
(-3.1944e-12 1.09776e-11 -1.23397e-11)
(2.36335e-13 9.21846e-12 -1.18334e-11)
(3.34697e-12 9.17541e-12 -1.10103e-11)
(3.20979e-12 7.87439e-12 -1.07358e-11)
(1.83684e-12 8.49747e-12 -1.08018e-11)
(4.85061e-13 9.81672e-12 -1.14742e-11)
(3.80639e-12 9.28137e-12 -1.25214e-11)
(3.25569e-12 1.01206e-11 -6.67368e-12)
(1.66354e-12 1.21601e-11 -6.87489e-12)
(1.99483e-12 1.03013e-11 -9.02424e-12)
(-1.48912e-12 1.12509e-11 -1.27508e-11)
(-2.33415e-12 1.03279e-11 -1.74711e-11)
(-3.54551e-12 1.09742e-11 -1.57673e-11)
(-3.52743e-12 1.1174e-11 -1.55097e-11)
(-2.31924e-12 9.04352e-12 -1.78261e-11)
(-2.68095e-12 7.35032e-12 -2.13031e-11)
(-4.49271e-12 7.61924e-12 -2.46853e-11)
(-3.13645e-12 7.91083e-12 -2.81807e-11)
(7.53547e-13 1.114e-11 -2.72039e-11)
(1.89075e-12 9.75522e-12 -2.29663e-11)
(2.61633e-12 8.6771e-12 -1.92023e-11)
(3.78648e-12 8.6702e-12 -1.15363e-11)
(3.37643e-12 8.97902e-12 -4.44081e-12)
(1.09608e-12 8.75955e-12 -7.02979e-13)
(-2.31118e-12 8.13839e-12 -6.23728e-13)
(2.18138e-12 1.42627e-11 1.32046e-11)
(3.24352e-12 1.26503e-11 1.47078e-12)
(-1.71819e-12 1.39021e-11 -8.13626e-12)
(-1.20633e-13 1.5014e-11 -1.39284e-11)
(2.26506e-12 1.23255e-11 -1.23788e-11)
(-8.4391e-13 8.25093e-12 -1.06514e-11)
(-2.78202e-12 8.89863e-12 -1.05146e-11)
(-6.56814e-13 9.26289e-12 -1.06738e-11)
(-7.52724e-13 1.12149e-11 -1.08018e-11)
(-5.25076e-13 1.32219e-11 -1.12014e-11)
(1.2629e-12 1.4308e-11 -1.12011e-11)
(-3.11664e-13 1.27812e-11 -1.13873e-11)
(-2.35422e-12 1.43851e-11 -9.79358e-12)
(-2.93093e-12 1.68067e-11 -8.7958e-12)
(-1.65492e-12 1.87076e-11 -8.92618e-12)
(-2.2208e-12 1.66417e-11 -7.42897e-12)
(-2.03454e-12 1.67462e-11 -5.65098e-12)
(-2.25066e-12 1.41472e-11 -4.48174e-12)
(-4.39893e-12 1.48824e-11 -3.79619e-12)
(4.43602e-13 1.39766e-11 -3.36653e-12)
(5.52054e-12 1.43873e-11 -4.32618e-13)
(3.25072e-13 1.43684e-11 2.3195e-12)
(4.65094e-13 1.51338e-11 6.07523e-12)
(3.49272e-12 1.51174e-11 6.79034e-12)
(2.33259e-12 1.81757e-11 6.49414e-12)
(3.58915e-12 1.736e-11 6.98907e-12)
(3.63988e-12 1.77047e-11 8.93145e-12)
(3.28991e-12 1.54165e-11 1.0845e-11)
(2.75918e-12 1.90426e-11 1.03588e-11)
(-9.09469e-13 2.24705e-11 1.0809e-11)
(-2.57076e-12 2.1367e-11 1.65789e-11)
(-4.33957e-12 1.94208e-11 2.05199e-11)
(-7.14643e-13 2.07709e-11 2.06732e-11)
(1.66429e-14 1.75532e-11 1.80118e-11)
(1.61908e-12 1.48388e-11 1.82362e-11)
(4.98621e-12 1.52804e-11 1.55257e-11)
(2.98163e-12 1.78133e-11 1.02022e-11)
(5.87505e-12 1.70827e-11 4.90933e-12)
(5.39966e-12 1.62973e-11 -8.7701e-13)
(5.21546e-12 1.69292e-11 -5.07769e-12)
(4.33953e-12 1.75522e-11 -2.23076e-12)
(2.48426e-12 1.65907e-11 1.90562e-13)
(2.96876e-12 1.88218e-11 6.64312e-13)
(3.15247e-12 2.01903e-11 1.57275e-12)
(2.10845e-12 2.15762e-11 2.01803e-12)
(3.54423e-13 2.27731e-11 2.26483e-12)
(2.18741e-12 2.25533e-11 2.88293e-12)
(1.94731e-12 2.00769e-11 3.44815e-12)
(-2.33029e-12 1.72166e-11 -9.38476e-14)
(1.25006e-13 1.73401e-11 -1.32556e-12)
(3.10738e-13 1.87103e-11 -9.46636e-13)
(-2.68043e-12 2.0578e-11 -1.70718e-12)
(-1.89124e-12 2.07984e-11 1.80725e-12)
(-5.41774e-12 2.17747e-11 3.65777e-12)
(-2.79115e-12 2.17709e-11 3.47793e-12)
(6.57943e-13 2.319e-11 2.1367e-12)
(-5.54222e-12 1.83606e-11 1.05415e-12)
(-5.26501e-12 1.65982e-11 -1.61485e-12)