/*--------------------------------*- C++ -*----------------------------------*\
| =========                 |                                                 |
| \\      /  F ield         | OpenFOAM: The Open Source CFD Toolbox           |
|  \\    /   O peration     | Version:  2406                                  |
|   \\  /    A nd           | Website:  www.openfoam.com                      |
|    \\/     M anipulation  |                                                 |
\*---------------------------------------------------------------------------*/
FoamFile
{
    version     2.0;
    format      ascii;
    arch        "LSB;label=32;scalar=64";
    class       volScalarField;
    location    "0.001";
    object      Ma;
}
// * * * * * * * * * * * * * * * * * * * * * * * * * * * * * * * * * * * * * //

dimensions      [0 0 0 0 0 0 0];

internalField   nonuniform List<scalar> 
81000
(
0.00262597
0.00273575
0.00273808
0.00273812
0.00273811
0.00273807
0.00273796
0.00273775
0.00273743
0.002737
0.00273649
0.00273592
0.00273534
0.0027348
0.00273433
0.00273396
0.00273369
0.00273352
0.00273343
0.0027334
0.00273339
0.00273339
0.00273339
0.00273341
0.00273344
0.00273348
0.00273355
0.00273362
0.0027337
0.00273378
0.00273386
0.00273393
0.00273399
0.00273404
0.00273407
0.00273409
0.0027341
0.0027341
0.00273411
0.00273411
0.00273411
0.0027341
0.0027341
0.0027341
0.0027341
0.0027341
0.0027341
0.0027341
0.0027341
0.0027341
0.0027341
0.0027341
0.0027341
0.0027341
0.0027341
0.0027341
0.0027341
0.0027341
0.0027341
0.00273411
0.00273411
0.00273411
0.0027341
0.0027341
0.00273409
0.00273407
0.00273404
0.00273399
0.00273393
0.00273386
0.00273378
0.0027337
0.00273361
0.00273354
0.00273348
0.00273343
0.0027334
0.00273338
0.00273338
0.00273337
0.00273338
0.00273341
0.0027335
0.00273366
0.00273393
0.00273429
0.00273476
0.00273529
0.00273587
0.00273643
0.00273695
0.00273737
0.00273769
0.0027379
0.00273801
0.00273805
0.00273806
0.00273802
0.00273569
0.00262613
0.0175963
0.0175947
0.0175943
0.0175933
0.0175918
0.0175897
0.0175873
0.0175847
0.0175821
0.0175796
0.0175774
0.0175755
0.017574
0.0175727
0.0175718
0.0175711
0.0175707
0.0175704
0.0175702
0.0175701
0.0175701
0.0175701
0.0175701
0.0175701
0.0175701
0.0175701
0.0175701
0.0175701
0.0175702
0.0175702
0.0175702
0.0175703
0.0175703
0.0175703
0.0175704
0.0175704
0.0175704
0.0175704
0.0175704
0.0175704
0.0175704
0.0175704
0.0175704
0.0175704
0.0175704
0.0175704
0.0175704
0.0175704
0.0175704
0.0175704
0.0175704
0.0175704
0.0175704
0.0175704
0.0175704
0.0175704
0.0175704
0.0175704
0.0175704
0.0175704
0.0175704
0.0175704
0.0175704
0.0175704
0.0175704
0.0175704
0.0175703
0.0175703
0.0175703
0.0175702
0.0175702
0.0175702
0.0175701
0.0175701
0.0175701
0.0175701
0.0175701
0.0175701
0.0175701
0.0175701
0.0175701
0.0175702
0.0175704
0.0175707
0.0175711
0.0175718
0.0175727
0.0175739
0.0175755
0.0175774
0.0175796
0.017582
0.0175847
0.0175873
0.0175897
0.0175917
0.0175932
0.0175942
0.0175947
0.0175962
0.0137853
0.0137848
0.013784
0.0137827
0.0137811
0.0137792
0.0137774
0.0137757
0.0137742
0.0137729
0.0137719
0.0137711
0.0137706
0.0137702
0.01377
0.0137698
0.0137697
0.0137696
0.0137696
0.0137696
0.0137696
0.0137696
0.0137696
0.0137696
0.0137696
0.0137696
0.0137696
0.0137697
0.0137697
0.0137697
0.0137697
0.0137698
0.0137698
0.0137698
0.0137698
0.0137698
0.0137698
0.0137698
0.0137698
0.0137698
0.0137699
0.0137699
0.0137699
0.0137699
0.0137699
0.0137699
0.0137699
0.0137699
0.0137699
0.0137699
0.0137699
0.0137699
0.0137699
0.0137699
0.0137699
0.0137699
0.0137699
0.0137699
0.0137699
0.0137699
0.0137698
0.0137698
0.0137698
0.0137698
0.0137698
0.0137698
0.0137698
0.0137698
0.0137698
0.0137697
0.0137697
0.0137697
0.0137697
0.0137696
0.0137696
0.0137696
0.0137696
0.0137696
0.0137696
0.0137696
0.0137696
0.0137696
0.0137696
0.0137697
0.0137698
0.01377
0.0137702
0.0137706
0.0137711
0.0137719
0.0137729
0.0137741
0.0137757
0.0137774
0.0137792
0.013781
0.0137827
0.013784
0.0137848
0.0137852
0.00260361
0.00260354
0.00260336
0.00260306
0.00260266
0.0026022
0.00260171
0.00260123
0.00260079
0.00260041
0.00260008
0.00259982
0.00259961
0.00259944
0.00259931
0.00259921
0.00259913
0.00259907
0.00259903
0.002599
0.00259897
0.00259896
0.00259894
0.00259894
0.00259893
0.00259893
0.00259893
0.00259893
0.00259893
0.00259893
0.00259894
0.00259894
0.00259894
0.00259895
0.00259895
0.00259895
0.00259896
0.00259896
0.00259896
0.00259896
0.00259896
0.00259896
0.00259896
0.00259896
0.00259896
0.00259896
0.00259896
0.00259896
0.00259896
0.00259896
0.00259896
0.00259896
0.00259896
0.00259896
0.00259896
0.00259896
0.00259896
0.00259896
0.00259896
0.00259896
0.00259896
0.00259896
0.00259896
0.00259896
0.00259895
0.00259895
0.00259895
0.00259894
0.00259894
0.00259894
0.00259893
0.00259893
0.00259893
0.00259893
0.00259893
0.00259893
0.00259894
0.00259894
0.00259896
0.00259897
0.002599
0.00259903
0.00259907
0.00259913
0.00259921
0.00259931
0.00259944
0.00259961
0.00259982
0.00260008
0.0026004
0.00260079
0.00260123
0.0026017
0.00260219
0.00260266
0.00260305
0.00260335
0.00260352
0.0026036
7.2751e-05
8.32109e-05
8.39625e-05
8.4016e-05
8.40196e-05
8.40197e-05
8.40192e-05
8.40175e-05
8.40137e-05
8.40072e-05
8.39979e-05
8.39861e-05
8.39727e-05
8.39585e-05
8.39447e-05
8.3932e-05
8.39209e-05
8.39118e-05
8.39046e-05
8.38992e-05
8.38952e-05
8.38925e-05
8.38906e-05
8.38894e-05
8.38886e-05
8.38882e-05
8.38879e-05
8.38878e-05
8.38877e-05
8.38878e-05
8.38879e-05
8.3888e-05
8.38882e-05
8.38884e-05
8.38887e-05
8.38889e-05
8.38891e-05
8.38893e-05
8.38895e-05
8.38896e-05
8.38897e-05
8.38897e-05
8.38898e-05
8.38898e-05
8.38898e-05
8.38898e-05
8.38898e-05
8.38898e-05
8.38898e-05
8.38898e-05
8.38898e-05
8.38898e-05
8.38898e-05
8.38898e-05
8.38898e-05
8.38898e-05
8.38898e-05
8.38898e-05
8.38897e-05
8.38897e-05
8.38896e-05
8.38895e-05
8.38893e-05
8.38891e-05
8.38889e-05
8.38887e-05
8.38884e-05
8.38882e-05
8.3888e-05
8.38879e-05
8.38878e-05
8.38877e-05
8.38878e-05
8.38879e-05
8.38882e-05
8.38886e-05
8.38894e-05
8.38906e-05
8.38925e-05
8.38952e-05
8.38992e-05
8.39046e-05
8.39118e-05
8.39209e-05
8.3932e-05
8.39447e-05
8.39585e-05
8.39726e-05
8.39861e-05
8.39978e-05
8.40072e-05
8.40136e-05
8.40174e-05
8.40191e-05
8.40195e-05
8.40194e-05
8.40159e-05
8.39624e-05
8.32115e-05
7.27552e-05
3.12421e-06
3.65506e-06
3.6995e-06
3.70545e-06
3.70837e-06
3.7109e-06
3.71301e-06
3.71479e-06
3.71632e-06
3.71763e-06
3.71873e-06
3.71964e-06
3.72036e-06
3.72091e-06
3.72129e-06
3.72152e-06
3.72163e-06
3.72163e-06
3.72153e-06
3.7213e-06
3.72096e-06
3.72053e-06
3.72003e-06
3.71952e-06
3.71905e-06
3.71865e-06
3.71833e-06
3.7181e-06
3.71794e-06
3.71784e-06
3.71779e-06
3.71778e-06
3.71779e-06
3.71781e-06
3.71784e-06
3.71788e-06
3.71791e-06
3.71794e-06
3.71796e-06
3.71798e-06
3.71799e-06
3.718e-06
3.71801e-06
3.71801e-06
3.71801e-06
3.71801e-06
3.71801e-06
3.71802e-06
3.71802e-06
3.71802e-06
3.71802e-06
3.71802e-06
3.71802e-06
3.71801e-06
3.71801e-06
3.71801e-06
3.71801e-06
3.71801e-06
3.718e-06
3.71799e-06
3.71798e-06
3.71796e-06
3.71794e-06
3.71791e-06
3.71788e-06
3.71785e-06
3.71782e-06
3.71779e-06
3.71778e-06
3.7178e-06
3.71785e-06
3.71795e-06
3.71811e-06
3.71835e-06
3.71866e-06
3.71906e-06
3.71953e-06
3.72004e-06
3.72054e-06
3.72097e-06
3.72131e-06
3.72153e-06
3.72163e-06
3.72163e-06
3.72151e-06
3.72127e-06
3.72089e-06
3.72034e-06
3.71961e-06
3.71869e-06
3.71758e-06
3.71628e-06
3.71475e-06
3.71296e-06
3.71085e-06
3.70833e-06
3.70542e-06
3.69949e-06
3.65514e-06
3.12479e-06
3.52693e-07
3.93499e-07
3.95853e-07
3.95925e-07
3.96061e-07
3.96198e-07
3.96358e-07
3.96543e-07
3.96753e-07
3.96987e-07
3.97241e-07
3.97508e-07
3.9778e-07
3.98045e-07
3.98293e-07
3.98518e-07
3.98712e-07
3.98872e-07
3.98999e-07
3.99095e-07
3.99162e-07
3.99207e-07
3.99234e-07
3.99247e-07
3.99247e-07
3.99239e-07
3.99226e-07
3.99211e-07
3.99194e-07
3.99178e-07
3.99163e-07
3.99149e-07
3.99138e-07
3.99128e-07
3.99121e-07
3.99115e-07
3.9911e-07
3.99107e-07
3.99104e-07
3.99102e-07
3.99101e-07
3.991e-07
3.991e-07
3.99099e-07
3.99099e-07
3.99099e-07
3.99099e-07
3.99099e-07
3.99099e-07
3.99099e-07
3.99099e-07
3.99099e-07
3.99099e-07
3.99099e-07
3.99099e-07
3.99099e-07
3.991e-07
3.991e-07
3.991e-07
3.99101e-07
3.99103e-07
3.99104e-07
3.99107e-07
3.9911e-07
3.99115e-07
3.99121e-07
3.99129e-07
3.99139e-07
3.99151e-07
3.99165e-07
3.9918e-07
3.99197e-07
3.99214e-07
3.9923e-07
3.99243e-07
3.99251e-07
3.99251e-07
3.99239e-07
3.99213e-07
3.99169e-07
3.99101e-07
3.99007e-07
3.9888e-07
3.9872e-07
3.98526e-07
3.98302e-07
3.98054e-07
3.97789e-07
3.97518e-07
3.97251e-07
3.96997e-07
3.96764e-07
3.96556e-07
3.96373e-07
3.96215e-07
3.9608e-07
3.95947e-07
3.95877e-07
3.93528e-07
3.52756e-07
3.07888e-08
3.71253e-08
3.783e-08
3.8111e-08
3.82973e-08
3.84222e-08
3.85054e-08
3.85597e-08
3.85937e-08
3.86135e-08
3.86237e-08
3.86277e-08
3.86272e-08
3.86233e-08
3.8616e-08
3.86056e-08
3.85924e-08
3.85773e-08
3.85612e-08
3.8545e-08
3.85295e-08
3.85152e-08
3.85024e-08
3.84914e-08
3.84822e-08
3.84747e-08
3.84688e-08
3.84644e-08
3.84612e-08
3.84591e-08
3.84579e-08
3.84574e-08
3.84576e-08
3.84582e-08
3.84591e-08
3.84601e-08
3.84611e-08
3.84621e-08
3.84629e-08
3.84637e-08
3.84642e-08
3.84647e-08
3.8465e-08
3.84652e-08
3.84654e-08
3.84655e-08
3.84655e-08
3.84655e-08
3.84655e-08
3.84655e-08
3.84655e-08
3.84655e-08
3.84655e-08
3.84655e-08
3.84655e-08
3.84654e-08
3.84652e-08
3.8465e-08
3.84647e-08
3.84642e-08
3.84637e-08
3.84629e-08
3.84621e-08
3.84611e-08
3.846e-08
3.8459e-08
3.84581e-08
3.84574e-08
3.84572e-08
3.84576e-08
3.84587e-08
3.84608e-08
3.84639e-08
3.84683e-08
3.84741e-08
3.84816e-08
3.84907e-08
3.85016e-08
3.85143e-08
3.85286e-08
3.8544e-08
3.85602e-08
3.85763e-08
3.85914e-08
3.86046e-08
3.86151e-08
3.86223e-08
3.86263e-08
3.86268e-08
3.86228e-08
3.86126e-08
3.85927e-08
3.85586e-08
3.85042e-08
3.84207e-08
3.82954e-08
3.81088e-08
3.78278e-08
3.71246e-08
3.0799e-08
1.09298e-08
1.26374e-08
1.27713e-08
1.27816e-08
1.27908e-08
1.28016e-08
1.28139e-08
1.28275e-08
1.2842e-08
1.28568e-08
1.28713e-08
1.28851e-08
1.28977e-08
1.29089e-08
1.29184e-08
1.29261e-08
1.29323e-08
1.2937e-08
1.29404e-08
1.29428e-08
1.29444e-08
1.29454e-08
1.2946e-08
1.29462e-08
1.29464e-08
1.29464e-08
1.29463e-08
1.29462e-08
1.29461e-08
1.29459e-08
1.29458e-08
1.29456e-08
1.29455e-08
1.29455e-08
1.29454e-08
1.29454e-08
1.29454e-08
1.29454e-08
1.29454e-08
1.29454e-08
1.29454e-08
1.29454e-08
1.29454e-08
1.29454e-08
1.29454e-08
1.29454e-08
1.29454e-08
1.29454e-08
1.29454e-08
1.29454e-08
1.29454e-08
1.29454e-08
1.29454e-08
1.29454e-08
1.29454e-08
1.29454e-08
1.29454e-08
1.29454e-08
1.29454e-08
1.29454e-08
1.29454e-08
1.29454e-08
1.29454e-08
1.29454e-08
1.29454e-08
1.29454e-08
1.29455e-08
1.29455e-08
1.29456e-08
1.29458e-08
1.29459e-08
1.2946e-08
1.29462e-08
1.29463e-08
1.29464e-08
1.29464e-08
1.29462e-08
1.2946e-08
1.29454e-08
1.29445e-08
1.29429e-08
1.29406e-08
1.29372e-08
1.29326e-08
1.29264e-08
1.29187e-08
1.29092e-08
1.28981e-08
1.28854e-08
1.28715e-08
1.28568e-08
1.28419e-08
1.28274e-08
1.28137e-08
1.28012e-08
1.27904e-08
1.27812e-08
1.2771e-08
1.26375e-08
1.09325e-08
4.19106e-10
4.70833e-10
4.74016e-10
4.7423e-10
4.74483e-10
4.74688e-10
4.74983e-10
4.75353e-10
4.75802e-10
4.76325e-10
4.76911e-10
4.77543e-10
4.782e-10
4.78858e-10
4.79497e-10
4.80098e-10
4.80646e-10
4.81132e-10
4.81551e-10
4.81903e-10
4.82192e-10
4.82423e-10
4.82603e-10
4.82741e-10
4.82843e-10
4.82918e-10
4.8297e-10
4.83006e-10
4.83029e-10
4.83044e-10
4.83052e-10
4.83056e-10
4.83057e-10
4.83057e-10
4.83056e-10
4.83055e-10
4.83054e-10
4.83053e-10
4.83052e-10
4.83051e-10
4.83051e-10
4.83051e-10
4.83051e-10
4.83051e-10
4.83051e-10
4.8305e-10
4.83051e-10
4.8305e-10
4.8305e-10
4.8305e-10
4.8305e-10
4.8305e-10
4.8305e-10
4.8305e-10
4.8305e-10
4.8305e-10
4.8305e-10
4.8305e-10
4.8305e-10
4.8305e-10
4.83051e-10
4.83052e-10
4.83053e-10
4.83055e-10
4.83056e-10
4.83057e-10
4.83058e-10
4.83058e-10
4.83056e-10
4.83051e-10
4.83042e-10
4.83028e-10
4.83004e-10
4.82969e-10
4.82917e-10
4.82843e-10
4.82741e-10
4.82604e-10
4.82425e-10
4.82195e-10
4.81906e-10
4.81555e-10
4.81136e-10
4.80652e-10
4.80105e-10
4.79508e-10
4.78871e-10
4.78216e-10
4.77563e-10
4.76933e-10
4.76348e-10
4.75826e-10
4.75376e-10
4.75005e-10
4.74708e-10
4.74498e-10
4.74251e-10
4.74041e-10
4.70855e-10
4.19106e-10
0.00267974
0.0027858
0.00278795
0.00278799
0.00278798
0.00278793
0.00278781
0.00278759
0.00278726
0.00278681
0.00278627
0.00278567
0.00278507
0.0027845
0.00278401
0.00278363
0.00278335
0.00278317
0.00278307
0.00278303
0.00278302
0.00278301
0.00278302
0.00278303
0.00278306
0.0027831
0.00278317
0.00278324
0.00278333
0.00278342
0.0027835
0.00278357
0.00278363
0.00278368
0.00278371
0.00278373
0.00278374
0.00278374
0.00278375
0.00278375
0.00278375
0.00278374
0.00278374
0.00278374
0.00278374
0.00278374
0.00278374
0.00278374
0.00278374
0.00278374
0.00278374
0.00278374
0.00278374
0.00278374
0.00278374
0.00278374
0.00278374
0.00278374
0.00278374
0.00278375
0.00278375
0.00278375
0.00278374
0.00278374
0.00278373
0.00278371
0.00278368
0.00278363
0.00278357
0.0027835
0.00278342
0.00278333
0.00278324
0.00278316
0.00278309
0.00278305
0.00278302
0.00278301
0.002783
0.002783
0.00278302
0.00278306
0.00278315
0.00278333
0.0027836
0.00278398
0.00278447
0.00278503
0.00278562
0.00278622
0.00278676
0.0027872
0.00278754
0.00278776
0.00278787
0.00278792
0.00278793
0.0027879
0.00278575
0.00267985
0.017607
0.0176055
0.0176045
0.017603
0.0176009
0.0175986
0.017596
0.0175935
0.017591
0.0175888
0.0175867
0.017585
0.0175836
0.0175826
0.0175817
0.0175812
0.0175808
0.0175806
0.0175805
0.0175804
0.0175804
0.0175804
0.0175804
0.0175804
0.0175804
0.0175804
0.0175805
0.0175805
0.0175805
0.0175806
0.0175806
0.0175806
0.0175807
0.0175807
0.0175807
0.0175807
0.0175807
0.0175808
0.0175808
0.0175808
0.0175808
0.0175808
0.0175808
0.0175808
0.0175808
0.0175808
0.0175808
0.0175808
0.0175808
0.0175808
0.0175808
0.0175808
0.0175808
0.0175808
0.0175808
0.0175808
0.0175808
0.0175808
0.0175808
0.0175808
0.0175808
0.0175808
0.0175808
0.0175807
0.0175807
0.0175807
0.0175807
0.0175807
0.0175806
0.0175806
0.0175806
0.0175805
0.0175805
0.0175804
0.0175804
0.0175804
0.0175804
0.0175804
0.0175804
0.0175804
0.0175804
0.0175805
0.0175806
0.0175808
0.0175812
0.0175817
0.0175825
0.0175836
0.017585
0.0175867
0.0175887
0.017591
0.0175934
0.017596
0.0175985
0.0176009
0.0176029
0.0176045
0.0176055
0.0176069
0.0137964
0.0137959
0.0137954
0.0137946
0.0137933
0.0137917
0.01379
0.0137883
0.0137867
0.0137855
0.0137845
0.0137837
0.0137832
0.0137829
0.0137826
0.0137825
0.0137824
0.0137824
0.0137824
0.0137824
0.0137824
0.0137824
0.0137824
0.0137824
0.0137824
0.0137824
0.0137824
0.0137824
0.0137825
0.0137825
0.0137825
0.0137825
0.0137826
0.0137826
0.0137826
0.0137826
0.0137826
0.0137826
0.0137826
0.0137826
0.0137826
0.0137826
0.0137826
0.0137826
0.0137826
0.0137826
0.0137826
0.0137826
0.0137826
0.0137826
0.0137826
0.0137826
0.0137826
0.0137826
0.0137826
0.0137826
0.0137826
0.0137826
0.0137826
0.0137826
0.0137826
0.0137826
0.0137826
0.0137826
0.0137826
0.0137826
0.0137826
0.0137826
0.0137825
0.0137825
0.0137825
0.0137824
0.0137824
0.0137824
0.0137824
0.0137824
0.0137824
0.0137824
0.0137823
0.0137823
0.0137823
0.0137824
0.0137824
0.0137824
0.0137825
0.0137826
0.0137828
0.0137832
0.0137837
0.0137844
0.0137854
0.0137867
0.0137883
0.01379
0.0137917
0.0137933
0.0137945
0.0137954
0.0137958
0.0137963
0.00259795
0.00259786
0.00259765
0.00259732
0.00259689
0.00259642
0.00259593
0.00259545
0.00259502
0.00259464
0.00259432
0.00259406
0.00259385
0.00259368
0.00259355
0.00259345
0.00259337
0.00259331
0.00259327
0.00259324
0.00259321
0.0025932
0.00259319
0.00259318
0.00259318
0.00259318
0.00259318
0.00259318
0.00259318
0.00259318
0.00259318
0.00259319
0.00259319
0.0025932
0.0025932
0.0025932
0.0025932
0.00259321
0.00259321
0.00259321
0.00259321
0.00259321
0.00259321
0.00259321
0.00259321
0.00259321
0.00259321
0.00259321
0.00259321
0.00259321
0.00259321
0.00259321
0.00259321
0.00259321
0.00259321
0.00259321
0.00259321
0.00259321
0.00259321
0.00259321
0.00259321
0.00259321
0.00259321
0.0025932
0.0025932
0.0025932
0.0025932
0.00259319
0.00259319
0.00259318
0.00259318
0.00259318
0.00259318
0.00259318
0.00259318
0.00259318
0.00259318
0.00259319
0.0025932
0.00259321
0.00259324
0.00259327
0.00259331
0.00259337
0.00259345
0.00259355
0.00259368
0.00259385
0.00259406
0.00259432
0.00259464
0.00259502
0.00259545
0.00259592
0.00259641
0.00259688
0.00259731
0.00259764
0.00259785
0.00259794
7.23954e-05
8.27909e-05
8.3537e-05
8.35901e-05
8.35937e-05
8.35938e-05
8.35933e-05
8.35916e-05
8.35877e-05
8.35812e-05
8.35718e-05
8.356e-05
8.35466e-05
8.35327e-05
8.3519e-05
8.35065e-05
8.34957e-05
8.34868e-05
8.34798e-05
8.34745e-05
8.34707e-05
8.3468e-05
8.34662e-05
8.34651e-05
8.34644e-05
8.3464e-05
8.34637e-05
8.34636e-05
8.34636e-05
8.34637e-05
8.34638e-05
8.34639e-05
8.34641e-05
8.34644e-05
8.34646e-05
8.34649e-05
8.34651e-05
8.34653e-05
8.34655e-05
8.34656e-05
8.34657e-05
8.34658e-05
8.34658e-05
8.34658e-05
8.34659e-05
8.34659e-05
8.34659e-05
8.34659e-05
8.34659e-05
8.34659e-05
8.34659e-05
8.34659e-05
8.34659e-05
8.34659e-05
8.34659e-05
8.34659e-05
8.34658e-05
8.34658e-05
8.34658e-05
8.34657e-05
8.34656e-05
8.34655e-05
8.34653e-05
8.34651e-05
8.34649e-05
8.34646e-05
8.34644e-05
8.34641e-05
8.34639e-05
8.34638e-05
8.34637e-05
8.34636e-05
8.34636e-05
8.34637e-05
8.3464e-05
8.34644e-05
8.34651e-05
8.34662e-05
8.3468e-05
8.34707e-05
8.34745e-05
8.34798e-05
8.34868e-05
8.34957e-05
8.35065e-05
8.3519e-05
8.35326e-05
8.35466e-05
8.356e-05
8.35717e-05
8.35811e-05
8.35876e-05
8.35915e-05
8.35932e-05
8.35936e-05
8.35935e-05
8.359e-05
8.3537e-05
8.27914e-05
7.23999e-05
3.11391e-06
3.64628e-06
3.69113e-06
3.69714e-06
3.70002e-06
3.70253e-06
3.70462e-06
3.70638e-06
3.70787e-06
3.70913e-06
3.71019e-06
3.71105e-06
3.71172e-06
3.71222e-06
3.71256e-06
3.71276e-06
3.71283e-06
3.71279e-06
3.71263e-06
3.71235e-06
3.71195e-06
3.71147e-06
3.71093e-06
3.71039e-06
3.7099e-06
3.70948e-06
3.70914e-06
3.7089e-06
3.70873e-06
3.70863e-06
3.70857e-06
3.70856e-06
3.70858e-06
3.70861e-06
3.70864e-06
3.70868e-06
3.70871e-06
3.70874e-06
3.70877e-06
3.70879e-06
3.7088e-06
3.70881e-06
3.70882e-06
3.70882e-06
3.70882e-06
3.70882e-06
3.70883e-06
3.70883e-06
3.70883e-06
3.70883e-06
3.70883e-06
3.70883e-06
3.70883e-06
3.70883e-06
3.70882e-06
3.70882e-06
3.70882e-06
3.70882e-06
3.70881e-06
3.7088e-06
3.70879e-06
3.70877e-06
3.70874e-06
3.70872e-06
3.70868e-06
3.70865e-06
3.70861e-06
3.70858e-06
3.70857e-06
3.70858e-06
3.70863e-06
3.70874e-06
3.70891e-06
3.70915e-06
3.70949e-06
3.70991e-06
3.7104e-06
3.71094e-06
3.71147e-06
3.71196e-06
3.71235e-06
3.71263e-06
3.71278e-06
3.71282e-06
3.71274e-06
3.71254e-06
3.7122e-06
3.7117e-06
3.71102e-06
3.71015e-06
3.70909e-06
3.70783e-06
3.70633e-06
3.70457e-06
3.70249e-06
3.69999e-06
3.69712e-06
3.69113e-06
3.64638e-06
3.11455e-06
3.50749e-07
3.91136e-07
3.93453e-07
3.9352e-07
3.93653e-07
3.93787e-07
3.93944e-07
3.94126e-07
3.94333e-07
3.94564e-07
3.94816e-07
3.95082e-07
3.95352e-07
3.95616e-07
3.95864e-07
3.96088e-07
3.96282e-07
3.96442e-07
3.96568e-07
3.96664e-07
3.96731e-07
3.96776e-07
3.96804e-07
3.96817e-07
3.96819e-07
3.96812e-07
3.968e-07
3.96786e-07
3.9677e-07
3.96755e-07
3.96741e-07
3.96728e-07
3.96718e-07
3.96709e-07
3.96702e-07
3.96696e-07
3.96692e-07
3.96689e-07
3.96687e-07
3.96685e-07
3.96684e-07
3.96683e-07
3.96682e-07
3.96682e-07
3.96682e-07
3.96682e-07
3.96682e-07
3.96682e-07
3.96682e-07
3.96682e-07
3.96682e-07
3.96682e-07
3.96682e-07
3.96682e-07
3.96682e-07
3.96682e-07
3.96682e-07
3.96682e-07
3.96683e-07
3.96684e-07
3.96685e-07
3.96687e-07
3.96689e-07
3.96693e-07
3.96697e-07
3.96703e-07
3.9671e-07
3.96719e-07
3.96729e-07
3.96742e-07
3.96756e-07
3.96772e-07
3.96788e-07
3.96802e-07
3.96814e-07
3.96821e-07
3.9682e-07
3.96807e-07
3.9678e-07
3.96736e-07
3.96669e-07
3.96574e-07
3.96448e-07
3.96288e-07
3.96095e-07
3.95872e-07
3.95624e-07
3.9536e-07
3.95091e-07
3.94826e-07
3.94575e-07
3.94345e-07
3.94139e-07
3.9396e-07
3.93805e-07
3.93673e-07
3.93543e-07
3.93477e-07
3.91167e-07
3.50823e-07
3.07349e-08
3.71384e-08
3.7871e-08
3.81479e-08
3.83347e-08
3.84618e-08
3.85477e-08
3.86047e-08
3.86413e-08
3.86634e-08
3.86753e-08
3.86803e-08
3.86799e-08
3.86754e-08
3.86675e-08
3.86566e-08
3.86433e-08
3.86283e-08
3.86126e-08
3.85968e-08
3.85816e-08
3.85675e-08
3.85549e-08
3.85439e-08
3.85346e-08
3.85271e-08
3.85211e-08
3.85165e-08
3.85133e-08
3.85111e-08
3.85098e-08
3.85093e-08
3.85095e-08
3.85101e-08
3.8511e-08
3.8512e-08
3.85131e-08
3.85141e-08
3.85149e-08
3.85157e-08
3.85163e-08
3.85167e-08
3.85171e-08
3.85173e-08
3.85175e-08
3.85176e-08
3.85176e-08
3.85176e-08
3.85176e-08
3.85176e-08
3.85176e-08
3.85176e-08
3.85176e-08
3.85176e-08
3.85176e-08
3.85175e-08
3.85173e-08
3.85171e-08
3.85167e-08
3.85163e-08
3.85157e-08
3.85149e-08
3.8514e-08
3.8513e-08
3.8512e-08
3.85109e-08
3.851e-08
3.85093e-08
3.85091e-08
3.85096e-08
3.85108e-08
3.8513e-08
3.85162e-08
3.85207e-08
3.85267e-08
3.85342e-08
3.85435e-08
3.85544e-08
3.8567e-08
3.85811e-08
3.85962e-08
3.8612e-08
3.86277e-08
3.86426e-08
3.86559e-08
3.86667e-08
3.86746e-08
3.8679e-08
3.86794e-08
3.86743e-08
3.86623e-08
3.864e-08
3.86032e-08
3.85458e-08
3.84596e-08
3.83323e-08
3.81452e-08
3.78684e-08
3.71377e-08
3.07469e-08
1.08489e-08
1.2555e-08
1.26896e-08
1.27002e-08
1.27095e-08
1.27204e-08
1.27329e-08
1.27466e-08
1.27611e-08
1.27759e-08
1.27904e-08
1.28042e-08
1.28168e-08
1.28278e-08
1.28372e-08
1.28449e-08
1.2851e-08
1.28556e-08
1.2859e-08
1.28614e-08
1.2863e-08
1.28639e-08
1.28645e-08
1.28648e-08
1.2865e-08
1.2865e-08
1.28649e-08
1.28648e-08
1.28647e-08
1.28646e-08
1.28645e-08
1.28644e-08
1.28643e-08
1.28642e-08
1.28642e-08
1.28642e-08
1.28642e-08
1.28642e-08
1.28642e-08
1.28642e-08
1.28642e-08
1.28642e-08
1.28642e-08
1.28642e-08
1.28643e-08
1.28643e-08
1.28643e-08
1.28643e-08
1.28643e-08
1.28643e-08
1.28643e-08
1.28643e-08
1.28643e-08
1.28643e-08
1.28643e-08
1.28643e-08
1.28642e-08
1.28642e-08
1.28642e-08
1.28642e-08
1.28642e-08
1.28642e-08
1.28642e-08
1.28642e-08
1.28642e-08
1.28642e-08
1.28642e-08
1.28643e-08
1.28644e-08
1.28645e-08
1.28646e-08
1.28647e-08
1.28648e-08
1.28649e-08
1.2865e-08
1.2865e-08
1.28648e-08
1.28645e-08
1.2864e-08
1.2863e-08
1.28615e-08
1.28592e-08
1.28559e-08
1.28513e-08
1.28453e-08
1.28376e-08
1.28282e-08
1.28171e-08
1.28045e-08
1.27906e-08
1.27759e-08
1.2761e-08
1.27464e-08
1.27326e-08
1.272e-08
1.27091e-08
1.26997e-08
1.26892e-08
1.25551e-08
1.0852e-08
4.15492e-10
4.66479e-10
4.696e-10
4.69815e-10
4.70075e-10
4.70277e-10
4.70572e-10
4.70939e-10
4.71383e-10
4.71901e-10
4.72481e-10
4.73108e-10
4.73759e-10
4.74413e-10
4.75049e-10
4.75646e-10
4.76192e-10
4.76675e-10
4.77093e-10
4.77444e-10
4.77732e-10
4.77962e-10
4.78143e-10
4.78282e-10
4.78385e-10
4.7846e-10
4.78514e-10
4.7855e-10
4.78574e-10
4.78589e-10
4.78598e-10
4.78603e-10
4.78605e-10
4.78605e-10
4.78604e-10
4.78604e-10
4.78602e-10
4.78602e-10
4.78601e-10
4.78601e-10
4.786e-10
4.786e-10
4.786e-10
4.786e-10
4.786e-10
4.786e-10
4.786e-10
4.786e-10
4.786e-10
4.786e-10
4.786e-10
4.786e-10
4.786e-10
4.786e-10
4.786e-10
4.786e-10
4.786e-10
4.786e-10
4.786e-10
4.78601e-10
4.78602e-10
4.78603e-10
4.78604e-10
4.78606e-10
4.78607e-10
4.78608e-10
4.78608e-10
4.78608e-10
4.78605e-10
4.786e-10
4.78591e-10
4.78576e-10
4.78552e-10
4.78516e-10
4.78463e-10
4.78388e-10
4.78286e-10
4.78149e-10
4.77969e-10
4.77739e-10
4.77451e-10
4.77101e-10
4.76684e-10
4.76201e-10
4.75657e-10
4.75062e-10
4.7443e-10
4.73779e-10
4.7313e-10
4.72506e-10
4.71927e-10
4.7141e-10
4.70965e-10
4.70596e-10
4.70299e-10
4.7009e-10
4.69835e-10
4.69624e-10
4.66501e-10
4.15503e-10
0.00272785
0.00282679
0.00282866
0.00282868
0.00282867
0.00282861
0.00282847
0.00282822
0.00282783
0.00282731
0.00282668
0.00282599
0.0028253
0.00282464
0.00282406
0.0028236
0.00282324
0.002823
0.00282284
0.00282275
0.00282271
0.00282269
0.00282269
0.00282269
0.0028227
0.00282272
0.00282277
0.00282284
0.00282292
0.00282301
0.00282309
0.00282316
0.00282322
0.00282326
0.00282329
0.00282331
0.00282332
0.00282333
0.00282333
0.00282333
0.00282333
0.00282333
0.00282333
0.00282333
0.00282333
0.00282333
0.00282333
0.00282333
0.00282333
0.00282333
0.00282333
0.00282333
0.00282333
0.00282333
0.00282333
0.00282333
0.00282333
0.00282333
0.00282333
0.00282333
0.00282333
0.00282333
0.00282333
0.00282332
0.00282331
0.00282329
0.00282326
0.00282322
0.00282316
0.00282309
0.002823
0.00282291
0.00282283
0.00282276
0.00282271
0.00282269
0.00282268
0.00282268
0.00282268
0.0028227
0.00282274
0.00282283
0.00282298
0.00282322
0.00282357
0.00282404
0.00282461
0.00282526
0.00282595
0.00282664
0.00282726
0.00282778
0.00282817
0.00282842
0.00282856
0.00282862
0.00282863
0.0028286
0.00282674
0.0027279
0.0176335
0.0176322
0.0176316
0.0176305
0.0176289
0.0176269
0.0176245
0.017622
0.0176195
0.0176171
0.0176149
0.0176131
0.0176116
0.0176104
0.0176096
0.017609
0.0176087
0.0176084
0.0176083
0.0176082
0.0176082
0.0176082
0.0176082
0.0176082
0.0176082
0.0176082
0.0176083
0.0176083
0.0176083
0.0176084
0.0176084
0.0176084
0.0176085
0.0176085
0.0176085
0.0176085
0.0176085
0.0176085
0.0176085
0.0176085
0.0176085
0.0176085
0.0176085
0.0176085
0.0176085
0.0176085
0.0176085
0.0176085
0.0176085
0.0176085
0.0176085
0.0176085
0.0176085
0.0176085
0.0176085
0.0176085
0.0176085
0.0176085
0.0176085
0.0176085
0.0176085
0.0176085
0.0176085
0.0176085
0.0176085
0.0176085
0.0176085
0.0176085
0.0176084
0.0176084
0.0176084
0.0176083
0.0176083
0.0176082
0.0176082
0.0176082
0.0176082
0.0176082
0.0176082
0.0176082
0.0176082
0.0176083
0.0176084
0.0176086
0.017609
0.0176096
0.0176104
0.0176116
0.017613
0.0176149
0.017617
0.0176194
0.017622
0.0176245
0.0176268
0.0176288
0.0176304
0.0176315
0.0176321
0.0176334
0.0138037
0.013803
0.0138022
0.0138008
0.0137991
0.0137971
0.0137952
0.0137935
0.013792
0.0137907
0.0137898
0.0137891
0.0137886
0.0137883
0.0137881
0.0137879
0.0137879
0.0137878
0.0137878
0.0137878
0.0137878
0.0137878
0.0137878
0.0137878
0.0137878
0.0137878
0.0137879
0.0137879
0.0137879
0.0137879
0.013788
0.013788
0.013788
0.013788
0.0137881
0.0137881
0.0137881
0.0137881
0.0137881
0.0137881
0.0137881
0.0137881
0.0137881
0.0137881
0.0137881
0.0137881
0.0137881
0.0137881
0.0137881
0.0137881
0.0137881
0.0137881
0.0137881
0.0137881
0.0137881
0.0137881
0.0137881
0.0137881
0.0137881
0.0137881
0.0137881
0.0137881
0.0137881
0.0137881
0.0137881
0.0137881
0.013788
0.013788
0.013788
0.013788
0.0137879
0.0137879
0.0137879
0.0137879
0.0137878
0.0137878
0.0137878
0.0137878
0.0137878
0.0137878
0.0137878
0.0137878
0.0137878
0.0137879
0.0137879
0.0137881
0.0137883
0.0137886
0.0137891
0.0137898
0.0137907
0.0137919
0.0137934
0.0137952
0.0137971
0.013799
0.0138008
0.0138021
0.013803
0.0138037
0.00259797
0.0025979
0.00259774
0.00259748
0.00259712
0.00259669
0.00259623
0.00259576
0.00259533
0.00259495
0.00259462
0.00259435
0.00259414
0.00259397
0.00259385
0.00259375
0.00259367
0.00259362
0.00259357
0.00259354
0.00259352
0.00259351
0.0025935
0.0025935
0.0025935
0.0025935
0.0025935
0.0025935
0.0025935
0.0025935
0.00259351
0.00259351
0.00259351
0.00259352
0.00259352
0.00259352
0.00259353
0.00259353
0.00259353
0.00259353
0.00259353
0.00259353
0.00259353
0.00259353
0.00259353
0.00259353
0.00259353
0.00259353
0.00259353
0.00259353
0.00259353
0.00259353
0.00259353
0.00259353
0.00259353
0.00259353
0.00259353
0.00259353
0.00259353
0.00259353
0.00259353
0.00259353
0.00259353
0.00259353
0.00259352
0.00259352
0.00259352
0.00259351
0.00259351
0.00259351
0.0025935
0.0025935
0.0025935
0.0025935
0.0025935
0.0025935
0.0025935
0.0025935
0.00259351
0.00259352
0.00259354
0.00259357
0.00259361
0.00259367
0.00259375
0.00259384
0.00259397
0.00259414
0.00259435
0.00259462
0.00259494
0.00259532
0.00259576
0.00259622
0.00259668
0.00259711
0.00259747
0.00259773
0.00259788
0.00259795
7.21325e-05
8.24638e-05
8.32085e-05
8.32617e-05
8.32652e-05
8.32653e-05
8.32649e-05
8.32631e-05
8.32591e-05
8.32524e-05
8.32429e-05
8.32311e-05
8.32177e-05
8.32039e-05
8.31904e-05
8.31782e-05
8.31676e-05
8.31588e-05
8.31519e-05
8.31466e-05
8.31428e-05
8.31401e-05
8.31383e-05
8.31371e-05
8.31364e-05
8.3136e-05
8.31358e-05
8.31357e-05
8.31357e-05
8.31357e-05
8.31358e-05
8.31359e-05
8.31361e-05
8.31363e-05
8.31366e-05
8.31369e-05
8.31372e-05
8.31374e-05
8.31376e-05
8.31377e-05
8.31378e-05
8.31379e-05
8.31379e-05
8.3138e-05
8.3138e-05
8.3138e-05
8.3138e-05
8.3138e-05
8.3138e-05
8.3138e-05
8.3138e-05
8.3138e-05
8.3138e-05
8.3138e-05
8.3138e-05
8.3138e-05
8.3138e-05
8.31379e-05
8.31379e-05
8.31378e-05
8.31377e-05
8.31376e-05
8.31374e-05
8.31372e-05
8.31369e-05
8.31366e-05
8.31364e-05
8.31361e-05
8.31359e-05
8.31358e-05
8.31357e-05
8.31357e-05
8.31357e-05
8.31358e-05
8.3136e-05
8.31364e-05
8.31371e-05
8.31383e-05
8.31401e-05
8.31428e-05
8.31466e-05
8.31518e-05
8.31588e-05
8.31675e-05
8.31781e-05
8.31904e-05
8.32038e-05
8.32176e-05
8.3231e-05
8.32428e-05
8.32523e-05
8.3259e-05
8.3263e-05
8.32647e-05
8.32652e-05
8.32651e-05
8.32616e-05
8.32085e-05
8.24644e-05
7.21375e-05
3.10888e-06
3.646e-06
3.69173e-06
3.6979e-06
3.70069e-06
3.70315e-06
3.7052e-06
3.70694e-06
3.70843e-06
3.70969e-06
3.71075e-06
3.71162e-06
3.7123e-06
3.7128e-06
3.71314e-06
3.71331e-06
3.71334e-06
3.71323e-06
3.71297e-06
3.7126e-06
3.7121e-06
3.71153e-06
3.71091e-06
3.71031e-06
3.70975e-06
3.70927e-06
3.70888e-06
3.70859e-06
3.70838e-06
3.70824e-06
3.70817e-06
3.70814e-06
3.70815e-06
3.70817e-06
3.7082e-06
3.70824e-06
3.70827e-06
3.70829e-06
3.70831e-06
3.70833e-06
3.70834e-06
3.70835e-06
3.70836e-06
3.70836e-06
3.70836e-06
3.70837e-06
3.70837e-06
3.70837e-06
3.70837e-06
3.70837e-06
3.70837e-06
3.70837e-06
3.70837e-06
3.70837e-06
3.70837e-06
3.70837e-06
3.70836e-06
3.70836e-06
3.70835e-06
3.70834e-06
3.70833e-06
3.70831e-06
3.70829e-06
3.70827e-06
3.70824e-06
3.70821e-06
3.70818e-06
3.70815e-06
3.70815e-06
3.70817e-06
3.70825e-06
3.70838e-06
3.70859e-06
3.70889e-06
3.70927e-06
3.70975e-06
3.71031e-06
3.71092e-06
3.71153e-06
3.7121e-06
3.71259e-06
3.71297e-06
3.71321e-06
3.71333e-06
3.7133e-06
3.71311e-06
3.71278e-06
3.71227e-06
3.71159e-06
3.71072e-06
3.70965e-06
3.70839e-06
3.7069e-06
3.70516e-06
3.70311e-06
3.70066e-06
3.69788e-06
3.69173e-06
3.64612e-06
3.10958e-06
3.49413e-07
3.89607e-07