/*--------------------------------*- C++ -*----------------------------------*\
| =========                 |                                                 |
| \\      /  F ield         | OpenFOAM: The Open Source CFD Toolbox           |
|  \\    /   O peration     | Version:  2406                                  |
|   \\  /    A nd           | Website:  www.openfoam.com                      |
|    \\/     M anipulation  |                                                 |
\*---------------------------------------------------------------------------*/
FoamFile
{
    version     2.0;
    format      ascii;
    arch        "LSB;label=32;scalar=64";
    class       volVectorField;
    location    "0.001";
    object      U;
}
// * * * * * * * * * * * * * * * * * * * * * * * * * * * * * * * * * * * * * //

dimensions      [0 1 -1 0 0 0 0];

internalField   nonuniform List<vector> 
81000
(
(-0.11626 -0.894934 0)
(-0.114096 -0.933218 0)
(-0.114019 -0.934037 0)
(-0.114012 -0.934052 0)
(-0.114012 -0.934049 0)
(-0.11401 -0.934033 0)
(-0.114008 -0.933995 0)
(-0.114006 -0.933923 0)
(-0.114002 -0.933813 0)
(-0.113998 -0.933666 0)
(-0.113994 -0.933487 0)
(-0.11399 -0.933291 0)
(-0.113985 -0.933091 0)
(-0.113982 -0.932904 0)
(-0.113978 -0.932742 0)
(-0.113976 -0.932614 0)
(-0.113974 -0.932521 0)
(-0.113973 -0.932463 0)
(-0.113972 -0.932432 0)
(-0.113971 -0.93242 0)
(-0.113971 -0.932418 0)
(-0.113971 -0.932418 0)
(-0.113971 -0.93242 0)
(-0.113971 -0.932425 0)
(-0.113971 -0.932435 0)
(-0.113971 -0.932451 0)
(-0.11397 -0.932472 0)
(-0.11397 -0.932498 0)
(-0.11397 -0.932526 0)
(-0.11397 -0.932555 0)
(-0.113969 -0.932582 0)
(-0.113969 -0.932607 0)
(-0.113968 -0.932627 0)
(-0.113968 -0.932642 0)
(-0.113967 -0.932653 0)
(-0.113966 -0.932661 0)
(-0.113965 -0.932665 0)
(-0.113965 -0.932666 0)
(-0.113964 -0.932667 0)
(-0.113964 -0.932667 0)
(-0.113963 -0.932667 0)
(-0.113963 -0.932667 0)
(-0.113963 -0.932666 0)
(-0.113962 -0.932666 0)
(-0.113962 -0.932666 0)
(-0.113962 -0.932665 0)
(-0.113962 -0.932665 0)
(-0.113962 -0.932665 0)
(-0.113962 -0.932665 0)
(-0.113962 -0.932665 0)
(-0.113962 -0.932665 0)
(-0.113962 -0.932665 0)
(-0.113962 -0.932665 0)
(-0.113962 -0.932665 0)
(-0.113962 -0.932665 0)
(-0.113962 -0.932666 0)
(-0.113962 -0.932666 0)
(-0.113963 -0.932666 0)
(-0.113963 -0.932667 0)
(-0.113963 -0.932667 0)
(-0.113964 -0.932667 0)
(-0.113964 -0.932667 0)
(-0.113965 -0.932666 0)
(-0.113965 -0.932664 0)
(-0.113966 -0.93266 0)
(-0.113967 -0.932653 0)
(-0.113967 -0.932642 0)
(-0.113968 -0.932627 0)
(-0.113969 -0.932606 0)
(-0.113969 -0.932581 0)
(-0.11397 -0.932554 0)
(-0.11397 -0.932524 0)
(-0.11397 -0.932496 0)
(-0.11397 -0.93247 0)
(-0.11397 -0.932448 0)
(-0.11397 -0.932432 0)
(-0.11397 -0.932421 0)
(-0.11397 -0.932415 0)
(-0.113971 -0.932413 0)
(-0.113971 -0.932413 0)
(-0.113971 -0.932415 0)
(-0.113971 -0.932427 0)
(-0.113972 -0.932456 0)
(-0.113973 -0.932513 0)
(-0.113975 -0.932604 0)
(-0.113978 -0.932731 0)
(-0.113981 -0.932891 0)
(-0.113985 -0.933076 0)
(-0.113989 -0.933274 0)
(-0.113993 -0.933469 0)
(-0.113998 -0.933647 0)
(-0.114001 -0.933793 0)
(-0.114005 -0.933903 0)
(-0.114008 -0.933974 0)
(-0.114009 -0.934012 0)
(-0.114011 -0.934027 0)
(-0.114011 -0.934031 0)
(-0.114018 -0.934016 0)
(-0.114095 -0.933201 0)
(-0.116262 -0.894989 0)
(-0.103457 -6.04676 0)
(-0.103442 -6.04588 0)
(-0.103445 -6.04571 0)
(-0.103457 -6.04538 0)
(-0.10348 -6.04486 0)
(-0.103507 -6.04416 0)
(-0.103532 -6.04333 0)
(-0.10355 -6.04243 0)
(-0.103561 -6.04153 0)
(-0.103566 -6.04068 0)
(-0.103569 -6.03992 0)
(-0.103569 -6.03927 0)
(-0.103569 -6.03874 0)
(-0.103568 -6.03831 0)
(-0.103567 -6.03799 0)
(-0.103566 -6.03776 0)
(-0.103565 -6.0376 0)
(-0.103565 -6.0375 0)
(-0.103564 -6.03745 0)
(-0.103564 -6.03742 0)
(-0.103563 -6.0374 0)
(-0.103563 -6.0374 0)
(-0.103563 -6.0374 0)
(-0.103563 -6.0374 0)
(-0.103563 -6.0374 0)
(-0.103562 -6.0374 0)
(-0.103562 -6.03741 0)
(-0.103561 -6.03742 0)
(-0.103559 -6.03743 0)
(-0.103558 -6.03744 0)
(-0.103556 -6.03746 0)
(-0.103553 -6.03747 0)
(-0.103551 -6.03748 0)
(-0.103549 -6.03749 0)
(-0.103547 -6.0375 0)
(-0.103546 -6.03751 0)
(-0.103544 -6.03751 0)
(-0.103543 -6.03752 0)
(-0.103543 -6.03752 0)
(-0.103542 -6.03752 0)
(-0.103541 -6.03752 0)
(-0.103541 -6.03752 0)
(-0.10354 -6.03752 0)
(-0.10354 -6.03752 0)
(-0.10354 -6.03752 0)
(-0.10354 -6.03752 0)
(-0.10354 -6.03752 0)
(-0.10354 -6.03752 0)
(-0.10354 -6.03752 0)
(-0.10354 -6.03752 0)
(-0.10354 -6.03752 0)
(-0.10354 -6.03752 0)
(-0.10354 -6.03752 0)
(-0.10354 -6.03752 0)
(-0.10354 -6.03752 0)
(-0.10354 -6.03752 0)
(-0.10354 -6.03752 0)
(-0.10354 -6.03752 0)
(-0.103541 -6.03752 0)
(-0.103541 -6.03752 0)
(-0.103542 -6.03752 0)
(-0.103543 -6.03752 0)
(-0.103543 -6.03752 0)
(-0.103544 -6.03751 0)
(-0.103546 -6.03751 0)
(-0.103547 -6.0375 0)
(-0.103549 -6.03749 0)
(-0.103551 -6.03748 0)
(-0.103553 -6.03747 0)
(-0.103555 -6.03746 0)
(-0.103557 -6.03744 0)
(-0.103559 -6.03743 0)
(-0.10356 -6.03742 0)
(-0.103561 -6.03741 0)
(-0.103562 -6.0374 0)
(-0.103562 -6.0374 0)
(-0.103563 -6.0374 0)
(-0.103563 -6.0374 0)
(-0.103563 -6.0374 0)
(-0.103563 -6.0374 0)
(-0.103563 -6.03741 0)
(-0.103564 -6.03744 0)
(-0.103564 -6.0375 0)
(-0.103565 -6.0376 0)
(-0.103565 -6.03775 0)
(-0.103566 -6.03798 0)
(-0.103567 -6.0383 0)
(-0.103568 -6.03873 0)
(-0.103569 -6.03926 0)
(-0.103568 -6.03991 0)
(-0.103566 -6.04067 0)
(-0.10356 -6.04151 0)
(-0.10355 -6.04241 0)
(-0.103532 -6.04331 0)
(-0.103508 -6.04414 0)
(-0.10348 -6.04484 0)
(-0.103458 -6.04536 0)
(-0.103446 -6.04569 0)
(-0.103443 -6.04586 0)
(-0.103458 -6.04674 0)
(0.104835 -4.73648 0)
(0.104831 -4.73625 0)
(0.104833 -4.73597 0)
(0.104843 -4.73552 0)
(0.104862 -4.73496 0)
(0.10488 -4.73433 0)
(0.10489 -4.7337 0)
(0.104886 -4.73311 0)
(0.10487 -4.73259 0)
(0.104846 -4.73216 0)
(0.10482 -4.73181 0)
(0.104797 -4.73155 0)
(0.104781 -4.73137 0)
(0.104773 -4.73123 0)
(0.104773 -4.73115 0)
(0.104775 -4.73109 0)
(0.104779 -4.73106 0)
(0.104782 -4.73104 0)
(0.104784 -4.73103 0)
(0.104786 -4.73102 0)
(0.104787 -4.73102 0)
(0.104788 -4.73102 0)
(0.104789 -4.73102 0)
(0.10479 -4.73103 0)
(0.10479 -4.73103 0)
(0.104791 -4.73103 0)
(0.104792 -4.73104 0)
(0.104793 -4.73104 0)
(0.104794 -4.73105 0)
(0.104795 -4.73106 0)
(0.104796 -4.73107 0)
(0.104797 -4.73108 0)
(0.104798 -4.73109 0)
(0.104798 -4.73109 0)
(0.104799 -4.7311 0)
(0.104799 -4.7311 0)
(0.1048 -4.7311 0)
(0.1048 -4.73111 0)
(0.1048 -4.73111 0)
(0.1048 -4.73111 0)
(0.1048 -4.73111 0)
(0.1048 -4.73111 0)
(0.1048 -4.73111 0)
(0.1048 -4.73111 0)
(0.1048 -4.73111 0)
(0.1048 -4.73111 0)
(0.1048 -4.73111 0)
(0.1048 -4.73111 0)
(0.1048 -4.73111 0)
(0.1048 -4.73111 0)
(0.1048 -4.73111 0)
(0.1048 -4.73111 0)
(0.1048 -4.73111 0)
(0.1048 -4.73111 0)
(0.1048 -4.73111 0)
(0.1048 -4.73111 0)
(0.1048 -4.73111 0)
(0.1048 -4.73111 0)
(0.1048 -4.73111 0)
(0.1048 -4.73111 0)
(0.1048 -4.73111 0)
(0.1048 -4.73111 0)
(0.1048 -4.73111 0)
(0.1048 -4.7311 0)
(0.104799 -4.7311 0)
(0.104799 -4.7311 0)
(0.104798 -4.73109 0)
(0.104798 -4.73109 0)
(0.104797 -4.73108 0)
(0.104796 -4.73107 0)
(0.104795 -4.73106 0)
(0.104793 -4.73105 0)
(0.104792 -4.73104 0)
(0.104791 -4.73104 0)
(0.104791 -4.73103 0)
(0.10479 -4.73103 0)
(0.104789 -4.73102 0)
(0.104789 -4.73102 0)
(0.104788 -4.73102 0)
(0.104787 -4.73102 0)
(0.104786 -4.73102 0)
(0.104784 -4.73103 0)
(0.104782 -4.73104 0)
(0.104778 -4.73106 0)
(0.104775 -4.73109 0)
(0.104772 -4.73115 0)
(0.104773 -4.73123 0)
(0.10478 -4.73136 0)
(0.104796 -4.73155 0)
(0.104819 -4.73181 0)
(0.104845 -4.73215 0)
(0.10487 -4.73258 0)
(0.104886 -4.7331 0)
(0.10489 -4.73369 0)
(0.104881 -4.73432 0)
(0.104863 -4.73494 0)
(0.104845 -4.73551 0)
(0.104834 -4.73596 0)
(0.104832 -4.73624 0)
(0.104837 -4.73647 0)
(0.0407525 -0.893841 0)
(0.0407541 -0.893816 0)
(0.040759 -0.893755 0)
(0.040767 -0.893653 0)
(0.0407774 -0.893515 0)
(0.0407888 -0.893355 0)
(0.0407999 -0.893186 0)
(0.0408099 -0.893021 0)
(0.0408185 -0.892869 0)
(0.0408257 -0.892737 0)
(0.0408319 -0.892625 0)
(0.0408369 -0.892533 0)
(0.0408405 -0.89246 0)
(0.0408424 -0.892403 0)
(0.0408426 -0.892358 0)
(0.0408419 -0.892323 0)
(0.0408408 -0.892297 0)
(0.0408398 -0.892277 0)
(0.0408388 -0.892262 0)
(0.0408378 -0.89225 0)
(0.040837 -0.892242 0)
(0.0408362 -0.892236 0)
(0.0408356 -0.892233 0)
(0.040835 -0.89223 0)
(0.0408345 -0.892229 0)
(0.0408341 -0.892228 0)
(0.0408337 -0.892228 0)
(0.0408332 -0.892228 0)
(0.0408328 -0.892228 0)
(0.0408324 -0.892229 0)
(0.0408319 -0.89223 0)
(0.0408314 -0.892231 0)
(0.0408309 -0.892233 0)
(0.0408304 -0.892234 0)
(0.04083 -0.892235 0)
(0.0408296 -0.892236 0)
(0.0408293 -0.892237 0)
(0.040829 -0.892238 0)
(0.0408288 -0.892238 0)
(0.0408286 -0.892238 0)
(0.0408285 -0.892238 0)
(0.0408284 -0.892238 0)
(0.0408283 -0.892238 0)
(0.0408283 -0.892238 0)
(0.0408283 -0.892238 0)
(0.0408283 -0.892238 0)
(0.0408283 -0.892238 0)
(0.0408283 -0.892238 0)
(0.0408283 -0.892238 0)
(0.0408283 -0.892238 0)
(0.0408283 -0.892238 0)
(0.0408283 -0.892238 0)
(0.0408283 -0.892238 0)
(0.0408283 -0.892238 0)
(0.0408283 -0.892238 0)
(0.0408283 -0.892238 0)
(0.0408283 -0.892238 0)
(0.0408283 -0.892238 0)
(0.0408284 -0.892238 0)
(0.0408285 -0.892238 0)
(0.0408286 -0.892238 0)
(0.0408288 -0.892238 0)
(0.040829 -0.892238 0)
(0.0408293 -0.892237 0)
(0.0408296 -0.892236 0)
(0.04083 -0.892235 0)
(0.0408304 -0.892234 0)
(0.0408309 -0.892233 0)
(0.0408314 -0.892231 0)
(0.0408319 -0.89223 0)
(0.0408324 -0.892229 0)
(0.0408328 -0.892228 0)
(0.0408332 -0.892228 0)
(0.0408336 -0.892228 0)
(0.0408341 -0.892228 0)
(0.0408345 -0.892229 0)
(0.040835 -0.89223 0)
(0.0408355 -0.892232 0)
(0.0408362 -0.892236 0)
(0.0408369 -0.892242 0)
(0.0408378 -0.89225 0)
(0.0408387 -0.892262 0)
(0.0408397 -0.892277 0)
(0.0408407 -0.892297 0)
(0.0408418 -0.892323 0)
(0.0408425 -0.892358 0)
(0.0408422 -0.892402 0)
(0.0408404 -0.89246 0)
(0.0408367 -0.892533 0)
(0.0408316 -0.892624 0)
(0.0408255 -0.892735 0)
(0.0408182 -0.892867 0)
(0.0408097 -0.893018 0)
(0.0407997 -0.893183 0)
(0.0407887 -0.893352 0)
(0.0407773 -0.893512 0)
(0.0407669 -0.893649 0)
(0.0407588 -0.893751 0)
(0.040754 -0.893812 0)
(0.0407523 -0.893838 0)
(0.00116746 -0.0249746 0)
(0.00140906 -0.0285619 0)
(0.00142507 -0.0288197 0)
(0.00142625 -0.028838 0)
(0.00142636 -0.0288393 0)
(0.0014264 -0.0288393 0)
(0.0014264 -0.0288391 0)
(0.0014264 -0.0288386 0)
(0.00142637 -0.0288372 0)
(0.00142629 -0.028835 0)
(0.00142617 -0.0288318 0)
(0.00142598 -0.0288278 0)
(0.00142572 -0.0288232 0)
(0.00142542 -0.0288183 0)
(0.00142509 -0.0288136 0)
(0.00142475 -0.0288092 0)
(0.00142442 -0.0288054 0)
(0.00142412 -0.0288023 0)
(0.00142387 -0.0287998 0)
(0.00142367 -0.028798 0)
(0.00142352 -0.0287966 0)
(0.00142342 -0.0287957 0)
(0.00142336 -0.028795 0)
(0.00142333 -0.0287946 0)
(0.00142332 -0.0287944 0)
(0.00142334 -0.0287942 0)
(0.00142336 -0.0287941 0)
(0.00142339 -0.0287941 0)
(0.00142343 -0.028794 0)
(0.00142348 -0.028794 0)
(0.00142352 -0.0287941 0)
(0.00142357 -0.0287941 0)
(0.00142362 -0.0287942 0)
(0.00142367 -0.0287943 0)
(0.00142373 -0.0287943 0)
(0.00142378 -0.0287944 0)
(0.00142383 -0.0287945 0)
(0.00142388 -0.0287946 0)
(0.00142392 -0.0287946 0)
(0.00142395 -0.0287946 0)
(0.00142398 -0.0287947 0)
(0.001424 -0.0287947 0)
(0.00142401 -0.0287947 0)
(0.00142402 -0.0287947 0)
(0.00142403 -0.0287947 0)
(0.00142403 -0.0287947 0)
(0.00142403 -0.0287947 0)
(0.00142403 -0.0287947 0)
(0.00142403 -0.0287947 0)
(0.00142403 -0.0287947 0)
(0.00142403 -0.0287947 0)
(0.00142403 -0.0287947 0)
(0.00142403 -0.0287947 0)
(0.00142403 -0.0287947 0)
(0.00142403 -0.0287947 0)
(0.00142403 -0.0287947 0)
(0.00142402 -0.0287947 0)
(0.00142401 -0.0287947 0)
(0.001424 -0.0287947 0)
(0.00142398 -0.0287947 0)
(0.00142395 -0.0287947 0)
(0.00142392 -0.0287946 0)
(0.00142388 -0.0287946 0)
(0.00142383 -0.0287945 0)
(0.00142378 -0.0287944 0)
(0.00142373 -0.0287943 0)
(0.00142368 -0.0287943 0)
(0.00142362 -0.0287942 0)
(0.00142357 -0.0287941 0)
(0.00142352 -0.0287941 0)
(0.00142348 -0.0287941 0)
(0.00142343 -0.028794 0)
(0.00142339 -0.0287941 0)
(0.00142336 -0.0287941 0)
(0.00142333 -0.0287942 0)
(0.00142332 -0.0287944 0)
(0.00142332 -0.0287946 0)
(0.00142335 -0.028795 0)
(0.00142341 -0.0287957 0)
(0.00142351 -0.0287966 0)
(0.00142366 -0.028798 0)
(0.00142386 -0.0287998 0)
(0.00142411 -0.0288023 0)
(0.0014244 -0.0288054 0)
(0.00142473 -0.0288092 0)
(0.00142507 -0.0288136 0)
(0.0014254 -0.0288183 0)
(0.0014257 -0.0288231 0)
(0.00142595 -0.0288278 0)
(0.00142614 -0.0288318 0)
(0.00142627 -0.028835 0)
(0.00142634 -0.0288372 0)
(0.00142637 -0.0288385 0)
(0.00142637 -0.0288391 0)
(0.00142637 -0.0288392 0)
(0.00142633 -0.0288392 0)
(0.00142622 -0.028838 0)
(0.00142503 -0.0288197 0)
(0.001409 -0.0285621 0)
(0.00116709 -0.0249761 0)
(-6.34267e-05 -0.0010718 0)
(-5.96652e-05 -0.00125469 0)
(-5.49769e-05 -0.0012702 0)
(-5.64082e-05 -0.00127218 0)
(-5.60373e-05 -0.0012732 0)
(-5.59265e-05 -0.00127408 0)
(-5.58117e-05 -0.00127481 0)
(-5.57258e-05 -0.00127542 0)
(-5.56598e-05 -0.00127595 0)
(-5.56064e-05 -0.0012764 0)
(-5.55606e-05 -0.00127679 0)
(-5.55192e-05 -0.0012771 0)
(-5.54803e-05 -0.00127735 0)
(-5.54427e-05 -0.00127754 0)
(-5.54059e-05 -0.00127767 0)
(-5.5369e-05 -0.00127775 0)
(-5.53306e-05 -0.00127779 0)
(-5.52862e-05 -0.0012778 0)
(-5.52412e-05 -0.00127776 0)
(-5.51919e-05 -0.00127769 0)
(-5.51374e-05 -0.00127757 0)
(-5.50794e-05 -0.00127742 0)
(-5.5021e-05 -0.00127726 0)
(-5.49646e-05 -0.00127708 0)
(-5.4912e-05 -0.00127692 0)
(-5.4864e-05 -0.00127679 0)
(-5.48209e-05 -0.00127668 0)
(-5.47824e-05 -0.0012766 0)
(-5.47479e-05 -0.00127655 0)
(-5.47167e-05 -0.00127652 0)
(-5.46882e-05 -0.0012765 0)
(-5.46626e-05 -0.0012765 0)
(-5.46403e-05 -0.0012765 0)
(-5.46212e-05 -0.00127651 0)
(-5.46047e-05 -0.00127652 0)
(-5.45903e-05 -0.00127653 0)
(-5.45779e-05 -0.00127655 0)
(-5.45674e-05 -0.00127656 0)
(-5.45587e-05 -0.00127656 0)
(-5.45517e-05 -0.00127657 0)
(-5.45463e-05 -0.00127657 0)
(-5.45422e-05 -0.00127658 0)
(-5.45393e-05 -0.00127658 0)
(-5.45374e-05 -0.00127658 0)
(-5.45361e-05 -0.00127658 0)
(-5.45354e-05 -0.00127658 0)
(-5.4535e-05 -0.00127658 0)
(-5.45348e-05 -0.00127658 0)
(-5.45347e-05 -0.00127658 0)
(-5.45347e-05 -0.00127658 0)
(-5.45347e-05 -0.00127658 0)
(-5.45347e-05 -0.00127658 0)
(-5.45348e-05 -0.00127658 0)
(-5.4535e-05 -0.00127658 0)
(-5.45354e-05 -0.00127658 0)
(-5.45361e-05 -0.00127658 0)
(-5.45374e-05 -0.00127658 0)
(-5.45393e-05 -0.00127658 0)
(-5.45422e-05 -0.00127658 0)
(-5.45463e-05 -0.00127657 0)
(-5.45517e-05 -0.00127657 0)
(-5.45588e-05 -0.00127656 0)
(-5.45675e-05 -0.00127656 0)
(-5.4578e-05 -0.00127655 0)
(-5.45905e-05 -0.00127653 0)
(-5.46048e-05 -0.00127652 0)
(-5.46214e-05 -0.00127651 0)
(-5.46405e-05 -0.0012765 0)
(-5.46627e-05 -0.0012765 0)
(-5.46884e-05 -0.0012765 0)
(-5.47168e-05 -0.00127652 0)
(-5.47479e-05 -0.00127655 0)
(-5.47822e-05 -0.00127661 0)
(-5.48207e-05 -0.00127669 0)
(-5.48637e-05 -0.00127679 0)
(-5.49115e-05 -0.00127693 0)
(-5.4964e-05 -0.00127709 0)
(-5.50203e-05 -0.00127726 0)
(-5.50785e-05 -0.00127743 0)
(-5.51362e-05 -0.00127758 0)
(-5.51905e-05 -0.00127769 0)
(-5.52395e-05 -0.00127776 0)
(-5.52842e-05 -0.0012778 0)
(-5.53285e-05 -0.00127779 0)
(-5.53668e-05 -0.00127775 0)
(-5.54035e-05 -0.00127767 0)
(-5.54403e-05 -0.00127753 0)
(-5.54778e-05 -0.00127734 0)
(-5.55167e-05 -0.00127709 0)
(-5.55581e-05 -0.00127677 0)
(-5.56037e-05 -0.00127639 0)
(-5.56569e-05 -0.00127594 0)
(-5.57227e-05 -0.00127541 0)
(-5.58082e-05 -0.00127479 0)
(-5.5923e-05 -0.00127406 0)
(-5.60331e-05 -0.00127319 0)
(-5.64034e-05 -0.00127217 0)
(-5.49771e-05 -0.00127019 0)
(-5.96559e-05 -0.00125472 0)
(-6.34142e-05 -0.001072 0)
(-4.13587e-06 -0.000121138 0)
(-4.72482e-06 -0.000135149 0)
(-4.97148e-06 -0.00013595 0)
(-5.07947e-06 -0.00013597 0)
(-5.10202e-06 -0.000136016 0)
(-5.09505e-06 -0.000136064 0)
(-5.09446e-06 -0.000136119 0)
(-5.09325e-06 -0.000136182 0)
(-5.09155e-06 -0.000136255 0)
(-5.0894e-06 -0.000136335 0)
(-5.08677e-06 -0.000136423 0)
(-5.08364e-06 -0.000136515 0)
(-5.07999e-06 -0.000136608 0)
(-5.0758e-06 -0.000136699 0)
(-5.07112e-06 -0.000136785 0)
(-5.06601e-06 -0.000136862 0)
(-5.06054e-06 -0.000136929 0)
(-5.05482e-06 -0.000136985 0)
(-5.04893e-06 -0.000137029 0)
(-5.04295e-06 -0.000137062 0)
(-5.03689e-06 -0.000137085 0)
(-5.03075e-06 -0.000137101 0)
(-5.02441e-06 -0.000137111 0)
(-5.0177e-06 -0.000137115 0)
(-5.01089e-06 -0.000137115 0)
(-5.00436e-06 -0.000137113 0)
(-4.99799e-06 -0.000137109 0)
(-4.99171e-06 -0.000137104 0)
(-4.98558e-06 -0.000137098 0)
(-4.97973e-06 -0.000137093 0)
(-4.97434e-06 -0.000137088 0)
(-4.96957e-06 -0.000137083 0)
(-4.9655e-06 -0.000137079 0)
(-4.96215e-06 -0.000137076 0)
(-4.95946e-06 -0.000137074 0)
(-4.95735e-06 -0.000137072 0)
(-4.95572e-06 -0.00013707 0)
(-4.95447e-06 -0.000137069 0)
(-4.95354e-06 -0.000137068 0)
(-4.95284e-06 -0.000137068 0)
(-4.95232e-06 -0.000137067 0)
(-4.95194e-06 -0.000137067 0)
(-4.95168e-06 -0.000137067 0)
(-4.95149e-06 -0.000137067 0)
(-4.95137e-06 -0.000137067 0)
(-4.95129e-06 -0.000137067 0)
(-4.95125e-06 -0.000137067 0)
(-4.95123e-06 -0.000137067 0)
(-4.95122e-06 -0.000137067 0)
(-4.95122e-06 -0.000137067 0)
(-4.95122e-06 -0.000137067 0)
(-4.95122e-06 -0.000137067 0)
(-4.95123e-06 -0.000137067 0)
(-4.95125e-06 -0.000137067 0)
(-4.95129e-06 -0.000137067 0)
(-4.95136e-06 -0.000137067 0)
(-4.95148e-06 -0.000137067 0)
(-4.95167e-06 -0.000137067 0)
(-4.95193e-06 -0.000137067 0)
(-4.95231e-06 -0.000137067 0)
(-4.95282e-06 -0.000137068 0)
(-4.95352e-06 -0.000137068 0)
(-4.95445e-06 -0.000137069 0)
(-4.95569e-06 -0.00013707 0)
(-4.95731e-06 -0.000137072 0)
(-4.9594e-06 -0.000137074 0)
(-4.96206e-06 -0.000137077 0)
(-4.96538e-06 -0.00013708 0)
(-4.96941e-06 -0.000137084 0)
(-4.97415e-06 -0.000137088 0)
(-4.97951e-06 -0.000137094 0)
(-4.98534e-06 -0.000137099 0)
(-4.99147e-06 -0.000137105 0)
(-4.99774e-06 -0.00013711 0)
(-5.0041e-06 -0.000137114 0)
(-5.01061e-06 -0.000137117 0)
(-5.01741e-06 -0.000137117 0)
(-5.02414e-06 -0.000137112 0)
(-5.03049e-06 -0.000137103 0)
(-5.03665e-06 -0.000137087 0)
(-5.04272e-06 -0.000137064 0)
(-5.04872e-06 -0.000137031 0)
(-5.05464e-06 -0.000136988 0)
(-5.06039e-06 -0.000136932 0)
(-5.0659e-06 -0.000136866 0)
(-5.07105e-06 -0.000136788 0)
(-5.07577e-06 -0.000136703 0)
(-5.07999e-06 -0.000136611 0)
(-5.08366e-06 -0.000136518 0)
(-5.08681e-06 -0.000136426 0)
(-5.08943e-06 -0.000136339 0)
(-5.09158e-06 -0.000136259 0)
(-5.09326e-06 -0.000136187 0)
(-5.09448e-06 -0.000136124 0)
(-5.09513e-06 -0.000136069 0)
(-5.10199e-06 -0.000136023 0)
(-5.07835e-06 -0.000135978 0)
(-4.96947e-06 -0.000135958 0)
(-4.71883e-06 -0.000135159 0)
(-4.12378e-06 -0.000121159 0)
(-1.02527e-06 1.05312e-05 0)
(-1.43256e-06 1.2678e-05 0)
(-1.27316e-06 1.29383e-05 0)
(-1.31462e-06 1.30312e-05 0)
(-1.3186e-06 1.30952e-05 0)
(-1.31904e-06 1.31383e-05 0)
(-1.31805e-06 1.31671e-05 0)
(-1.31651e-06 1.3186e-05 0)
(-1.31486e-06 1.31979e-05 0)
(-1.31328e-06 1.32049e-05 0)
(-1.31185e-06 1.32086e-05 0)
(-1.31051e-06 1.32101e-05 0)
(-1.30907e-06 1.32101e-05 0)
(-1.30774e-06 1.32088e-05 0)
(-1.30631e-06 1.32065e-05 0)
(-1.30474e-06 1.3203e-05 0)
(-1.30303e-06 1.31987e-05 0)
(-1.30123e-06 1.31936e-05 0)
(-1.29941e-06 1.31882e-05 0)
(-1.29762e-06 1.31828e-05 0)
(-1.29588e-06 1.31776e-05 0)
(-1.29423e-06 1.31729e-05 0)
(-1.29266e-06 1.31686e-05 0)
(-1.29119e-06 1.31649e-05 0)
(-1.2898e-06 1.31619e-05 0)
(-1.28852e-06 1.31594e-05 0)
(-1.28734e-06 1.31575e-05 0)
(-1.28627e-06 1.31561e-05 0)
(-1.2853e-06 1.31551e-05 0)
(-1.28445e-06 1.31544e-05 0)
(-1.28369e-06 1.31541e-05 0)
(-1.28303e-06 1.3154e-05 0)
(-1.28246e-06 1.31541e-05 0)
(-1.282e-06 1.31544e-05 0)
(-1.28163e-06 1.31547e-05 0)
(-1.28132e-06 1.31551e-05 0)
(-1.28107e-06 1.31555e-05 0)
(-1.28087e-06 1.31558e-05 0)
(-1.2807e-06 1.31561e-05 0)
(-1.28057e-06 1.31564e-05 0)
(-1.28047e-06 1.31566e-05 0)
(-1.28039e-06 1.31568e-05 0)
(-1.28033e-06 1.31569e-05 0)
(-1.28029e-06 1.3157e-05 0)
(-1.28027e-06 1.3157e-05 0)
(-1.28025e-06 1.31571e-05 0)
(-1.28024e-06 1.31571e-05 0)
(-1.28024e-06 1.31571e-05 0)
(-1.28023e-06 1.31571e-05 0)
(-1.28023e-06 1.31571e-05 0)
(-1.28023e-06 1.31571e-05 0)
(-1.28023e-06 1.31571e-05 0)
(-1.28024e-06 1.31571e-05 0)
(-1.28024e-06 1.31571e-05 0)
(-1.28025e-06 1.31571e-05 0)
(-1.28026e-06 1.3157e-05 0)
(-1.28029e-06 1.3157e-05 0)
(-1.28033e-06 1.31569e-05 0)
(-1.28038e-06 1.31568e-05 0)
(-1.28046e-06 1.31566e-05 0)
(-1.28056e-06 1.31564e-05 0)
(-1.2807e-06 1.31561e-05 0)
(-1.28086e-06 1.31558e-05 0)
(-1.28107e-06 1.31555e-05 0)
(-1.28132e-06 1.31551e-05 0)
(-1.28162e-06 1.31547e-05 0)
(-1.282e-06 1.31543e-05 0)
(-1.28247e-06 1.31541e-05 0)
(-1.28303e-06 1.31539e-05 0)
(-1.28369e-06 1.3154e-05 0)
(-1.28445e-06 1.31543e-05 0)
(-1.28531e-06 1.3155e-05 0)
(-1.28627e-06 1.31559e-05 0)
(-1.28734e-06 1.31574e-05 0)
(-1.28852e-06 1.31592e-05 0)
(-1.28981e-06 1.31617e-05 0)
(-1.29119e-06 1.31647e-05 0)
(-1.29267e-06 1.31683e-05 0)
(-1.29423e-06 1.31726e-05 0)
(-1.29587e-06 1.31773e-05 0)
(-1.29759e-06 1.31825e-05 0)
(-1.29937e-06 1.31879e-05 0)
(-1.30117e-06 1.31933e-05 0)
(-1.30295e-06 1.31983e-05 0)
(-1.30465e-06 1.32027e-05 0)
(-1.30622e-06 1.32062e-05 0)
(-1.30765e-06 1.32085e-05 0)
(-1.30898e-06 1.32098e-05 0)
(-1.31042e-06 1.32098e-05 0)
(-1.31177e-06 1.32083e-05 0)
(-1.31321e-06 1.32046e-05 0)
(-1.3148e-06 1.31976e-05 0)
(-1.31648e-06 1.31857e-05 0)
(-1.31803e-06 1.31667e-05 0)
(-1.31905e-06 1.31378e-05 0)
(-1.31862e-06 1.30945e-05 0)
(-1.31467e-06 1.30305e-05 0)
(-1.27328e-06 1.29375e-05 0)
(-1.43258e-06 1.26777e-05 0)
(-1.02319e-06 1.05349e-05 0)
(-2.2535e-07 3.7494e-06 0)
(-2.82746e-07 4.33382e-06 0)
(-2.84862e-07 4.37979e-06 0)
(-2.80071e-07 4.38365e-06 0)
(-2.80778e-07 4.38676e-06 0)
(-2.81133e-07 4.39046e-06 0)
(-2.81406e-07 4.39469e-06 0)
(-2.81658e-07 4.39936e-06 0)
(-2.81914e-07 4.40432e-06 0)
(-2.82184e-07 4.40939e-06 0)
(-2.82471e-07 4.41438e-06 0)
(-2.82772e-07 4.41911e-06 0)
(-2.83077e-07 4.42344e-06 0)
(-2.83376e-07 4.42726e-06 0)
(-2.83654e-07 4.4305e-06 0)
(-2.83897e-07 4.43317e-06 0)
(-2.84096e-07 4.43528e-06 0)
(-2.84245e-07 4.43689e-06 0)
(-2.84344e-07 4.43806e-06 0)
(-2.84399e-07 4.43888e-06 0)
(-2.84419e-07 4.43942e-06 0)
(-2.84414e-07 4.43976e-06 0)
(-2.84392e-07 4.43996e-06 0)
(-2.8436e-07 4.44006e-06 0)
(-2.84319e-07 4.44011e-06 0)
(-2.84271e-07 4.44011e-06 0)
(-2.84224e-07 4.44009e-06 0)
(-2.84174e-07 4.44006e-06 0)
(-2.84122e-07 4.44001e-06 0)
(-2.84069e-07 4.43996e-06 0)
(-2.84015e-07 4.43992e-06 0)
(-2.83964e-07 4.43988e-06 0)
(-2.83916e-07 4.43985e-06 0)
(-2.83872e-07 4.43982e-06 0)
(-2.83833e-07 4.43981e-06 0)
(-2.838e-07 4.4398e-06 0)
(-2.83773e-07 4.4398e-06 0)
(-2.83751e-07 4.4398e-06 0)
(-2.83734e-07 4.43981e-06 0)
(-2.83721e-07 4.43981e-06 0)
(-2.83712e-07 4.43981e-06 0)
(-2.83705e-07 4.43982e-06 0)
(-2.837e-07 4.43982e-06 0)
(-2.83696e-07 4.43982e-06 0)
(-2.83694e-07 4.43982e-06 0)
(-2.83693e-07 4.43982e-06 0)
(-2.83692e-07 4.43983e-06 0)
(-2.83692e-07 4.43983e-06 0)
(-2.83691e-07 4.43983e-06 0)
(-2.83691e-07 4.43983e-06 0)
(-2.83691e-07 4.43983e-06 0)
(-2.83691e-07 4.43983e-06 0)
(-2.83692e-07 4.43983e-06 0)
(-2.83692e-07 4.43982e-06 0)
(-2.83693e-07 4.43982e-06 0)
(-2.83694e-07 4.43982e-06 0)
(-2.83696e-07 4.43982e-06 0)
(-2.837e-07 4.43982e-06 0)
(-2.83705e-07 4.43982e-06 0)
(-2.83712e-07 4.43981e-06 0)
(-2.83721e-07 4.43981e-06 0)
(-2.83734e-07 4.4398e-06 0)
(-2.83751e-07 4.4398e-06 0)
(-2.83773e-07 4.4398e-06 0)
(-2.838e-07 4.4398e-06 0)
(-2.83832e-07 4.43981e-06 0)
(-2.83871e-07 4.43982e-06 0)
(-2.83914e-07 4.43984e-06 0)
(-2.83962e-07 4.43988e-06 0)
(-2.84014e-07 4.43991e-06 0)
(-2.84067e-07 4.43996e-06 0)
(-2.84121e-07 4.44001e-06 0)
(-2.84173e-07 4.44005e-06 0)
(-2.84223e-07 4.44009e-06 0)
(-2.8427e-07 4.44011e-06 0)
(-2.84317e-07 4.44011e-06 0)
(-2.84359e-07 4.44006e-06 0)
(-2.84391e-07 4.43996e-06 0)
(-2.84412e-07 4.43977e-06 0)
(-2.84417e-07 4.43944e-06 0)
(-2.84397e-07 4.43891e-06 0)
(-2.84341e-07 4.43811e-06 0)
(-2.84241e-07 4.43695e-06 0)
(-2.84091e-07 4.43537e-06 0)
(-2.83891e-07 4.43327e-06 0)
(-2.83646e-07 4.43062e-06 0)
(-2.83367e-07 4.42738e-06 0)
(-2.83069e-07 4.42355e-06 0)
(-2.82765e-07 4.4192e-06 0)
(-2.82466e-07 4.41444e-06 0)
(-2.82181e-07 4.40941e-06 0)
(-2.81915e-07 4.4043e-06 0)
(-2.81663e-07 4.3993e-06 0)
(-2.81414e-07 4.39459e-06 0)
(-2.81144e-07 4.39034e-06 0)
(-2.80792e-07 4.38662e-06 0)
(-2.80094e-07 4.38351e-06 0)
(-2.84887e-07 4.37967e-06 0)
(-2.82886e-07 4.33384e-06 0)
(-2.25061e-07 3.75036e-06 0)
(-1.20129e-08 1.4353e-07 0)
(-1.3403e-08 1.61252e-07 0)
(-1.35459e-08 1.62338e-07 0)
(-1.3411e-08 1.62423e-07 0)
(-1.34006e-08 1.62511e-07 0)
(-1.33515e-08 1.62586e-07 0)
(-1.33261e-08 1.6269e-07 0)
(-1.32992e-08 1.6282e-07 0)
(-1.32695e-08 1.62977e-07 0)
(-1.32365e-08 1.6316e-07 0)
(-1.31999e-08 1.63365e-07 0)
(-1.31599e-08 1.63586e-07 0)
(-1.3117e-08 1.63816e-07 0)
(-1.30721e-08 1.64046e-07 0)
(-1.30264e-08 1.6427e-07 0)
(-1.29813e-08 1.64481e-07 0)
(-1.29381e-08 1.64673e-07 0)
(-1.2898e-08 1.64844e-07 0)
(-1.2862e-08 1.64991e-07 0)
(-1.28307e-08 1.65115e-07 0)
(-1.28045e-08 1.65217e-07 0)
(-1.27832e-08 1.65298e-07 0)
(-1.27665e-08 1.65361e-07 0)
(-1.27538e-08 1.6541e-07 0)
(-1.27444e-08 1.65446e-07 0)
(-1.27376e-08 1.65472e-07 0)
(-1.27328e-08 1.6549e-07 0)
(-1.27294e-08 1.65503e-07 0)
(-1.2727e-08 1.65511e-07 0)
(-1.27252e-08 1.65516e-07 0)
(-1.27238e-08 1.65519e-07 0)
(-1.27227e-08 1.65521e-07 0)
(-1.27218e-08 1.65521e-07 0)
(-1.2721e-08 1.65521e-07 0)
(-1.27205e-08 1.65521e-07 0)
(-1.272e-08 1.65521e-07 0)
(-1.27198e-08 1.6552e-07 0)
(-1.27195e-08 1.6552e-07 0)
(-1.27194e-08 1.6552e-07 0)
(-1.27193e-08 1.65519e-07 0)
(-1.27193e-08 1.65519e-07 0)
(-1.27192e-08 1.65519e-07 0)
(-1.27192e-08 1.65519e-07 0)
(-1.27192e-08 1.65519e-07 0)
(-1.27192e-08 1.65519e-07 0)
(-1.27192e-08 1.65519e-07 0)
(-1.27192e-08 1.65519e-07 0)
(-1.27191e-08 1.65519e-07 0)
(-1.27191e-08 1.65519e-07 0)
(-1.27191e-08 1.65519e-07 0)
(-1.27191e-08 1.65519e-07 0)
(-1.27191e-08 1.65519e-07 0)
(-1.27191e-08 1.65519e-07 0)
(-1.27191e-08 1.65519e-07 0)
(-1.27191e-08 1.65519e-07 0)
(-1.27191e-08 1.65519e-07 0)
(-1.27191e-08 1.65519e-07 0)
(-1.27191e-08 1.65519e-07 0)
(-1.27191e-08 1.65519e-07 0)
(-1.27192e-08 1.65519e-07 0)
(-1.27193e-08 1.65519e-07 0)
(-1.27195e-08 1.6552e-07 0)
(-1.27198e-08 1.6552e-07 0)
(-1.27201e-08 1.65521e-07 0)
(-1.27206e-08 1.65521e-07 0)
(-1.27211e-08 1.65521e-07 0)
(-1.27217e-08 1.65522e-07 0)
(-1.27225e-08 1.65521e-07 0)
(-1.27233e-08 1.65521e-07 0)
(-1.27243e-08 1.65519e-07 0)
(-1.27256e-08 1.65516e-07 0)
(-1.27274e-08 1.65511e-07 0)
(-1.27297e-08 1.65502e-07 0)
(-1.27331e-08 1.6549e-07 0)
(-1.27379e-08 1.65472e-07 0)
(-1.27447e-08 1.65446e-07 0)
(-1.27542e-08 1.6541e-07 0)
(-1.27669e-08 1.65362e-07 0)
(-1.27838e-08 1.65298e-07 0)
(-1.28052e-08 1.65217e-07 0)
(-1.28315e-08 1.65116e-07 0)
(-1.28629e-08 1.64992e-07 0)
(-1.2899e-08 1.64845e-07 0)
(-1.29392e-08 1.64675e-07 0)
(-1.29825e-08 1.64483e-07 0)
(-1.30278e-08 1.64274e-07 0)
(-1.30736e-08 1.64051e-07 0)
(-1.31187e-08 1.63821e-07 0)
(-1.31618e-08 1.63593e-07 0)
(-1.32019e-08 1.63372e-07 0)
(-1.32387e-08 1.63168e-07 0)
(-1.32718e-08 1.62985e-07 0)
(-1.33015e-08 1.62827e-07 0)
(-1.33284e-08 1.62697e-07 0)
(-1.33536e-08 1.62593e-07 0)
(-1.33996e-08 1.62516e-07 0)
(-1.34071e-08 1.62431e-07 0)
(-1.35389e-08 1.62347e-07 0)
(-1.34041e-08 1.6126e-07 0)
(-1.20122e-08 1.4353e-07 0)
(-0.115988 -0.913599 0)
(-0.113666 -0.950579 0)
(-0.113588 -0.951335 0)
(-0.113581 -0.951349 0)
(-0.11358 -0.951345 0)
(-0.113579 -0.951328 0)
(-0.113577 -0.951287 0)
(-0.113575 -0.951211 0)
(-0.113572 -0.951096 0)
(-0.113569 -0.95094 0)
(-0.113565 -0.950753 0)
(-0.113561 -0.950547 0)
(-0.113558 -0.950339 0)
(-0.113555 -0.950144 0)
(-0.113552 -0.949976 0)
(-0.113551 -0.949843 0)
(-0.113549 -0.949747 0)
(-0.113549 -0.949685 0)
(-0.113548 -0.949651 0)
(-0.113548 -0.949636 0)
(-0.113548 -0.949631 0)
(-0.113548 -0.949631 0)
(-0.113548 -0.949632 0)
(-0.113548 -0.949636 0)
(-0.113549 -0.949645 0)
(-0.113549 -0.949661 0)
(-0.113549 -0.949683 0)
(-0.113549 -0.94971 0)
(-0.113549 -0.94974 0)
(-0.113549 -0.949771 0)
(-0.113548 -0.949799 0)
(-0.113548 -0.949824 0)
(-0.113547 -0.949845 0)
(-0.113547 -0.94986 0)
(-0.113546 -0.949871 0)
(-0.113545 -0.949878 0)
(-0.113545 -0.949882 0)
(-0.113544 -0.949884 0)
(-0.113543 -0.949885 0)
(-0.113543 -0.949885 0)
(-0.113543 -0.949885 0)
(-0.113542 -0.949884 0)
(-0.113542 -0.949884 0)
(-0.113542 -0.949883 0)
(-0.113541 -0.949883 0)
(-0.113541 -0.949883 0)
(-0.113541 -0.949883 0)
(-0.113541 -0.949883 0)
(-0.113541 -0.949882 0)
(-0.113541 -0.949882 0)
(-0.113541 -0.949882 0)
(-0.113541 -0.949882 0)
(-0.113541 -0.949883 0)
(-0.113541 -0.949883 0)
(-0.113541 -0.949883 0)
(-0.113541 -0.949883 0)
(-0.113542 -0.949883 0)
(-0.113542 -0.949884 0)
(-0.113542 -0.949884 0)
(-0.113543 -0.949885 0)
(-0.113543 -0.949885 0)
(-0.113543 -0.949885 0)
(-0.113544 -0.949884 0)
(-0.113545 -0.949882 0)
(-0.113545 -0.949878 0)
(-0.113546 -0.949871 0)
(-0.113547 -0.94986 0)
(-0.113547 -0.949845 0)
(-0.113548 -0.949824 0)
(-0.113548 -0.949799 0)
(-0.113548 -0.94977 0)
(-0.113549 -0.949739 0)
(-0.113549 -0.949708 0)
(-0.113548 -0.949681 0)
(-0.113548 -0.949658 0)
(-0.113548 -0.949642 0)
(-0.113548 -0.949632 0)
(-0.113548 -0.949628 0)
(-0.113548 -0.949626 0)
(-0.113548 -0.949627 0)
(-0.113548 -0.949631 0)
(-0.113548 -0.949646 0)
(-0.113548 -0.949679 0)
(-0.113549 -0.949739 0)
(-0.11355 -0.949834 0)
(-0.113552 -0.949966 0)
(-0.113554 -0.950132 0)
(-0.113557 -0.950325 0)
(-0.113561 -0.950532 0)
(-0.113564 -0.950737 0)
(-0.113568 -0.950923 0)
(-0.113571 -0.951077 0)
(-0.113574 -0.951192 0)
(-0.113576 -0.951268 0)
(-0.113578 -0.951308 0)
(-0.113579 -0.951325 0)
(-0.11358 -0.951329 0)
(-0.113587 -0.951315 0)
(-0.113664 -0.950562 0)
(-0.11599 -0.913639 0)
(-0.111805 -6.05042 0)
(-0.111789 -6.04948 0)
(-0.111794 -6.04915 0)
(-0.111809 -6.04861 0)
(-0.111831 -6.04791 0)
(-0.111851 -6.0471 0)
(-0.111867 -6.04623 0)
(-0.111875 -6.04535 0)
(-0.111879 -6.04451 0)
(-0.11188 -6.04372 0)
(-0.111879 -6.04303 0)
(-0.111878 -6.04244 0)
(-0.111878 -6.04196 0)
(-0.111879 -6.04159 0)
(-0.111879 -6.04132 0)
(-0.11188 -6.04113 0)
(-0.111881 -6.041 0)
(-0.111881 -6.04092 0)
(-0.111881 -6.04088 0)
(-0.111881 -6.04086 0)
(-0.111881 -6.04086 0)