/*--------------------------------*- C++ -*----------------------------------*\
| =========                 |                                                 |
| \\      /  F ield         | OpenFOAM: The Open Source CFD Toolbox           |
|  \\    /   O peration     | Version:  2406                                  |
|   \\  /    A nd           | Website:  www.openfoam.com                      |
|    \\/     M anipulation  |                                                 |
\*---------------------------------------------------------------------------*/
FoamFile
{
    version     2.0;
    format      ascii;
    arch        "LSB;label=32;scalar=64";
    class       volScalarField;
    location    "0.09";
    object      Ma;
}
// * * * * * * * * * * * * * * * * * * * * * * * * * * * * * * * * * * * * * //

dimensions      [0 0 0 0 0 0 0];

internalField   nonuniform List<scalar> 
13948
(
0.151416
0.105122
0.066205
0.0394701
0.0245354
0.0168079
0.0125046
0.00981083
0.00792323
0.00642628
0.00520334
0.00411151
0.00308129
0.002143
0.00138754
0.000923842
0.00073918
0.000674454
0.000724044
0.000845963
0.000999247
0.00113861
0.0012646
0.00140086
0.00154577
0.0016242
0.00158792
0.00146756
0.00121939
0.000774675
0.000218217
0.000177052
0.000271887
0.000262459
0.000237002
0.000221779
0.000228269
0.000284426
0.000425931
0.000641857
0.000794802
0.00081298
0.000769457
0.000654469
0.00044527
0.000203636
4.76158e-05
3.91663e-06
7.48099e-08
2.25136e-10
1.65115e-13
1.44331e-13
1.27444e-13
9.95628e-14
8.59972e-14
6.7709e-14
3.66726e-14
3.79446e-14
3.95197e-14
5.58854e-14
6.6266e-14
6.44715e-14
1.42785e-13
1.72218e-13
1.1829e-13
9.32425e-14
7.54769e-14
6.59269e-14
6.26203e-14
5.5623e-14
5.36473e-14
5.14517e-14
5.48941e-14
5.50113e-14
8.12938e-14
1.0599e-13
1.24833e-13
1.84889e-13
2.50408e-13
2.1999e-13
1.97727e-13
2.10389e-13
2.18723e-13
2.10984e-13
1.80632e-13
1.87449e-13
1.53827e-13
1.23074e-13
6.846e-14
5.41905e-14
8.83435e-14
9.43484e-14
8.33404e-14
6.81223e-14
1.39623e-13
2.21778e-13
2.74173e-13
2.7838e-13
3.18042e-13
0.122065
0.127792
0.0997978
0.0646033
0.0390598
0.0244291
0.01681
0.0125159
0.00981624
0.00793041
0.00643453
0.00520824
0.0041061
0.00306312
0.00212023
0.00137159
0.000900931
0.000708753
0.000639596
0.000693868
0.000825789
0.000988615
0.00113501
0.00126612
0.00140701
0.00155403
0.0016311
0.00159327
0.00147075
0.00121741
0.000768482
0.000211421
0.000177445
0.000271022
0.000261284
0.00023511
0.000219481
0.000225613
0.000283146
0.000427922
0.000645778
0.00079707
0.000813845
0.000770137
0.000653666
0.000443256
0.000201782
4.68966e-05
3.82822e-06
7.24692e-08
2.15961e-10
1.58407e-13
1.34076e-13
1.24249e-13
1.01056e-13
8.36969e-14
6.29498e-14
3.47556e-14
4.45848e-14
3.89994e-14
5.4217e-14
6.31881e-14
6.2472e-14
1.15988e-13
1.39481e-13
1.10753e-13
8.58033e-14
7.69153e-14
5.88706e-14
6.50496e-14
5.80031e-14
5.06414e-14
5.15914e-14
5.52466e-14
5.34477e-14
7.86069e-14
8.84195e-14
1.18789e-13
1.7142e-13
2.10866e-13
2.00481e-13
1.8495e-13
1.97578e-13
2.14993e-13
1.92257e-13
1.78554e-13
1.727e-13
1.39177e-13
1.01847e-13
5.90791e-14
4.81426e-14
8.93663e-14
9.36502e-14
7.61567e-14
6.78912e-14
1.28772e-13
2.09494e-13
2.59223e-13
2.76384e-13
3.11149e-13
0.256602
0.248591
0.231476
0.207899
0.177976
0.144049
0.109256
0.0785635
0.0668952
0.068616
0.0840636
0.0803374
0.0588829
0.0378175
0.0241608
0.0166853
0.0123689
0.00967646
0.00780515
0.00632953
0.00511889
0.00403028
0.00300835
0.0020871
0.00135306
0.000901198
0.000716665
0.000649406
0.000706937
0.000840934
0.00100127
0.00114335
0.00127197
0.00140993
0.00154783
0.00161442
0.00157004
0.00144386
0.00118708
0.00074095
0.000193795
0.000183064
0.000272996
0.000263426
0.000238257
0.000223691
0.00023138
0.000290608
0.000435376
0.000650124
0.000795304
0.00080809
0.000763001
0.000644866
0.000435052
0.000196701
4.52725e-05
3.64616e-06
6.78508e-08
1.98177e-10
1.48362e-13
1.24484e-13
1.08165e-13
9.7888e-14
7.89608e-14
6.33357e-14
4.4378e-14
4.83834e-14
4.25591e-14
5.82039e-14
6.33965e-14
5.93015e-14
8.98722e-14
1.04816e-13
1.00093e-13
8.13105e-14
7.25615e-14
5.38556e-14
5.42227e-14
4.48349e-14
3.79669e-14
3.67136e-14
4.74102e-14
3.71373e-14
6.29379e-14
6.91527e-14
1.03273e-13
1.35995e-13
1.65786e-13
1.64613e-13
1.67953e-13
1.61315e-13
1.72662e-13
1.5427e-13
1.52268e-13
1.53695e-13
1.17004e-13
7.80778e-14
4.31517e-14
4.10114e-14
7.95602e-14
7.94913e-14
6.616e-14
6.34525e-14
1.06131e-13
1.76222e-13
2.35605e-13
2.61237e-13
3.05505e-13
0.445065
0.380768
0.322441
0.272046
0.232285
0.20312
0.180093
0.163826
0.154031
0.148541
0.148159
0.151596
0.156648
0.162324
0.167628
0.172281
0.175715
0.177932
0.177757
0.173765
0.167306
0.159411
0.150137
0.139599
0.130331
0.12357
0.119248
0.118234
0.11873
0.119706
0.120653
0.120157
0.117892
0.11322
0.105277
0.0940457
0.0803374
0.0654159
0.0519264
0.0428216
0.0392998
0.048929
0.0554489
0.0655624
0.0628506
0.04966
0.0347052
0.0231858
0.0162771
0.0120657
0.00941867
0.00758591
0.00615696
0.00498357
0.00392023
0.00292183
0.00202835
0.00132385
0.000892007
0.000715258
0.000653085
0.000713879
0.000848879
0.001008
0.00114819
0.00127347
0.00140386
0.0015342
0.00159272
0.00154345
0.00141557
0.00115623
0.000711668
0.000173432
0.000190516
0.000275828
0.000266238
0.000241896
0.000227874
0.000236473
0.000296542
0.000441566
0.000653579
0.000792717
0.000801923
0.000755855
0.000636162
0.000426473
0.000190951
4.33048e-05
3.41602e-06
6.18999e-08
1.75196e-10
1.46974e-13
1.1631e-13
8.88222e-14
8.40841e-14
7.33328e-14
5.50826e-14
4.91949e-14
5.3812e-14
4.88323e-14
6.138e-14
5.73597e-14
5.92813e-14
8.01466e-14
9.16935e-14
8.6193e-14
7.82165e-14
5.53192e-14
5.03745e-14
3.33358e-14
2.89586e-14
2.38541e-14
1.24234e-14
2.44044e-14
1.69027e-14
4.03342e-14
5.60704e-14
8.97674e-14
1.05444e-13
1.18742e-13
1.18873e-13
1.26697e-13
1.18126e-13
1.23747e-13
1.19001e-13
1.12705e-13
1.03068e-13
7.96189e-14
5.98667e-14
2.98419e-14
4.38302e-14
6.79982e-14
6.42324e-14
6.27955e-14
6.51804e-14
8.68779e-14
1.37181e-13
1.98586e-13
2.4009e-13
2.84511e-13
0.512057
0.436132
0.371379
0.31642
0.269314
0.227594
0.190103
0.15715
0.131203
0.112985
0.0992331
0.0896089
0.0845001
0.0818741
0.0802347
0.0800725
0.0808631
0.0816282
0.0814488
0.0804241
0.0779407
0.0738836
0.0695931
0.0648908
0.0604498
0.0560821
0.0522814
0.0497176
0.0482812
0.0482663
0.0489632
0.0500386
0.0505911
0.0498014
0.0479304
0.0449112
0.0407077
0.0368326
0.0325628
0.0296772
0.0287426
0.0328738
0.0361845
0.0420946
0.0466574
0.0516156
0.0486924
0.0404745
0.0305098
0.0215733
0.0155313
0.0115722
0.00903822
0.00727172
0.00591414
0.00479897
0.00377928
0.00281677
0.00195478
0.0012823
0.000875762
0.000708391
0.000652619
0.000717555
0.000856176
0.00101422
0.0011489
0.00126684
0.0013923
0.0015154
0.0015667
0.00151251
0.0013837
0.00112237
0.000679277
0.000150615
0.000199065
0.000278577
0.000268693
0.000245175
0.000231591
0.000241102
0.000302159
0.000447697
0.000656978
0.000789136
0.000794692
0.000747655
0.000626484
0.000416829
0.000184316
4.09886e-05
3.14399e-06
5.49489e-08
1.4899e-10
1.34322e-13
9.47644e-14
9.10933e-14
6.80083e-14
5.9311e-14
5.00383e-14
5.7503e-14
6.32177e-14
5.66238e-14
5.87237e-14
5.31462e-14
7.06191e-14
7.36126e-14
7.21206e-14
6.94943e-14
6.3628e-14
3.56285e-14
4.70672e-14
3.41129e-14
3.97609e-14
2.49431e-14
2.51621e-14
2.54363e-14
3.30707e-14
3.33243e-14
5.49908e-14
7.96309e-14
8.75273e-14
9.47213e-14
8.97485e-14
8.78857e-14
8.18148e-14
8.27907e-14
8.11463e-14
7.85402e-14
6.80427e-14
5.67886e-14
4.74432e-14
2.30424e-14
3.9933e-14
6.90067e-14
6.86221e-14
6.01192e-14
5.90215e-14
7.10867e-14
1.04665e-13
1.67771e-13
2.164e-13
2.64327e-13
0.482126
0.42255
0.367906
0.31614
0.267405
0.223658
0.1873
0.157784
0.132363
0.109399
0.0891069
0.0729213
0.0622191
0.0555797
0.050114
0.0456469
0.0433396
0.0418486
0.0401732
0.0376441
0.0343653
0.0304046
0.0261424
0.0224349
0.0192966
0.0167473
0.0152244
0.0143109
0.0143401
0.0146497
0.0153725
0.0164374
0.0177726
0.0187521
0.0190558
0.0190831
0.0191888
0.019133
0.0201456
0.021417
0.0242636
0.0271857
0.0305988
0.0328293
0.0361096
0.0392229
0.0418151
0.0389793
0.0331346
0.0261988
0.0195157
0.0145124
0.0109746
0.00861705
0.00693223
0.00564901
0.00458594
0.00360728
0.00268294
0.00185943
0.00122654
0.000853057
0.000698584
0.000652743
0.000723167
0.000863306
0.00101721
0.00114689
0.00126259
0.00138595
0.00150233
0.00154649
0.00148671
0.00135549
0.00108917
0.000644838
0.000125594
0.000208215
0.000280794
0.000270362
0.000247489
0.000234019
0.000244855
0.00030793
0.000455341
0.000662389
0.000787462
0.000789198
0.000740677
0.000616992
0.000406385
0.000176774
3.8326e-05
2.83565e-06
4.73137e-08
1.21422e-10
1.29734e-13
8.97079e-14
7.82796e-14
6.13941e-14
5.94403e-14
5.59577e-14
6.44814e-14
6.8688e-14
5.7594e-14
5.5319e-14
5.66194e-14
7.4323e-14
7.04519e-14
5.9122e-14
4.88704e-14
3.20834e-14
2.95683e-14
4.10638e-14
4.08414e-14
3.5165e-14
3.01823e-14
5.02433e-14
6.6741e-14
5.49496e-14
4.63773e-14
5.59249e-14
6.71643e-14
6.50621e-14
7.59628e-14
6.66951e-14
6.42671e-14
5.08644e-14
5.21835e-14
5.03406e-14
4.49674e-14
4.12569e-14
3.76351e-14
3.4408e-14
2.14991e-14
3.97125e-14
6.8954e-14
6.48673e-14
5.64625e-14
6.11793e-14
6.94642e-14
9.20532e-14
1.46492e-13
1.9785e-13
2.4286e-13
0.359344
0.326793
0.288419
0.248794
0.213022
0.182155
0.15476
0.130112
0.108483
0.0905138
0.0755651
0.0631517
0.0531154
0.0437772
0.0366532
0.0320228
0.0296928
0.0277741
0.0253628
0.0223217
0.0189117
0.0150902
0.0109338
0.00691092
0.00318352
0.000987685
0.00282998
0.00445201
0.00575911
0.00681625
0.00771381
0.00860624
0.00936328
0.01013
0.0109189
0.012008
0.0136135
0.0156657
0.0182559
0.0208197
0.0232605
0.025312
0.027474
0.0293072
0.031294
0.0331364
0.034384
0.0319256
0.0274477
0.0223404
0.0173522
0.0133353
0.0102856
0.0081507
0.00656735
0.00536788
0.00435772
0.00342235
0.00253673
0.00175256
0.00116226
0.000824855
0.000685566
0.000654787
0.000731252
0.00087375
0.00102375
0.00114841
0.00126096
0.00138081
0.00148917
0.0015254
0.00145955
0.00132516
0.00105274
0.000606534
9.80174e-05
0.000217916
0.000282558
0.000271422
0.000249516
0.000236431
0.000249141
0.000315006
0.000464992
0.000669038
0.000785797
0.000783382
0.000733081
0.000606395
0.000394507
0.000168169
3.53297e-05
2.49957e-06
3.93753e-08
9.43909e-11
1.23734e-13
7.21034e-14
6.49375e-14
5.45349e-14
6.18906e-14
6.77155e-14
6.3461e-14
6.42793e-14
6.30159e-14
5.44507e-14
5.4445e-14
6.26028e-14
5.24029e-14
5.23429e-14
4.43137e-14
3.35795e-14
3.56101e-14
4.14905e-14
4.18707e-14
3.97741e-14
3.4034e-14
6.24118e-14
8.94186e-14
6.26677e-14
6.10592e-14
6.49339e-14
5.7265e-14
5.92309e-14
7.38739e-14
6.20818e-14
4.81134e-14
3.63734e-14
2.86272e-14
3.00207e-14
3.37393e-14
3.15962e-14
1.89958e-14
1.44402e-14
2.79824e-14
4.48243e-14
6.20262e-14
6.22942e-14
6.44189e-14
6.14983e-14
7.39831e-14
8.92959e-14
1.31041e-13
1.84952e-13
2.42051e-13
0.288358
0.266638
0.240317
0.210758
0.180545
0.152597
0.128899
0.10905
0.0918849
0.0767929
0.0637204
0.0530671
0.045149
0.0381106
0.0327272
0.0284914
0.024849
0.0214986
0.0185043
0.015619
0.0129975
0.0104104
0.00799978
0.00614568
0.00521751
0.00560366
0.00657421
0.00782186
0.00895854
0.00994919
0.0107349
0.0114982
0.0120808
0.0126232
0.0131526
0.013913
0.0149827
0.0163907
0.0181028
0.0198889
0.0215592
0.023019
0.0242834
0.0254792
0.0266679
0.0277736
0.0283556
0.0264444
0.023032
0.0191446
0.0153386
0.0121278
0.00955944
0.00766662
0.00620546
0.00508515
0.00412062
0.00322608
0.0023813
0.0016411
0.00109881
0.000801513
0.000674796
0.000663461
0.000746897
0.000892227
0.00103883
0.00115874
0.00126738
0.00138246
0.00148054
0.00150654
0.00143323
0.00129346
0.00101275
0.00056381
6.77935e-05
0.000228404
0.000284604
0.000272766
0.000251745
0.000239256
0.000254267
0.000323672
0.000476698
0.000677204
0.000785118
0.000778131
0.000725302
0.000594704
0.000381086
0.000158488
3.2043e-05
2.14698e-06
3.15413e-08
6.9623e-11
1.06984e-13
6.36967e-14
6.10414e-14
5.88021e-14
6.22779e-14
7.3446e-14
5.90341e-14
6.06556e-14
6.48687e-14
6.00444e-14
5.76449e-14
4.62919e-14
3.44948e-14
4.6912e-14
4.33767e-14
4.77062e-14
5.5253e-14
6.35201e-14
6.15125e-14
6.20487e-14
5.73983e-14
7.15224e-14
8.20981e-14
6.24087e-14
7.49028e-14
6.62571e-14
6.09954e-14
6.77657e-14
8.17641e-14
6.55767e-14
5.01387e-14
3.88956e-14
2.86003e-14
2.85512e-14
2.83209e-14
2.81785e-14
2.08883e-14
3.30062e-14
4.64869e-14
5.02689e-14
5.90947e-14
6.79545e-14
7.42941e-14
5.72951e-14
6.60746e-14
8.97628e-14
1.18643e-13
1.73882e-13
2.20277e-13
0.244674
0.224391
0.199801
0.174302
0.149878
0.128019
0.109191
0.0926926
0.0784535
0.0665015
0.056367
0.0476447
0.0403764
0.0340457
0.0290336
0.0251505
0.0216878
0.0182978
0.0153295
0.0125665
0.0101646
0.00791602
0.00602744
0.00513303
0.00527118
0.00600804
0.00689031
0.00809403
0.00928261
0.0105091
0.0114461
0.0123459
0.0130722
0.013659
0.0141258
0.0146599
0.0153736
0.0163182
0.0173017
0.0183063
0.0193077
0.0202458
0.0210615
0.0218585
0.0226164
0.023273
0.0235403
0.0220712
0.0194672
0.016464
0.0135164
0.0109499
0.00881768
0.00716152
0.00583763
0.00480122
0.00388461
0.00303058
0.00222587
0.00153095
0.00103832
0.000782378
0.000670941
0.000677008
0.000769417
0.000915356
0.00105564
0.00116848
0.00127206
0.00138222
0.00146952
0.00148436
0.00140444
0.00125804
0.000967773
0.000515957
3.60162e-05
0.00023966
0.000286844
0.000274194
0.000254164
0.000242617
0.000260257
0.000333818
0.000490227
0.00068619
0.00078401
0.000772401
0.000716635
0.000581503
0.000365942
0.000147745
2.85246e-05
1.79051e-06
2.41987e-08
4.84167e-11
9.51228e-14
7.82171e-14
7.43738e-14
6.35503e-14
5.80513e-14
6.09134e-14
5.77933e-14
5.18337e-14
5.77848e-14
5.26291e-14
6.55834e-14
4.54897e-14
3.41617e-14
5.32218e-14
5.9212e-14
5.88467e-14
5.8779e-14
7.27704e-14
7.08784e-14
7.68356e-14
7.55779e-14
8.26188e-14
8.9738e-14
6.83826e-14
7.38626e-14
6.44826e-14
5.6741e-14
6.50898e-14
7.63151e-14
6.57912e-14
5.12105e-14
4.41506e-14
2.7678e-14
2.85785e-14
2.38155e-14
2.39725e-14
2.88696e-14
4.01902e-14
4.48209e-14
4.88142e-14
6.17702e-14
7.39842e-14
6.80385e-14
5.7467e-14
6.45825e-14
8.40913e-14
1.09174e-13
1.59085e-13
2.11596e-13
0.221584
0.198607
0.174784
0.15142
0.130458
0.111802
0.0948893
0.0805975
0.0686582
0.0586224
0.0500555
0.042896
0.0369577
0.0321646
0.0277629
0.0237695
0.0200753
0.0166087
0.0134791
0.0105651
0.00793671
0.00557447
0.00385135
0.00312673
0.00376603
0.00495661
0.00608789
0.00731347
0.00845963
0.00970317
0.0107143
0.0116633
0.0124562
0.0131061
0.0136085
0.014067
0.0145853
0.0151942
0.0158244
0.0164832
0.0170869
0.0176446
0.0181232
0.0186453
0.019152
0.0195395
0.0196224
0.0185078
0.0165496
0.0142419
0.0119353
0.00985816
0.008087
0.00665215
0.00547031
0.00451283
0.00364495
0.00283164
0.00206901
0.00142375
0.000983425
0.00076753
0.000673781
0.000694848
0.000796872
0.000942811
0.00107622
0.00118167
0.00127958
0.001384
0.00145884
0.00146017
0.00137425
0.00121882
0.000917341
0.000462699
1.93328e-05
0.000251404
0.000289487
0.000275971
0.000256851
0.000246482
0.000267006
0.00034544
0.000505652
0.000696023
0.00078288
0.000766566
0.000707145
0.000566644
0.000348955
0.000135983
2.48484e-05
1.44343e-06
1.76744e-08
3.14881e-11
6.96991e-14
7.66654e-14
6.43074e-14
5.37893e-14
5.43578e-14
5.1821e-14
4.85768e-14
4.45527e-14
5.74982e-14
6.02466e-14
7.32659e-14
4.95702e-14
3.22258e-14
5.02322e-14
5.77163e-14
5.73222e-14
5.48096e-14
6.59941e-14
6.7952e-14
7.5917e-14
7.89975e-14
8.56526e-14
7.49041e-14
5.56615e-14
5.90614e-14
4.85262e-14
4.53986e-14
7.01884e-14
8.26105e-14
7.11881e-14
4.67107e-14
3.0527e-14
1.97238e-14
2.12121e-14
1.04323e-14
2.92378e-14
3.9776e-14
3.79992e-14
3.47093e-14
4.61021e-14
6.61413e-14
6.67525e-14
6.15347e-14
5.99115e-14
5.90624e-14
7.72201e-14
1.04717e-13
1.53949e-13
2.02776e-13
0.189642
0.168645
0.147905
0.128252
0.110251
0.0945291
0.0811525
0.0698543
0.0602828
0.0521499
0.045182
0.0392266
0.0340214
0.0296875
0.0257136
0.0220603
0.0186735
0.0155357
0.0126199
0.00984403
0.00727879
0.00492095
0.00280494
0.00117853
0.00167927
0.00322704
0.00470203
0.00602581
0.00714713
0.00829596
0.00927862
0.0102127
0.0110246
0.0117277
0.0123238
0.0128753
0.0133593
0.0138117
0.0142343
0.0146161
0.0149483
0.0152664
0.015552
0.0159136
0.0162625
0.01649
0.0164624
0.0155803
0.0140844
0.012314
0.0105124
0.00884019
0.00737308
0.00613695
0.00509358
0.00421458
0.00340065
0.00262911
0.00190986
0.00131734
0.000931072
0.000753029
0.000680149
0.000716542
0.000828
0.000972238
0.00109677
0.00119389
0.00128586
0.0013839
0.0014457
0.00143176
0.00134202
0.00117469
0.00086078
0.000403919
4.91394e-05
0.000263047
0.000292061
0.000277568
0.000259426
0.000250658
0.000274563
0.000358732
0.00052309
0.000706357
0.000781213
0.00076032
0.000696502
0.000549808
0.000329983
0.00012328
2.11038e-05
1.11879e-06
1.22004e-08
1.89697e-11
6.53216e-14
6.15024e-14
5.80161e-14
5.85011e-14
6.35617e-14
5.70788e-14
5.35444e-14
5.75534e-14
6.76266e-14
6.83722e-14
7.57696e-14
5.4167e-14
4.56012e-14
5.37718e-14
5.82346e-14
5.72436e-14
5.27816e-14
5.83036e-14
5.98276e-14
6.89398e-14
7.18276e-14
7.42478e-14
6.09616e-14
3.94756e-14
4.90985e-14
3.90176e-14
4.81329e-14
8.0392e-14
8.05467e-14
7.49521e-14
5.11283e-14
4.28029e-14
3.47397e-14
3.03136e-14
3.19988e-14
4.0287e-14
4.58859e-14
4.04725e-14
3.86731e-14
4.80002e-14
6.5207e-14
5.35604e-14
5.72487e-14
5.59585e-14
5.16402e-14
6.99896e-14
1.03447e-13
1.55113e-13
1.95919e-13
0.155102
0.139673
0.123712
0.108381
0.0942383
0.0816549
0.0707812
0.0614193
0.0533454
0.0464171
0.0404355
0.0353734
0.0309817
0.0271445
0.023719
0.0204375
0.0173705
0.0145383
0.0118721
0.00935547
0.00699635
0.00481396
0.00288998
0.00136785
0.00130099
0.00248277
0.00374358
0.00491376
0.0059559
0.0069586
0.00782857
0.00864701
0.0093886
0.0100955
0.0107082
0.0112532
0.011716
0.0121082
0.0124371
0.0126842
0.0128977
0.013113
0.013324
0.0135953
0.0138326
0.013955
0.0138579
0.0131534
0.0120248
0.0106867
0.00927945
0.00791786
0.00668976
0.00562587
0.00470991
0.00390728
0.00314838
0.00241991
0.00174812
0.00121422
0.00088523
0.000740565
0.000693077
0.000744025
0.000864347
0.00100491
0.00111911
0.00120747
0.00129323
0.0013833
0.00143088
0.00140082
0.00130663
0.0011253
0.00079754
0.000339658
8.84892e-05
0.000274235
0.000294708
0.000279218
0.00026206
0.000255339
0.00028321
0.000374023
0.000542704
0.000717044
0.000779007
0.000753736
0.000684466
0.000530672
0.000308901
0.000109764
1.73946e-05
8.28278e-07
7.89002e-09
1.04828e-11
5.74853e-14
4.60768e-14
5.22062e-14
4.95396e-14
5.45074e-14
4.72509e-14
4.58492e-14
5.89119e-14
6.97488e-14
8.37878e-14
8.82238e-14
6.31177e-14
5.15464e-14
4.18823e-14
5.59463e-14
6.16881e-14
6.81585e-14
7.8923e-14
8.11297e-14
8.30372e-14
6.9196e-14
7.46708e-14
5.89012e-14
4.65775e-14
5.75558e-14
4.25114e-14
4.18561e-14
7.46207e-14
7.69042e-14
7.01061e-14
4.75488e-14
3.18233e-14
4.3483e-14
4.51553e-14
5.06505e-14
6.29269e-14
7.20936e-14
6.21768e-14
6.30738e-14
7.01149e-14
6.33696e-14
5.69677e-14
5.847e-14
5.90134e-14
5.30749e-14
7.51041e-14
1.1379e-13
1.57748e-13
1.95643e-13
0.122728
0.111897
0.100866
0.0900619
0.0797406
0.069883
0.061008
0.0532595
0.0465715
0.0408512
0.0358561
0.0315389
0.0276925
0.0242695
0.0211973
0.0184331
0.0158115
0.0133516
0.0110063
0.00880613
0.00676876
0.00494463
0.0034177
0.00235188
0.00208918
0.00264133
0.00351124
0.0044282
0.00528521
0.00610642
0.00684126
0.00751903
0.0081251
0.008718
0.00922017
0.00972144
0.0101033
0.0104278
0.010685
0.0108758
0.0110506
0.0112203
0.0113971
0.0116014
0.0117456
0.0117998
0.0116777
0.0111424
0.0102996
0.00927519
0.00816293
0.00704525
0.00602306
0.00511713
0.00431755
0.00359011
0.00288733
0.00220466
0.001585
0.00111465
0.000846345
0.000729059
0.000712087
0.000777845
0.000905465
0.00103909
0.00114115
0.0012205
0.00130007
0.00138025
0.00141255
0.00136718
0.00126649
0.00106977
0.000726744
0.000270104
0.000129435
0.000284594
0.00029727
0.000280754
0.000264616
0.000260599
0.000293259
0.000391649
0.00056454
0.000727714
0.000775899
0.000746676
0.000670602
0.000508845
0.000285621
9.5626e-05
1.38351e-05
5.81026e-07
4.72988e-09
5.23392e-12
5.06265e-14
5.77993e-14
5.00878e-14
4.3813e-14
5.59692e-14
4.19822e-14
5.45204e-14
6.99126e-14
7.43591e-14
8.74448e-14
9.368e-14
6.55072e-14
3.79325e-14
2.09055e-14
5.94658e-14
6.9458e-14
7.90195e-14
9.15035e-14
9.15375e-14
8.37356e-14
7.25485e-14
5.83279e-14
3.92505e-14
4.55139e-14
5.2294e-14
5.23811e-14
5.11954e-14
7.49132e-14
7.42557e-14
7.76874e-14
6.29709e-14
4.14065e-14
6.42333e-14
8.5746e-14
8.22784e-14
8.80775e-14
8.85697e-14
7.94023e-14
7.11234e-14
8.76483e-14
7.70825e-14
6.21656e-14
5.72717e-14
5.3994e-14
5.65323e-14
7.10931e-14
1.18648e-13
1.59437e-13
1.95033e-13
0.0967969
0.0900787
0.0825214
0.0747801
0.0672602
0.0602546
0.0534242
0.04703
0.0412905
0.0362152
0.0316828
0.027783
0.0244086
0.0215019
0.0188688
0.0164469
0.0142125
0.0120787
0.0100623
0.0081878
0.00651009
0.00505233
0.00386692
0.00306036
0.00276626
0.00298915
0.00350763
0.00414461
0.00481267
0.00546974
0.00609167
0.00665171
0.00716062
0.007655
0.00804581
0.00845361
0.00874581
0.00900336
0.00919438
0.00934366
0.00948014
0.00960174
0.00972645
0.00986008
0.00995298
0.00998556
0.0098887
0.00949798
0.00887237
0.00808195
0.00718279
0.00626051
0.00539688
0.00462186
0.00392574
0.00326982
0.0026207
0.00198649
0.00142596
0.0010247
0.000817167
0.000726658
0.000736707
0.000820157
0.000951609
0.00107477
0.00116329
0.00123353
0.00130687
0.00137468
0.00138999
0.00133069
0.0012211
0.00100665
0.000647468
0.000195939
0.000170132
0.000293977
0.000299897
0.000282419
0.000267236
0.00026665
0.000305166
0.000411983
0.000588529
0.000738054
0.000771636
0.000739121
0.000654359
0.000483929
0.000260119
8.11336e-05
1.05436e-05
3.82409e-07
2.59488e-09
2.31629e-12
4.0942e-14
6.20027e-14
5.494e-14
5.76636e-14
6.34647e-14
4.65386e-14
7.41039e-14
7.6629e-14
7.68357e-14
8.7282e-14
9.78304e-14
7.30729e-14
5.38738e-14
2.97315e-14
6.48787e-14
8.06637e-14
8.88171e-14
9.36095e-14
9.45755e-14
8.47577e-14
7.69252e-14
6.44936e-14
5.30887e-14
5.28306e-14
5.53825e-14
4.35511e-14
4.28868e-14
7.85544e-14
8.29449e-14
7.72608e-14
7.70493e-14
6.71099e-14
8.29845e-14
1.1423e-13
1.06881e-13
9.93315e-14
9.06712e-14
8.53907e-14
6.36994e-14
7.58555e-14
8.03765e-14
7.54924e-14
7.21672e-14
5.548e-14
6.166e-14
7.84587e-14
1.09489e-13
1.57279e-13
2.05134e-13
0.077327
0.0730709
0.0681522
0.0627654
0.057236
0.0516941
0.0464251
0.0413444
0.0364904
0.0320628
0.028098
0.0246853
0.0217109
0.0191144
0.0167823
0.0146648
0.0127052
0.0108865
0.00921225
0.00766037
0.00629259
0.00514118
0.00422932
0.00357568
0.00324051
0.00326732
0.00354058
0.00397562
0.00449171
0.00500034
0.00551135
0.00597977
0.00642881
0.00683367
0.00714576
0.00744941
0.00765704
0.00783328
0.007954
0.00805372
0.00814024
0.00821455
0.00831516
0.00841395
0.00848
0.00850721
0.00845137
0.00818092
0.00769644
0.00704305
0.00627724
0.00550435
0.0047858
0.00413601
0.00353536
0.00294672
0.0023498
0.00176814
0.0012741
0.000947032
0.000793267
0.00073703
0.000769205
0.000870096
0.00100103
0.00110999
0.00118393
0.00124528
0.00131213
0.00136487
0.00136154
0.00129105
0.00116928
0.000934182
0.000558937
0.000119128
0.000208909
0.000302241
0.000302408
0.000284259
0.000269793
0.000273751
0.000319348
0.000435412
0.000614334
0.000747534
0.000766348
0.000730438
0.000635161
0.000455535
0.000232466
6.66407e-05
7.63124e-06
2.33298e-07
1.28257e-09
8.90706e-13
4.72492e-14
3.61124e-14
4.48585e-14
5.92532e-14
5.58099e-14
3.81502e-14
7.60848e-14
7.76742e-14
6.94441e-14
8.09098e-14
8.35046e-14
7.12044e-14
5.72438e-14
4.5169e-14
3.7055e-14
8.05677e-14
9.40688e-14
8.62957e-14
8.27604e-14
7.96048e-14
7.6386e-14
6.54355e-14
5.64059e-14
5.1388e-14
5.79134e-14
4.28907e-14
2.12527e-14
5.21145e-14
6.67794e-14
6.36905e-14
6.56722e-14
6.71742e-14
8.80889e-14
1.17801e-13
1.14974e-13
1.04663e-13
8.81427e-14
8.6587e-14
7.39068e-14
7.70376e-14
7.73166e-14
6.96784e-14
6.29602e-14
5.43994e-14
6.30813e-14
8.02592e-14
1.08838e-13
1.57816e-13
2.01908e-13
0.0625149
0.0594575
0.0562807
0.0525419
0.0485674
0.0442841
0.0400378
0.0360762
0.0322529
0.0285963
0.0252082
0.0222155
0.0195835
0.0172704
0.0151918
0.0133005
0.0115687
0.00998248
0.00854171
0.00729707
0.00618725
0.00525179
0.00449392
0.00393045
0.00359992
0.00350742
0.00363321
0.00392167
0.00427979
0.0046652
0.00506738
0.00545824
0.0058368
0.00616023
0.00641466
0.00662046
0.00675865
0.00685776
0.00692181
0.00697699
0.00704029
0.00711039
0.00718044
0.00725937
0.0073325
0.00737293
0.00734389
0.00711834
0.00669856
0.00611503
0.00546229
0.00481104
0.00421729
0.00367622
0.00315795
0.00262835
0.00208032
0.0015555
0.0011365
0.000887155
0.000777754
0.000759233
0.000813325
0.00092827
0.00105244
0.00114357
0.00120262
0.00125561
0.00131469
0.00134991
0.00132606
0.00124849
0.00110902
0.000850577
0.000460802
4.97533e-05
0.000244106
0.000309419
0.000304576
0.000286398
0.000272815
0.000282221
0.00033629
0.000462425
0.000641314
0.00075553
0.000760643
0.000719541
0.000612472
0.000423249
0.000202889
5.25872e-05
5.18765e-06
1.29968e-07
5.60225e-10
3.19365e-13
5.58314e-14
4.76206e-14
5.5725e-14
5.66565e-14
5.51036e-14
5.59021e-14
7.74171e-14
6.94054e-14
6.98918e-14
7.39737e-14
8.29077e-14
7.35067e-14
5.91315e-14
6.14753e-14
2.6368e-14
6.19976e-14
7.89036e-14
7.82919e-14
6.63476e-14
7.43097e-14
8.10169e-14
7.79504e-14
7.26478e-14
6.42183e-14
5.99205e-14
5.68532e-14
3.67237e-14
4.04566e-14
5.83562e-14
5.77729e-14
6.54666e-14
7.53243e-14
1.00639e-13
1.16655e-13
1.25775e-13
1.17604e-13
9.72451e-14
8.47466e-14
9.05642e-14
8.92355e-14
8.12848e-14
7.22209e-14
5.47618e-14
5.3509e-14
6.67669e-14
7.84094e-14
1.01089e-13
1.50844e-13
2.08873e-13
0.0504484
0.0483777
0.04622
0.043761
0.0409677
0.0378284
0.0345139
0.0312053
0.028132
0.025282
0.0225079
0.0199518
0.0176507
0.0156054
0.0137648
0.012094
0.0105834
0.00923276
0.00803331
0.00698118
0.00608153
0.00529771
0.00464906
0.00415216
0.00380428
0.00362272
0.00362066
0.00378058
0.00402263
0.00432144
0.00464805
0.00497673
0.00527922
0.00552753
0.00571942
0.00585514
0.00594548
0.00600517
0.00605379
0.0061084
0.00616602
0.0062327
0.00631665
0.00640566
0.00647293
0.00650341
0.00644757
0.00619436
0.0057887
0.00526496
0.00468793
0.00415282
0.00367952
0.00323855
0.00279184
0.00231323
0.00181345
0.00135344
0.00101915
0.000846198
0.000777551
0.000790939
0.000870624
0.000993077
0.00110288
0.00117335
0.00121819
0.00126365
0.00131212
0.0013281
0.00128493
0.00119979
0.00103832
0.000754214
0.000353393
6.54092e-05
0.000274391
0.000315385
0.000306322
0.00028855
0.000276884
0.00029232
0.0003567
0.000493567
0.000668371
0.000761582
0.000754339
0.000705716
0.000585523
0.000386681
0.000171841
3.94791e-05
3.26608e-06
6.48984e-08
2.11275e-10
1.13945e-13
6.33382e-14
7.07496e-14
6.99612e-14
7.51359e-14
6.28193e-14
5.68599e-14
7.21943e-14
7.47482e-14
7.86695e-14
7.79591e-14
8.02254e-14
6.11847e-14
6.11959e-14
5.06529e-14
5.15287e-14
6.94268e-14
9.00358e-14
8.68762e-14
7.89741e-14
8.87114e-14
8.86389e-14
9.10567e-14
8.44445e-14
8.93237e-14
8.61523e-14
8.3566e-14
6.67375e-14
7.27989e-14
7.42974e-14
7.64078e-14
7.52782e-14
9.48183e-14
1.11481e-13
1.22312e-13
1.28908e-13
1.20083e-13
1.07626e-13
9.81753e-14
1.00426e-13
9.56252e-14
8.80788e-14
8.01668e-14
6.66029e-14
6.64408e-14
7.84223e-14
8.41185e-14
1.0732e-13
1.5794e-13
2.16293e-13
0.0400736
0.0389739
0.0376822
0.0361101
0.0342492
0.0320687
0.0296486
0.0270779
0.0244955
0.0220333
0.0198004
0.0177152
0.0157217
0.0139076
0.0122822
0.010827
0.00953053
0.00838555
0.00738093
0.00650319
0.0057385
0.00507594
0.00451918
0.00406952
0.00375228
0.00354231
0.00345517
0.00349458
0.00362745
0.00383209
0.00408144
0.00434391
0.00458466
0.00478589
0.00494392
0.0050641
0.00515766
0.00523055
0.00529952
0.00536699
0.00544724
0.00553715
0.00561794
0.00568054
0.00570773
0.0056942
0.00558921
0.00532908
0.00493409
0.00444731
0.00396918
0.00356304
0.00320062
0.0028405
0.00244553
0.00200594
0.00155634
0.00117344
0.000930997
0.000821869
0.00079643
0.00083764
0.000940433
0.00106113
0.00114917
0.00119782
0.00123016
0.00126846
0.00130247
0.00129819
0.00123927
0.00114177
0.000954541
0.000643367
0.000238539
0.000136749
0.000298765
0.000320356
0.000307668
0.000290698
0.000282284
0.000304733
0.000381473
0.000529261
0.000694693
0.000764714
0.000746745
0.000688522
0.000553312
0.000345595
0.000140076
2.78416e-05
1.87087e-06
2.83796e-08
6.68478e-11
8.15513e-14
8.27828e-14
7.86685e-14
8.04036e-14
8.68733e-14
7.34198e-14
5.51316e-14
5.9006e-14
6.61839e-14
7.50741e-14
7.84468e-14
6.81925e-14
5.77849e-14
6.61734e-14
6.0943e-14
7.01967e-14
6.75317e-14
7.57055e-14
7.35024e-14
7.50794e-14
8.14521e-14
8.56796e-14
8.09066e-14
7.22046e-14
8.72695e-14
9.53729e-14
9.7006e-14
8.98362e-14
8.76829e-14
8.08915e-14
8.82494e-14
8.89591e-14
9.82263e-14
1.05233e-13
1.18257e-13
1.23477e-13
1.21776e-13
1.18694e-13
1.12574e-13
1.15474e-13
1.09129e-13
9.85836e-14
8.9881e-14
7.85831e-14
7.60465e-14
8.26938e-14
9.43083e-14
1.08938e-13
1.60251e-13
2.19315e-13
0.031892
0.0311614
0.0303188
0.0294669
0.02831
0.0268896
0.0252189
0.0233306
0.0213308
0.0193261
0.01738
0.0155871
0.0139414
0.0123622
0.0109231
0.00963824
0.00850559
0.00751656
0.00665478
0.0059054
0.00525363
0.00469351
0.00422388
0.00383856
0.00353159
0.00332206
0.00319605
0.00313417
0.00315094
0.00323991
0.00338342
0.00355994
0.00373271
0.00390537
0.00407118
0.00422404
0.00436216
0.00447742
0.00458065
0.00466842
0.00473712
0.00480611
0.00486312
0.004904
0.00491535
0.00488893
0.00476355
0.00447024
0.00408288
0.00368599
0.00334307
0.00305851
0.00277827
0.00246922
0.00210689
0.00170416
0.00131743
0.00102993
0.000875151
0.000818424
0.000830581
0.00090401
0.00102042
0.00112698
0.00118728
0.00121538
0.00123769
0.00126777
0.00128377
0.0012586
0.00118874
0.00107172
0.000854012
0.000516992
0.000122128
0.00020589
0.000317014
0.000324542
0.000308656
0.000292809
0.000289356
0.000320467
0.000411619
0.000569414
0.000718879
0.000764269
0.000737589
0.000666718
0.000514622
0.000300104
0.000108688
1.81421e-05
9.53236e-07
1.05559e-08
1.71516e-11
8.80832e-14
1.02874e-13
9.91001e-14
9.53281e-14
9.04846e-14
7.19547e-14
5.77724e-14
5.55935e-14
7.69075e-14
9.16907e-14
8.90074e-14
7.98896e-14
6.86907e-14
7.26482e-14
7.33128e-14
8.01409e-14
7.88641e-14
5.48249e-14
6.07093e-14
7.63868e-14
6.5787e-14
8.14809e-14
7.9302e-14
7.56809e-14
9.17955e-14
9.57692e-14
9.95285e-14
1.10949e-13
9.5377e-14
1.02637e-13