/*--------------------------------*- C++ -*----------------------------------*\
| =========                 |                                                 |
| \\      /  F ield         | OpenFOAM: The Open Source CFD Toolbox           |
|  \\    /   O peration     | Version:  2406                                  |
|   \\  /    A nd           | Website:  www.openfoam.com                      |
|    \\/     M anipulation  |                                                 |
\*---------------------------------------------------------------------------*/
FoamFile
{
    version     2.0;
    format      ascii;
    arch        "LSB;label=32;scalar=64";
    class       volScalarField;
    location    "0.09";
    object      p;
}
// * * * * * * * * * * * * * * * * * * * * * * * * * * * * * * * * * * * * * //

dimensions      [1 -1 -2 0 0 0 0];

internalField   nonuniform List<scalar> 
13948
(
99133.1
102305
102736
102813
102835
102814
102786
102754
102732
102729
102744
102784
102847
102923
102990
103029
103039
103026
102998
102956
102910
102866
102826
102785
102744
102715
102703
102708
102735
102795
102874
102932
102947
102948
102946
102945
102948
102958
102982
103018
103045
103052
103050
103037
103009
102975
102953
102947
102946
102946
102946
102946
102946
102946
102946
102946
102946
102946
102946
102946
102946
102946
102946
102946
102946
102946
102946
102946
102946
102946
102946
102946
102946
102946
102946
102946
102946
102946
102946
102946
102946
102946
102946
102946
102946
102946
102946
102946
102946
102946
102946
102946
102946
102946
102946
102946
102946
102946
102946
103801
101903
102525
102771
102805
102824
102808
102786
102758
102738
102735
102751
102790
102851
102923
102986
103023
103032
103019
102991
102950
102905
102863
102824
102784
102746
102718
102707
102712
102740
102798
102876
102933
102948
102949
102947
102946
102949
102960
102984
103018
103045
103051
103049
103036
103008
102974
102953
102947
102946
102946
102946
102946
102946
102946
102946
102946
102946
102946
102946
102946
102946
102946
102946
102946
102946
102946
102946
102946
102946
102946
102946
102946
102946
102946
102946
102946
102946
102946
102946
102946
102946
102946
102946
102946
102946
102946
102946
102946
102946
102946
102946
102946
102946
102946
102946
102946
102946
102946
102946
103481
103483
103363
103340
103320
103219
103146
103078
102926
103350
101947
102554
102736
102807
102824
102807
102784
102759
102741
102739
102755
102794
102855
102925
102985
103020
103028
103013
102985
102945
102901
102860
102822
102783
102746
102720
102710
102715
102743
102802
102879
102934
102948
102949
102948
102947
102950
102961
102984
103019
103045
103051
103048
103035
103007
102974
102952
102947
102946
102946
102946
102946
102946
102946
102946
102946
102946
102946
102946
102946
102946
102946
102946
102946
102946
102946
102946
102946
102946
102946
102946
102946
102946
102946
102946
102946
102946
102946
102946
102946
102946
102946
102946
102946
102946
102946
102946
102946
102946
102946
102946
102946
102946
102946
102946
102946
102946
102946
102946
106341
108612
109970
110731
111046
111006
110680
110119
109531
108916
108140
107390
106662
105940
105167
104336
103517
102813
102277
101746
101282
101150
101234
101271
101428
101622
101874
102111
102388
102622
102795
103055
103251
103398
103488
103410
103347
103265
103187
103150
103242
103035
103208
102597
102754
102740
102781
102808
102803
102783
102760
102745
102744
102761
102800
102859
102927
102985
103016
103023
103008
102980
102940
102897
102857
102820
102782
102746
102722
102712
102719
102747
102806
102882
102935
102948
102950
102948
102948
102951
102962
102986
103020
103045
103050
103048
103034
103006
102973
102952
102946
102946
102946
102946
102946
102946
102946
102946
102946
102946
102946
102946
102946
102946
102946
102946
102946
102946
102946
102946
102946
102946
102946
102946
102946
102946
102946
102946
102946
102946
102946
102946
102946
102946
102946
102946
102946
102946
102946
102946
102946
102946
102946
102946
102946
102946
102946
102946
102946
102946
102946
102946
97083.8
101758
105216
107581
108990
109750
110076
110147
109929
109471
108909
108312
107665
107015
106393
105781
105154
104458
103731
103061
102556
102136
101734
101480
101419
101403
101495
101640
101848
102099
102372
102626
102856
103075
103200
103266
103321
103306
103320
103324
103368
103273
103271
103129
103089
102724
102729
102732
102776
102798
102797
102780
102760
102748
102748
102766
102805
102864
102930
102985
103013
103018
103002
102974
102934
102892
102853
102817
102780
102746
102724
102715
102722
102751
102810
102885
102936
102949
102950
102949
102949
102952
102963
102987
103021
103044
103049
103047
103032
103004
102972
102952
102946
102946
102946
102946
102946
102946
102946
102946
102946
102946
102946
102946
102946
102946
102946
102946
102946
102946
102946
102946
102946
102946
102946
102946
102946
102946
102946
102946
102946
102946
102946
102946
102946
102946
102946
102946
102946
102946
102946
102946
102946
102946
102946
102946
102946
102946
102946
102946
102946
102946
102946
102946
89236.6
95663
100618
104011
106172
107540
108389
108873
109035
108933
108677
108301
107821
107269
106646
106037
105441
104842
104233
103608
103028
102566
102184
101899
101682
101571
101526
101560
101648
101812
102038
102297
102573
102837
103068
103181
103225
103271
103297
103344
103322
103313
103232
103225
103122
103031
102794
102769
102755
102774
102788
102791
102777
102761
102752
102753
102772
102812
102870
102934
102986
103010
103013
102996
102967
102928
102886
102849
102814
102779
102745
102725
102717
102725
102756
102815
102888
102938
102949
102951
102949
102949
102953
102964
102989
103022
103044
103049
103046
103031
103003
102971
102951
102946
102946
102946
102946
102946
102946
102946
102946
102946
102946
102946
102946
102946
102946
102946
102946
102946
102946
102946
102946
102946
102946
102946
102946
102946
102946
102946
102946
102946
102946
102946
102946
102946
102946
102946
102946
102946
102946
102946
102946
102946
102946
102946
102946
102946
102946
102946
102946
102946
102946
102946
102946
88947
94830.9
99274.9
102519
104741
106221
107133
107614
107810
107833
107699
107460
107128
106722
106258
105726
105194
104666
104134
103615
103118
102677
102299
102001
101773
101646
101618
101677
101776
101916
102103
102323
102575
102826
103042
103179
103238
103260
103249
103241
103204
103184
103130
103075
103008
102949
102807
102773
102756
102769
102781
102784
102773
102761
102754
102758
102778
102819
102877
102938
102986
103007
103008
102989
102960
102921
102881
102845
102811
102776
102745
102727
102720
102729
102761
102820
102892
102939
102950
102951
102950
102950
102954
102966
102990
103023
103044
103049
103045
103030
103001
102970
102951
102946
102946
102946
102946
102946
102946
102946
102946
102946
102946
102946
102946
102946
102946
102946
102946
102946
102946
102946
102946
102946
102946
102946
102946
102946
102946
102946
102946
102946
102946
102946
102946
102946
102946
102946
102946
102946
102946
102946
102946
102946
102946
102946
102946
102946
102946
102946
102946
102946
102946
102946
102946
88725
94247
98330.7
101329
103415
104820
105772
106383
106708
106800
106731
106586
106383
106096
105776
105393
104951
104495
104050
103611
103194
102810
102478
102219
102021
101873
101775
101746
101770
101843
101965
102125
102324
102540
102746
102911
103018
103074
103089
103088
103061
103021
102978
102945
102914
102886
102809
102780
102764
102768
102776
102778
102770
102762
102758
102764
102785
102827
102884
102943
102987
103004
103002
102982
102952
102914
102875
102840
102807
102774
102744
102728
102723
102733
102766
102826
102897
102941
102951
102952
102950
102951
102955
102967
102993
103025
103044
103048
103044
103028
102999
102968
102951
102946
102946
102946
102946
102946
102946
102946
102946
102946
102946
102946
102946
102946
102946
102946
102946
102946
102946
102946
102946
102946
102946
102946
102946
102946
102946
102946
102946
102946
102946
102946
102946
102946
102946
102946
102946
102946
102946
102946
102946
102946
102946
102946
102946
102946
102946
102946
102946
102946
102946
102946
102946
88575.4
93394.7
97056.2
99783.8
101845
103387
104476
105181
105592
105803
105863
105810
105680
105467
105210
104930
104609
104262
103931
103596
103275
102969
102680
102419
102201
102056
101961
101902
101877
101892
101951
102050
102188
102354
102529
102688
102813
102896
102923
102915
102897
102881
102866
102860
102857
102852
102805
102778
102763
102764
102770
102772
102768
102763
102761
102769
102793
102836
102892
102948
102987
103000
102996
102975
102944
102906
102868
102835
102803
102771
102743
102729
102725
102737
102772
102833
102902
102943
102951
102952
102951
102952
102956
102969
102995
103027
103044
103048
103043
103026
102997
102967
102950
102946
102946
102946
102946
102946
102946
102946
102946
102946
102946
102946
102946
102946
102946
102946
102946
102946
102946
102946
102946
102946
102946
102946
102946
102946
102946
102946
102946
102946
102946
102946
102946
102946
102946
102946
102946
102946
102946
102946
102946
102946
102946
102946
102946
102946
102946
102946
102946
102946
102946
102946
102946
89278.8
93180
96347.2
98811.7
100719
102177
103256
104017
104536
104859
105021
105064
105034
104922
104727
104489
104232
103961
103693
103431
103186
102958
102742
102536
102354
102208
102098
102028
101985
101975
102005
102070
102173
102301
102435
102554
102647
102708
102748
102765
102773
102782
102794
102808
102820
102823
102792
102771
102761
102761
102766
102768
102767
102765
102765
102776
102802
102845
102900
102953
102986
102997
102989
102967
102935
102897
102861
102829
102799
102768
102742
102730
102728
102742
102779
102841
102907
102945
102952
102953
102952
102953
102958
102971
102997
103029
103044
103047
103042
103024
102995
102965
102950
102946
102946
102946
102946
102946
102946
102946
102946
102946
102946
102946
102946
102946
102946
102946
102946
102946
102946
102946
102946
102946
102946
102946
102946
102946
102946
102946
102946
102946
102946
102946
102946
102946
102946
102946
102946
102946
102946
102946
102946
102946
102946
102946
102946
102946
102946
102946
102946
102946
102946
102946
102946
90068.2
93095.6
95699.3
97836.9
99588.4
100979
102073
102918
103541
103974
104251
104391
104428
104392
104281
104111
103910
103696
103484
103276
103081
102898
102731
102575
102434
102321
102236
102183
102148
102141
102161
102203
102265
102339
102418
102492
102553
102598
102632
102661
102689
102719
102750
102774
102791
102796
102778
102764
102756
102756
102760
102765
102766
102767
102770
102784
102811
102856
102909
102958
102985
102992
102981
102958
102925
102888
102853
102823
102794
102765
102742
102731
102732
102747
102786
102849
102913
102947
102952
102953
102952
102954
102959
102974
103000
103031
103044
103047
103041
103022
102992
102963
102949
102946
102946
102946
102946
102946
102946
102946
102946
102946
102946
102946
102946
102946
102946
102946
102946
102946
102946
102946
102946
102946
102946
102946
102946
102946
102946
102946
102946
102946
102946
102946
102946
102946
102946
102946
102946
102946
102946
102946
102946
102946
102946
102946
102946
102946
102946
102946
102946
102946
102946
102946
102946
91415.6
93555.8
95544.9
97314.3
98849.3
100142
101202
102056
102718
103208
103552
103772
103889
103925
103888
103786
103644
103486
103325
103167
103015
102867
102729
102602
102489
102397
102330
102290
102269
102272
102291
102324
102364
102407
102448
102486
102520
102551
102582
102617
102654
102691
102726
102752
102769
102776
102767
102758
102752
102751
102756
102763
102768
102771
102777
102793
102822
102867
102918
102962
102984
102987
102973
102948
102914
102878
102845
102817
102789
102762
102742
102733
102735
102753
102795
102858
102919
102948
102953
102954
102953
102955
102961
102976
103004
103033
103044
103046
103039
103020
102989
102962
102948
102946
102946
102946
102946
102946
102946
102946
102946
102946
102946
102946
102946
102946
102946
102946
102946
102946
102946
102946
102946
102946
102946
102946
102946
102946
102946
102946
102946
102946
102946
102946
102946
102946
102946
102946
102946
102946
102946
102946
102946
102946
102946
102946
102946
102946
102946
102946
102946
102946
102946
102946
102946
92835.1
94264.5
95702.2
97057.5
98304.6
99442.7
100445
101292
101985
102529
102940
103231
103413
103503
103523
103493
103419
103318
103204
103089
102974
102855
102739
102629
102533
102454
102397
102361
102343
102344
102358
102386
102417
102450
102478
102500
102524
102549
102579
102614
102652
102688
102720
102744
102760
102768
102762
102752
102745
102744
102751
102761
102770
102776
102784
102802
102834
102879
102928
102965
102981
102980
102963
102937
102902
102867
102837
102811
102784
102759
102742
102735
102740
102760
102804
102868
102925
102950
102954
102954
102954
102956
102963
102979
103007
103035
103045
103045
103037
103017
102986
102960
102948
102946
102946
102946
102946
102946
102946
102946
102946
102946
102946
102946
102946
102946
102946
102946
102946
102946
102946
102946
102946
102946
102946
102946
102946
102946
102946
102946
102946
102946
102946
102946
102946
102946
102946
102946
102946
102946
102946
102946
102946
102946
102946
102946
102946
102946
102946
102946
102946
102946
102946
102946
102946
94162
95087.2
96107.1
97123.3
98113.9
99050.7
99933.7
100731
101417
101975
102413
102744
102979
103129
103204
103224
103206
103161
103093
103013
102928
102836
102741
102650
102569
102503
102454
102422
102405
102402
102409
102427
102449
102473
102496
102514
102536
102561
102591
102627
102664
102699
102728
102748
102760
102764
102756
102742
102734
102736
102749
102764
102775
102783
102793
102813
102846
102891
102936
102967
102978
102972
102953
102924
102890
102856
102829
102804
102779
102756
102742
102738
102744
102768
102815
102879
102931
102952
102955
102955
102954
102957
102965
102983
103011
103037
103045
103045
103035
103013
102983
102958
102948
102946
102946
102946
102946
102946
102946
102946
102946
102946
102946
102946
102946
102946
102946
102946
102946
102946
102946
102946
102946
102946
102946
102946
102946
102946
102946
102946
102946
102946
102946
102946
102946
102946
102946
102946
102946
102946
102946
102946
102946
102946
102946
102946
102946
102946
102946
102946
102946
102946
102946
102946
102946
95425.3
96007
96691
97435.2
98202.5
98958.6
99675.6
100353
100970
101503
101946
102299
102570
102765
102892
102964
102995
102998
102976
102929
102869
102800
102728
102659
102597
102544
102503
102475
102458
102453
102452
102461
102471
102485
102503
102522
102547
102576
102610
102647
102683
102714
102737
102751
102755
102753
102740
102726
102721
102730
102749
102768
102781
102791
102803
102825
102860
102904
102944
102968
102973
102961
102941
102910
102876
102845
102820
102797
102774
102754
102743
102741
102750
102777
102827
102890
102937
102953
102955
102955
102955
102959
102967
102987
103015
103039
103045
103044
103033
103009
102979
102955
102947
102946
102946
102946
102946
102946
102946
102946
102946
102946
102946
102946
102946
102946
102946
102946
102946
102946
102946
102946
102946
102946
102946
102946
102946
102946
102946
102946
102946
102946
102946
102946
102946
102946
102946
102946
102946
102946
102946
102946
102946
102946
102946
102946
102946
102946
102946
102946
102946
102946
102946
102946
102946
96641.9
96998.8
97421
97925.7
98477.3
99064.9
99644.9
100194
100705
101172
101583
101926
102205
102425
102590
102708
102784
102824
102837
102825
102791
102747
102699
102653
102611
102573
102540
102515
102496
102487
102482
102483
102487
102497
102513
102534
102562
102596
102631
102667
102697
102719
102733
102737
102734
102727
102714
102706
102711
102730
102756
102778
102791
102801
102814
102838
102874
102916
102950
102966
102965
102950
102927
102894
102862
102834
102812
102791
102769
102752
102744
102744
102757
102788
102841
102902
102943
102954
102956
102956
102957
102960
102970
102991
103020
103040
103045
103043
103030
103005
102975
102953
102947
102946
102946
102946
102946
102946
102946
102946
102946
102946
102946
102946
102946
102946
102946
102946
102946
102946
102946
102946
102946
102946
102946
102946
102946
102946
102946
102946
102946
102946
102946
102946
102946
102946
102946
102946
102946
102946
102946
102946
102946
102946
102946
102946
102946
102946
102946
102946
102946
102946
102946
102946
102946
97834
97986.7
98219.9
98522.7
98888.1
99305.9
99754.1
100198
100615
101000
101352
101668
101939
102164
102345
102486
102590
102659
102698
102711
102705
102687
102663
102640
102617
102596
102576
102554
102536
102523
102515
102511
102513
102522
102538
102561
102590
102621
102650
102675
102693
102704
102707
102705
102700
102694
102689
102693
102711
102740
102770
102791
102802
102811
102825
102852
102889
102927
102954
102962
102954
102937
102910
102877
102847
102823
102803
102784
102765
102752
102746
102749
102765
102801
102856
102914
102948
102956
102957
102957
102958
102962
102974
102996
103025
103042
103045
103041
103027
103000
102970
102952
102946
102946
102946
102946
102946
102946
102946
102946
102946
102946
102946
102946
102946
102946
102946
102946
102946
102946
102946
102946
102946
102946
102946
102946
102946
102946
102946
102946
102946
102946
102946
102946
102946
102946
102946
102946
102946
102946
102946
102946
102946
102946
102946
102946
102946
102946
102946
102946
102946
102946
102946
102946
102946
98960.6
98953
99025.1
99170.9
99379
99646.4
99960.2
100301
100643
100966
101262
101536
101786
102005
102189
102338
102453
102537
102594
102628
102643
102646
102643
102638
102632
102623
102614
102602
102590
102581
102574
102572
102574
102582
102594
102610
102629
102648
102664
102676
102683
102684
102681
102678
102676
102676
102680
102697
102726
102762
102790
102805
102812
102821
102838
102867
102904
102937
102954
102954
102942
102921
102891
102859
102833
102813
102795
102778
102761
102752
102749
102755
102775
102816
102872
102926
102952
102957
102958
102957
102959
102964
102978
103002
103030
103042
103045
103039
103023
102994
102966
102950
102946
102946
102946
102946
102946
102946
102946
102946
102946
102946
102946
102946
102946
102946
102946
102946
102946
102946
102946
102946
102946
102946
102946
102946
102946
102946
102946
102946
102946
102946
102946
102946
102946
102946
102946
102946
102946
102946
102946
102946
102946
102946
102946
102946
102946
102946
102946
102946
102946
102946
102946
102946
102946
99935.3
99834.3
99804.2
99830.7
99914.5
100059
100254
100491
100749
101012
101266
101501
101719
101921
102097
102246
102365
102457
102526
102574
102607
102627
102639
102644
102647
102650
102653
102656
102658
102659
102662
102665
102669
102671
102673
102675
102678
102681
102683
102684
102683
102680
102678
102677
102679
102683
102695
102724
102759
102791
102809
102816
102821
102831
102852
102884
102918
102942
102949
102942
102926
102901
102870
102841
102820
102803
102788
102772
102759
102752
102752
102762
102788
102833
102890
102936
102955
102958
102959
102958
102961
102967
102983
103009
103034
103043
103044
103037
103017
102988
102961
102949
102946
102946
102946
102946
102946
102946
102946
102946
102946
102946
102946
102946
102946
102946
102946
102946
102946
102946
102946
102946
102946
102946
102946
102946
102946
102946
102946
102946
102946
102946
102946
102946
102946
102946
102946
102946
102946
102946
102946
102946
102946
102946
102946
102946
102946
102946
102946
102946
102946
102946
102946
102946
102946
100706
100571
100482
100444
100448
100496
100598
100744
100922
101119
101321
101518
101703
101874
102033
102174
102292
102389
102466
102525
102571
102604
102628
102643
102655
102664
102675
102686
102699
102710
102720
102728
102734
102736
102735
102732
102727
102722
102717
102712
102707
102704
102703
102705
102711
102718
102736
102767
102796
102813
102820
102823
102829
102844
102870
102901
102928
102941
102939
102927
102907
102879
102849
102824
102808
102794
102781
102767
102758
102754
102757
102772
102803
102853
102908
102945
102957
102960
102960
102960
102963
102971
102989
103016
103038
103044
103043
103033
103011
102981
102957
102948
102946
102946
102946
102946
102946
102946
102946
102946
102946
102946
102946
102946
102946
102946
102946
102946
102946
102946
102946
102946
102946
102946
102946
102946
102946
102946
102946
102946
102946
102946
102946
102946
102946
102946
102946
102946
102946
102946
102946
102946
102946
102946
102946
102946
102946
102946
102946
102946
102946
102946
102946
102946
102946
101286
101144
101034
100955
100917
100911
100939
101012
101123
101258
101407
101561
101713
101855
101988
102112
102224
102320
102401
102468
102521
102564
102597
102623
102643
102660
102675
102691
102706
102720
102732
102741
102748
102753
102757
102758
102757
102754
102750
102747
102744
102742
102744
102748
102755
102763
102780
102803
102817
102823
102825
102829
102841
102862
102889
102915
102931
102933
102924
102908
102883
102854
102827
102809
102797
102786
102775
102764
102758
102758
102765
102785
102822
102874
102925
102952
102959
102961
102960
102961
102965
102976
102996
103023
103041
103045
103042
103029
103004
102974
102954
102947
102946
102946
102946
102946
102946
102946
102946
102946
102946
102946
102946
102946
102946
102946
102946
102946
102946
102946
102946
102946
102946
102946
102946
102946
102946
102946
102946
102946
102946
102946
102946
102946
102946
102946
102946
102946
102946
102946
102946
102946
102946
102946
102946
102946
102946
102946
102946
102946
102946
102946
102946
102946
102946
101713
101581
101468
101375
101307
101268
101257
101273
101324
101407
101509
101622
101739
101857
101969
102074
102173
102264
102346
102416
102475
102524
102565
102599
102628
102652
102672
102689
102705
102719
102731
102740
102747
102753
102758
102763
102766
102767
102766
102766
102766
102768
102772
102778
102786
102795
102807
102819
102824
102827
102831
102842
102859
102883
102905
102920
102925
102918
102905
102883
102855
102828
102808
102797
102788
102780
102771
102763
102760
102763
102775
102802
102845
102897
102939
102958
102961
102962
102961
102963
102968
102982
103005
103031
103043
103045
103039
103023
102995
102967
102951
102946
102946
102946
102946
102946
102946
102946
102946
102946
102946
102946
102946
102946
102946
102946
102946
102946
102946
102946
102946
102946
102946
102946
102946
102946
102946
102946
102946
102946
102946
102946
102946
102946
102946
102946
102946
102946
102946
102946
102946
102946
102946
102946
102946
102946
102946
102946
102946
102946
102946
102946
102946
102946
102946
102011
101900
101799
101709
101634
101576
101539
101525
101531
101565
101627
101703
101787
101878
101972
102065
102153
102237
102316
102387
102450
102505
102551
102591
102625
102655
102679
102699
102715
102728
102738
102746
102753
102759
102764
102769
102772
102775
102777
102779
102783
102787
102794
102801
102808
102815
102822
102828
102831
102836
102847
102863
102881
102898
102910
102914
102909
102897
102878
102853
102826
102805
102794
102787
102781
102774
102768
102764
102764
102771
102790
102824
102871
102920
102951
102961
102963
102963
102962
102965
102973
102989
103014
103037
103044
103044
103035
103015
102986
102960
102948
102946
102946
102946
102946
102946
102946
102946
102946
102946
102946
102946
102946
102946
102946
102946
102946
102946
102946
102946
102946
102946
102946
102946
102946
102946
102946
102946
102946
102946
102946
102946
102946
102946
102946
102946
102946
102946
102946
102946
102946
102946
102946
102946
102946
102946
102946
102946
102946
102946
102946
102946
102946
102946
102946
102205
102115
102031
101954
101886
101828
101782
101752
101738
101740
101765
101812
101869
101934
102005
102081
102158
102235
102310
102380
102446
102505
102556
102601
102639
102671
102699
102721
102740
102754
102766
102775
102782
102787
102791
102795
102798
102801
102804
102808
102813
102819
102825
102830
102834
102838
102840
102842
102848
102857
102868
102880
102892
102899
102900
102896
102886
102869
102846
102820
102798
102788
102783
102780
102776
102771
102768
102767
102771
102784
102810
102851
102899
102939
102959
102963
102964
102963
102964
102968
102979
102999
103025
103042
103045
103042
103030
103005
102975
102954
102947
102946
102946
102946
102946
102946
102946
102946
102946
102946
102946
102946
102946
102946
102946
102946
102946
102946
102946
102946
102946
102946
102946
102946
102946
102946
102946
102946
102946
102946
102946
102946
102946
102946
102946
102946
102946
102946
102946
102946
102946
102946
102946
102946
102946
102946
102946
102946
102946
102946
102946
102946
102946
102946
102946
102342
102265
102193
102127
102068
102016
101973
101939
101917
101908
101911
101933
101972
102018
102070
102128
102190
102254
102319
102385
102448
102507
102561
102609
102652
102688
102718
102744
102765
102782
102796
102807
102816
102822
102827
102831
102834
102838
102841
102845
102849
102852
102854
102855
102856
102856
102856
102857
102863
102871
102878
102883
102885
102884
102879
102869
102854
102832
102809
102789
102781
102777
102777
102776
102773
102771
102770
102773
102783
102804
102837
102881
102925
102954
102963
102965
102965
102964
102967
102973
102987
103010
103034
103044
103045
103039
103021
102993
102966
102950
102946
102946
102946
102946
102946
102946
102946
102946
102946
102946
102946
102946
102946
102946
102946
102946
102946
102946
102946
102946
102946
102946
102946
102946
102946
102946
102946
102946
102946
102946
102946
102946
102946
102946
102946
102946
102946
102946
102946
102946
102946
102946
102946
102946
102946
102946
102946
102946
102946
102946
102946
102946
102946
102946
102946
102475
102404
102337
102275
102218
102169
102126
102091
102064
102048
102042
102047
102067
102099
102138
102183
102231
102281
102334
102387
102441
102494
102546
102593
102636
102673
102706
102733
102755
102775
102791
102804
102815
102824
102832
102838
102844
102848
102852
102855
102857
102859
102859
102859
102859
102858
102858
102860
102864
102866
102866
102865
102863
102857
102847
102832
102813
102793
102777
102771
102770
102772
102774
102774
102774
102773
102776
102784
102801
102830
102869
102913
102947
102963
102966
102967
102966
102966
102970
102979
102998
103023
103042
103046
103044
103032
103009
102980
102957
102948
102946
102946
102946
102946
102946
102946
102946
102946
102946
102946
102946
102946
102946
102946
102946
102946
102946
102946
102946
102946
102946
102946
102946
102946
102946
102946
102946
102946
102946
102946
102946
102946
102946
102946
102946
102946
102946
102946
102946
102946
102946
102946
102946
102946
102946
102946
102946
102946
102946
102946
102946
102946
102946
102946
102946
102641
102574
102509
102447
102388
102334
102286
102244
102209
102182
102163
102155
102157
102169
102191
102222
102257
102295
102335
102375
102415
102456
102498
102539
102578
102615
102648
102677
102703
102726
102745
102762
102776
102788
102798
102806
102813
102819
102823
102827
102829
102830
102831
102831
102831
102832
102834
102837
102839
102840
102838
102834
102827
102816
102803
102788
102773
102764
102762
102762
102766
102771
102774
102775
102777
102780
102788
102803
102828
102863
102904
102940
102961
102968
102969
102968
102967
102969
102975
102989
103012
103036
103045
103046
103040
103022
102995
102967
102951
102946
102946
102946
102946
102946
102946
102946
102946
102946
102946
102946
102946
102946
102946
102946
102946
102946
102946
102946
102946
102946
102946
102946
102946
102946
102946
102946
102946
102946
102946
102946
102946
102946
102946
102946
102946
102946
102946
102946
102946
102946
102946
102946
102946
102946
102946
102946
102946
102946
102946
102946
102946
102946
102946
102946
102946
102834
102777
102718
102658
102599
102541
102486
102435
102388
102348
102313
102286
102267
102259
102259
102268
102284
102306
102331
102359
102390
102420
102448
102475
102501
102528
102556
102583
102608
102632
102654
102674
102691
102706
102720
102732
102742
102750
102757
102763
102768
102773
102776
102780
102783
102786
102791
102795
102797
102795
102792
102786
102779
102769
102760
102753
102751
102751
102754
102761
102768
102774
102778
102781
102785
102794
102809
102832
102864
102902
102937
102961
102969
102971
102970
102968
102969
102973
102984
103003
103028
103044
103047
103044
103032
103008
102979
102957
102948
102946
102946
102946
102946
102946
102946
102946
102946
102946
102946
102946
102946
102946
102946
102946
102946
102946
102946
102946
102946
102946
102946
102946
102946
102946
102946
102946
102946
102946
102946
102946
102946
102946
102946
102946
102946
102946
102946
102946
102946
102946
102946
102946
102946
102946
102946
102946
102946
102946
102946
102946
102946
102946
102946
102946
102946
103009
102967
102923
102876
102826
102774
102722
102668
102616
102566
102518
102475
102437
102405
102381
102364
102356
102356
102362
102373
102387
102403
102421
102440
102461
102481
102500
102518
102535
102551
102567
102582
102597
102611
102624
102637
102649
102660
102670
102680
102689
102697
102705
102712
102718
102724
102731
102737
102740
102741
102740
102738
102738
102738
102738
102739
102742
102749
102758
102768
102775
102781
102787
102793
102802
102817
102840
102870
102905
102938
102962
102971
102973
102971
102970
102970
102973
102981
102997
103021
103041
103047
103046
103038
103018
102990
102964
102950
102946
102946
102946
102946
102946
102946
102946
102946
102946
102946
102946
102946
102946
102946
102946
102946
102946
102946
102946
102946
102946
102946
102946
102946
102946
102946
102946
102946
102946
102946
102946
102946
102946
102946
102946
102946
102946
102946
102946
102946
102946
102946
102946
102946
102946
102946
102946
102946
102946
102946
102946
102946
102946
102946
102946
102946
102946
103116
103088
103059
103029
102997
102962
102925
102885
102843
102798
102753
102707
102662
102618
102578
102542
102511
102486
102468
102456
102449
102448
102451
102457
102465
102474
102485
102497
102509
102522
102535
102548
102561
102573
102585
102596
102606
102616
102626
102635
102644
102652
102660
102667
102674
102679
102687
102695
102702
102708
102713
102717
102720
102724
102730
102739
102749
102760
102771
102781
102788
102795
102803
102814
102830
102853
102882
102914
102944
102965
102973
102975
102973
102971
102971
102973