/*--------------------------------*- C++ -*----------------------------------*\
| =========                 |                                                 |
| \\      /  F ield         | OpenFOAM: The Open Source CFD Toolbox           |
|  \\    /   O peration     | Version:  2406                                  |
|   \\  /    A nd           | Website:  www.openfoam.com                      |
|    \\/     M anipulation  |                                                 |
\*---------------------------------------------------------------------------*/
FoamFile
{
    version     2.0;
    format      ascii;
    arch        "LSB;label=32;scalar=64";
    class       volScalarField;
    location    "0.09";
    object      rho;
}
// * * * * * * * * * * * * * * * * * * * * * * * * * * * * * * * * * * * * * //

dimensions      [1 -3 0 0 0 0 0];

internalField   nonuniform List<scalar> 
13948
(
1.14295
1.20403
1.21714
1.21984
1.22052
1.22044
1.22016
1.2198
1.21952
1.2194
1.2195
1.21985
1.2204
1.22105
1.22162
1.22196
1.22204
1.22193
1.22169
1.22134
1.22094
1.22058
1.22023
1.21988
1.21954
1.2193
1.21919
1.21923
1.21946
1.21997
1.22064
1.22113
1.22126
1.22127
1.22125
1.22124
1.22127
1.22136
1.22156
1.22186
1.22209
1.22215
1.22214
1.22202
1.22178
1.2215
1.22131
1.22126
1.22125
1.22125
1.22125
1.22125
1.22125
1.22125
1.22125
1.22125
1.22125
1.22125
1.22125
1.22125
1.22125
1.22125
1.22125
1.22125
1.22125
1.22125
1.22125
1.22125
1.22125
1.22125
1.22125
1.22125
1.22125
1.22125
1.22125
1.22125
1.22125
1.22125
1.22125
1.22125
1.22125
1.22125
1.22125
1.22125
1.22125
1.22125
1.22125
1.22125
1.22125
1.22125
1.22125
1.22125
1.22125
1.22125
1.22125
1.22125
1.22125
1.22125
1.22125
1.16294
1.17991
1.20762
1.21745
1.21974
1.22039
1.22037
1.22015
1.21982
1.21956
1.21946
1.21956
1.2199
1.22044
1.22105
1.22159
1.22191
1.22198
1.22187
1.22163
1.22129
1.2209
1.22055
1.22022
1.21988
1.21955
1.21932
1.21923
1.21927
1.2195
1.22
1.22066
1.22114
1.22126
1.22127
1.22126
1.22125
1.22128
1.22137
1.22157
1.22186
1.22209
1.22214
1.22213
1.22201
1.22177
1.22149
1.22131
1.22126
1.22125
1.22125
1.22125
1.22125
1.22125
1.22125
1.22125
1.22125
1.22125
1.22125
1.22125
1.22125
1.22125
1.22125
1.22125
1.22125
1.22125
1.22125
1.22125
1.22125
1.22125
1.22125
1.22125
1.22125
1.22125
1.22125
1.22125
1.22125
1.22125
1.22125
1.22125
1.22125
1.22125
1.22125
1.22125
1.22125
1.22125
1.22125
1.22125
1.22125
1.22125
1.22125
1.22125
1.22125
1.22125
1.22125
1.22125
1.22125
1.22125
1.22125
1.22125
1.11245
1.11298
1.11411
1.11816
1.12491
1.13431
1.14773
1.16486
1.18202
1.19946
1.19667
1.21101
1.21737
1.21969
1.22033
1.2203
1.22009
1.2198
1.21958
1.21949
1.2196
1.21994
1.22047
1.22107
1.22158
1.22188
1.22194
1.22182
1.22158
1.22124
1.22087
1.22052
1.2202
1.21987
1.21956
1.21934
1.21925
1.2193
1.21953
1.22003
1.22068
1.22115
1.22127
1.22128
1.22127
1.22126
1.22129
1.22138
1.22158
1.22187
1.22209
1.22214
1.22212
1.222
1.22177
1.22149
1.22131
1.22126
1.22125
1.22125
1.22125
1.22125
1.22125
1.22125
1.22125
1.22125
1.22125
1.22125
1.22125
1.22125
1.22125
1.22125
1.22125
1.22125
1.22125
1.22125
1.22125
1.22125
1.22125
1.22125
1.22125
1.22125
1.22125
1.22125
1.22125
1.22125
1.22125
1.22125
1.22125
1.22125
1.22125
1.22125
1.22125
1.22125
1.22125
1.22125
1.22125
1.22125
1.22125
1.22125
1.22125
1.22125
1.22125
1.22125
1.22125
1.22125
1.22125
1.22125
1.22125
1.1664
1.19274
1.21107
1.22348
1.23016
1.23169
1.22899
1.22298
1.21538
1.20668
1.19657
1.18676
1.17724
1.16798
1.15883
1.14964
1.14077
1.13309
1.12746
1.1234
1.12171
1.12361
1.12771
1.13148
1.13521
1.13807
1.14065
1.14245
1.14417
1.14575
1.14721
1.14963
1.15164
1.15352
1.15578
1.15838
1.16307
1.16973
1.17843
1.18901
1.20088
1.2083
1.21503
1.21229
1.21605
1.21797
1.21946
1.22011
1.22018
1.22003
1.21978
1.2196
1.21954
1.21966
1.21999
1.22051
1.22109
1.22158
1.22185
1.2219
1.22177
1.22154
1.2212
1.22083
1.22049
1.22018
1.21986
1.21956
1.21936
1.21927
1.21933
1.21957
1.22006
1.22071
1.22116
1.22127
1.22128
1.22127
1.22127
1.2213
1.22139
1.22159
1.22187
1.22209
1.22213
1.22211
1.22199
1.22176
1.22148
1.2213
1.22126
1.22125
1.22125
1.22125
1.22125
1.22125
1.22125
1.22125
1.22125
1.22125
1.22125
1.22125
1.22125
1.22125
1.22125
1.22125
1.22125
1.22125
1.22125
1.22125
1.22125
1.22125
1.22125
1.22125
1.22125
1.22125
1.22125
1.22125
1.22125
1.22125
1.22125
1.22125
1.22125
1.22125
1.22125
1.22125
1.22125
1.22125
1.22125
1.22125
1.22125
1.22125
1.22125
1.22125
1.22125
1.22125
1.22125
1.22125
1.22125
1.22125
1.22125
1.22125
1.06905
1.11991
1.15988
1.19006
1.21197
1.22762
1.23788
1.2438
1.24546
1.24341
1.2387
1.23233
1.22483
1.21688
1.20896
1.20119
1.19364
1.18586
1.17812
1.17124
1.16632
1.16317
1.16155
1.16198
1.16423
1.16651
1.16875
1.17069
1.17268
1.17471
1.17683
1.17895
1.1811
1.18337
1.18503
1.18654
1.18869
1.19138
1.19546
1.20051
1.20653
1.21144
1.21631
1.21849
1.21993
1.21753
1.21796
1.21858
1.2195
1.21997
1.22006
1.21994
1.21974
1.21961
1.21958
1.21971
1.22005
1.22055
1.22112
1.22158
1.22182
1.22186
1.22172
1.22149
1.22115
1.22079
1.22046
1.22016
1.21985
1.21955
1.21937
1.21929
1.21935
1.2196
1.2201
1.22073
1.22117
1.22128
1.22129
1.22128
1.22127
1.2213
1.2214
1.2216
1.22188
1.22208
1.22213
1.2221
1.22198
1.22175
1.22147
1.2213
1.22126
1.22125
1.22125
1.22125
1.22125
1.22125
1.22125
1.22125
1.22125
1.22125
1.22125
1.22125
1.22125
1.22125
1.22125
1.22125
1.22125
1.22125
1.22125
1.22125
1.22125
1.22125
1.22125
1.22125
1.22125
1.22125
1.22125
1.22125
1.22125
1.22125
1.22125
1.22125
1.22125
1.22125
1.22125
1.22125
1.22125
1.22125
1.22125
1.22125
1.22125
1.22125
1.22125
1.22125
1.22125
1.22125
1.22125
1.22125
1.22125
1.22125
1.22125
1.22125
0.990915
1.0602
1.11517
1.15578
1.18528
1.20744
1.22431
1.23682
1.24515
1.24957
1.25085
1.24967
1.24646
1.24164
1.23546
1.22893
1.22238
1.21588
1.20946
1.20313
1.19751
1.1933
1.19036
1.18895
1.18863
1.18933
1.19026
1.1913
1.19242
1.19392
1.19573
1.19779
1.20008
1.20239
1.20463
1.20604
1.20709
1.20859
1.21047
1.21303
1.2154
1.21794
1.21959
1.22125
1.22147
1.22132
1.21952
1.2193
1.21928
1.2196
1.21986
1.21996
1.21986
1.21971
1.21962
1.21962
1.21977
1.22011
1.2206
1.22115
1.22159
1.22179
1.22182
1.22167
1.22143
1.2211
1.22075
1.22043
1.22014
1.21983
1.21955
1.21938
1.21931
1.21938
1.21964
1.22014
1.22076
1.22118
1.22128
1.22129
1.22128
1.22128
1.22131
1.22141
1.22161
1.22189
1.22208
1.22212
1.2221
1.22197
1.22173
1.22146
1.2213
1.22125
1.22125
1.22125
1.22125
1.22125
1.22125
1.22125
1.22125
1.22125
1.22125
1.22125
1.22125
1.22125
1.22125
1.22125
1.22125
1.22125
1.22125
1.22125
1.22125
1.22125
1.22125
1.22125
1.22125
1.22125
1.22125
1.22125
1.22125
1.22125
1.22125
1.22125
1.22125
1.22125
1.22125
1.22125
1.22125
1.22125
1.22125
1.22125
1.22125
1.22125
1.22125
1.22125
1.22125
1.22125
1.22125
1.22125
1.22125
1.22125
1.22125
1.22125
1.22125
0.99845
1.06584
1.11745
1.15622
1.18476
1.20611
1.222
1.23366
1.24206
1.24766
1.25041
1.25099
1.24981
1.24708
1.24315
1.23828
1.2332
1.22807
1.22287
1.21791
1.21335
1.20949
1.20642
1.20429
1.203
1.20265
1.20296
1.20375
1.20475
1.20595
1.20745
1.2092
1.21124
1.21332
1.21521
1.21659
1.21744
1.21813
1.21878
1.21966
1.22039
1.22122
1.22161
1.22172
1.2215
1.22121
1.22006
1.21972
1.21955
1.21967
1.21981
1.21987
1.21979
1.21969
1.21963
1.21966
1.21983
1.22017
1.22066
1.22118
1.22159
1.22176
1.22178
1.22162
1.22137
1.22104
1.2207
1.22039
1.22011
1.21981
1.21955
1.21939
1.21934
1.21941
1.21968
1.22019
1.2208
1.22119
1.22129
1.22129
1.22128
1.22129
1.22132
1.22142
1.22163
1.22191
1.22208
1.22212
1.22209
1.22196
1.22172
1.22145
1.22129
1.22125
1.22125
1.22125
1.22125
1.22125
1.22125
1.22125
1.22125
1.22125
1.22125
1.22125
1.22125
1.22125
1.22125
1.22125
1.22125
1.22125
1.22125
1.22125
1.22125
1.22125
1.22125
1.22125
1.22125
1.22125
1.22125
1.22125
1.22125
1.22125
1.22125
1.22125
1.22125
1.22125
1.22125
1.22125
1.22125
1.22125
1.22125
1.22125
1.22125
1.22125
1.22125
1.22125
1.22125
1.22125
1.22125
1.22125
1.22125
1.22125
1.22125
1.22125
1.22125
1.01978
1.08282
1.12962
1.16398
1.18868
1.20678
1.22056
1.23112
1.2389
1.2441
1.24703
1.24822
1.24802
1.24646
1.24406
1.24083
1.23685
1.23261
1.22849
1.22453
1.22085
1.21753
1.21471
1.21258
1.21104
1.20996
1.20927
1.2091
1.20932
1.20993
1.21092
1.21221
1.21382
1.21559
1.21732
1.21873
1.21976
1.22042
1.22084
1.22121
1.22137
1.22138
1.2213
1.2212
1.22104
1.22086
1.2202
1.21991
1.21973
1.21974
1.21979
1.21981
1.21975
1.21969
1.21965
1.2197
1.21989
1.22024
1.22072
1.22122
1.22159
1.22174
1.22173
1.22156
1.22131
1.22098
1.22065
1.22035
1.22008
1.21979
1.21954
1.2194
1.21936
1.21945
1.21973
1.22024
1.22084
1.22121
1.22129
1.2213
1.22129
1.22129
1.22133
1.22143
1.22165
1.22192
1.22208
1.22212
1.22208
1.22195
1.2217
1.22144
1.22129
1.22125
1.22125
1.22125
1.22125
1.22125
1.22125
1.22125
1.22125
1.22125
1.22125
1.22125
1.22125
1.22125
1.22125
1.22125
1.22125
1.22125
1.22125
1.22125
1.22125
1.22125
1.22125
1.22125
1.22125
1.22125
1.22125
1.22125
1.22125
1.22125
1.22125
1.22125
1.22125
1.22125
1.22125
1.22125
1.22125
1.22125
1.22125
1.22125
1.22125
1.22125
1.22125
1.22125
1.22125
1.22125
1.22125
1.22125
1.22125
1.22125
1.22125
1.22125
1.22125
1.04815
1.10021
1.13958
1.16867
1.19043
1.20715
1.21976
1.22882
1.23531
1.23992
1.24279
1.24405
1.24409
1.24304
1.24125
1.23894
1.23608
1.23292
1.22992
1.22692
1.22405
1.22134
1.21882
1.21655
1.21464
1.21338
1.21254
1.21201
1.21179
1.21192
1.2124
1.2132
1.21433
1.21572
1.21719
1.21852
1.2196
1.22037
1.2207
1.22075
1.22073
1.22071
1.22066
1.22064
1.22065
1.22061
1.22019
1.21992
1.21975
1.21972
1.21975
1.21976
1.21972
1.21969
1.21968
1.21975
1.21996
1.22032
1.22079
1.22126
1.2216
1.22171
1.22167
1.2215
1.22124
1.22091
1.22059
1.22031
1.22004
1.21977
1.21953
1.21941
1.21938
1.21948
1.21978
1.2203
1.22088
1.22122
1.2213
1.2213
1.22129
1.2213
1.22134
1.22145
1.22167
1.22193
1.22208
1.22211
1.22207
1.22193
1.22169
1.22143
1.22129
1.22125
1.22125
1.22125
1.22125
1.22125
1.22125
1.22125
1.22125
1.22125
1.22125
1.22125
1.22125
1.22125
1.22125
1.22125
1.22125
1.22125
1.22125
1.22125
1.22125
1.22125
1.22125
1.22125
1.22125
1.22125
1.22125
1.22125
1.22125
1.22125
1.22125
1.22125
1.22125
1.22125
1.22125
1.22125
1.22125
1.22125
1.22125
1.22125
1.22125
1.22125
1.22125
1.22125
1.22125
1.22125
1.22125
1.22125
1.22125
1.22125
1.22125
1.22125
1.22125
1.0791
1.11828
1.14963
1.17369
1.19223
1.20652
1.21734
1.22533
1.2312
1.2353
1.23785
1.23911
1.23944
1.23888
1.23745
1.2355
1.23329
1.23094
1.22855
1.2262
1.22396
1.22188
1.21995
1.21814
1.21653
1.21524
1.21428
1.21366
1.21328
1.21318
1.21341
1.21392
1.21475
1.21579
1.21692
1.21793
1.21872
1.21926
1.21961
1.21977
1.21987
1.21997
1.2201
1.22022
1.22032
1.22034
1.22007
1.21985
1.21973
1.21971
1.21972
1.21973
1.21972
1.2197
1.21971
1.21981
1.22003
1.2204
1.22086
1.22131
1.22159
1.22168
1.22161
1.22143
1.22116
1.22084
1.22053
1.22026
1.22
1.21975
1.21953
1.21942
1.21941
1.21952
1.21983
1.22036
1.22093
1.22124
1.2213
1.22131
1.2213
1.22131
1.22135
1.22146
1.22169
1.22195
1.22208
1.22211
1.22206
1.22192
1.22167
1.22141
1.22128
1.22125
1.22125
1.22125
1.22125
1.22125
1.22125
1.22125
1.22125
1.22125
1.22125
1.22125
1.22125
1.22125
1.22125
1.22125
1.22125
1.22125
1.22125
1.22125
1.22125
1.22125
1.22125
1.22125
1.22125
1.22125
1.22125
1.22125
1.22125
1.22125
1.22125
1.22125
1.22125
1.22125
1.22125
1.22125
1.22125
1.22125
1.22125
1.22125
1.22125
1.22125
1.22125
1.22125
1.22125
1.22125
1.22125
1.22125
1.22125
1.22125
1.22125
1.22125
1.22125
1.10157
1.1301
1.15412
1.17358
1.1895
1.20217
1.21212
1.2199
1.22574
1.22991
1.23266
1.23414
1.23461
1.23437
1.23347
1.23201
1.23027
1.22841
1.22657
1.22475
1.22304
1.2214
1.2199
1.21852
1.21731
1.21632
1.21559
1.21512
1.21481
1.21474
1.21489
1.21521
1.2157
1.21628
1.21691
1.21752
1.21803
1.2184
1.21869
1.21893
1.21917
1.21944
1.21969
1.2199
1.22003
1.22007
1.2199
1.21977
1.21968
1.21966
1.21968
1.21971
1.21972
1.21973
1.21976
1.21988
1.22011
1.22049
1.22094
1.22135
1.22158
1.22164
1.22155
1.22136
1.22108
1.22076
1.22047
1.22021
1.21997
1.21972
1.21952
1.21943
1.21944
1.21957
1.2199
1.22043
1.22097
1.22126
1.22131
1.22131
1.2213
1.22132
1.22136
1.22148
1.22171
1.22197
1.22208
1.2221
1.22205
1.2219
1.22164
1.2214
1.22128
1.22125
1.22125
1.22125
1.22125
1.22125
1.22125
1.22125
1.22125
1.22125
1.22125
1.22125
1.22125
1.22125
1.22125
1.22125
1.22125
1.22125
1.22125
1.22125
1.22125
1.22125
1.22125
1.22125
1.22125
1.22125
1.22125
1.22125
1.22125
1.22125
1.22125
1.22125
1.22125
1.22125
1.22125
1.22125
1.22125
1.22125
1.22125
1.22125
1.22125
1.22125
1.22125
1.22125
1.22125
1.22125
1.22125
1.22125
1.22125
1.22125
1.22125
1.22125
1.22125
1.1217
1.14041
1.15783
1.17332
1.18663
1.19782
1.207
1.21441
1.22015
1.22437
1.22729
1.22912
1.23003
1.23023
1.22984
1.22891
1.22765
1.22627
1.22488
1.22352
1.22221
1.22094
1.21974
1.21862
1.21763
1.21683
1.21625
1.2159
1.21571
1.21573
1.21589
1.21616
1.21649
1.21685
1.21718
1.21748
1.21775
1.218
1.21826
1.21855
1.21886
1.21917
1.21945
1.21966
1.21979
1.21985
1.21977
1.21968
1.21962
1.21961
1.21964
1.2197
1.21974
1.21976
1.21981
1.21995
1.2202
1.22058
1.22102
1.22139
1.22157
1.2216
1.22148
1.22127
1.22098
1.22067
1.2204
1.22016
1.21992
1.21969
1.21952
1.21945
1.21947
1.21962
1.21997
1.22051
1.22102
1.22127
1.22131
1.22132
1.22131
1.22133
1.22138
1.22151
1.22174
1.22199
1.22209
1.2221
1.22204
1.22187
1.22162
1.22138
1.22127
1.22125
1.22125
1.22125
1.22125
1.22125
1.22125
1.22125
1.22125
1.22125
1.22125
1.22125
1.22125
1.22125
1.22125
1.22125
1.22125
1.22125
1.22125
1.22125
1.22125
1.22125
1.22125
1.22125
1.22125
1.22125
1.22125
1.22125
1.22125
1.22125
1.22125
1.22125
1.22125
1.22125
1.22125
1.22125
1.22125
1.22125
1.22125
1.22125
1.22125
1.22125
1.22125
1.22125
1.22125
1.22125
1.22125
1.22125
1.22125
1.22125
1.22125
1.22125
1.22125
1.13724
1.14924
1.16133
1.17269
1.18319
1.19283
1.20131
1.20847
1.21428
1.21878
1.22213
1.22443
1.22581
1.22641
1.22647
1.22614
1.22546
1.22457
1.22358
1.22259
1.22162
1.22061
1.2196
1.21865
1.21782
1.21714
1.21666
1.21635
1.21619
1.2162
1.21633
1.21656
1.21683
1.21711
1.21736
1.21755
1.21774
1.21795
1.21819
1.21849
1.2188
1.2191
1.21936
1.21955
1.21968
1.21974
1.21969
1.2196
1.21954
1.21954
1.2196
1.21969
1.21976
1.21981
1.21988
1.22003
1.2203
1.22068
1.22109
1.22142
1.22155
1.22154
1.2214
1.22118
1.22088
1.22058
1.22033
1.2201
1.21988
1.21967
1.21952
1.21946
1.2195
1.21968
1.22005
1.22059
1.22108
1.22129
1.22132
1.22132
1.22132
1.22134
1.22139
1.22153
1.22177
1.222
1.22209
1.22209
1.22203
1.22185
1.22159
1.22137
1.22127
1.22125
1.22125
1.22125
1.22125
1.22125
1.22125
1.22125
1.22125
1.22125
1.22125
1.22125
1.22125
1.22125
1.22125
1.22125
1.22125
1.22125
1.22125
1.22125
1.22125
1.22125
1.22125
1.22125
1.22125
1.22125
1.22125
1.22125
1.22125
1.22125
1.22125
1.22125
1.22125
1.22125
1.22125
1.22125
1.22125
1.22125
1.22125
1.22125
1.22125
1.22125
1.22125
1.22125
1.22125
1.22125
1.22125
1.22125
1.22125
1.22125
1.22125
1.22125
1.22125
1.14819
1.15627
1.16494
1.17341
1.18169
1.18951
1.19687
1.20356
1.20927
1.21386
1.21741
1.22004
1.22188
1.22301
1.22355
1.22366
1.22347
1.22307
1.22248
1.22179
1.22107
1.22029
1.21949
1.21871
1.21802
1.21746
1.21704
1.21677
1.21662
1.21661
1.21666
1.21683
1.21702
1.21723
1.21743
1.21759
1.21778
1.21799
1.21824
1.21854
1.21885
1.21915
1.21939
1.21955
1.21965
1.21967
1.21961
1.2195
1.21944
1.21947
1.21958
1.21971
1.2198
1.21987
1.21996
1.22013
1.22041
1.22078
1.22117
1.22143
1.22152
1.22147
1.22131
1.22107
1.22077
1.22049
1.22026
1.22005
1.21984
1.21964
1.21953
1.21949
1.21954
1.21974
1.22014
1.22068
1.22113
1.2213
1.22132
1.22133
1.22132
1.22135
1.22141
1.22156
1.2218
1.22202
1.22209
1.22209
1.22201
1.22182
1.22156
1.22135
1.22126
1.22125
1.22125
1.22125
1.22125
1.22125
1.22125
1.22125
1.22125
1.22125
1.22125
1.22125
1.22125
1.22125
1.22125
1.22125
1.22125
1.22125
1.22125
1.22125
1.22125
1.22125
1.22125
1.22125
1.22125
1.22125
1.22125
1.22125
1.22125
1.22125
1.22125
1.22125
1.22125
1.22125
1.22125
1.22125
1.22125
1.22125
1.22125
1.22125
1.22125
1.22125
1.22125
1.22125
1.22125
1.22125
1.22125
1.22125
1.22125
1.22125
1.22125
1.22125
1.22125
1.15765
1.16283
1.16885
1.17532
1.1819
1.18829
1.1943
1.19994
1.20508
1.20948
1.21312
1.21599
1.21818
1.21974
1.22076
1.22135
1.2216
1.22162
1.22143
1.22103
1.22051
1.21993
1.21933
1.21874
1.21822
1.21778
1.21744
1.2172
1.21705
1.21701
1.21701
1.21708
1.21718
1.2173
1.21746
1.21761
1.21783
1.21808
1.21837
1.21868
1.21899
1.21925
1.21944
1.21955
1.21959
1.21957
1.21947
1.21936
1.21933
1.21942
1.21958
1.21974
1.21986
1.21994
1.22004
1.22023
1.22052
1.22089
1.22124
1.22143
1.22148
1.22138
1.22121
1.22095
1.22066
1.2204
1.22019
1.21999
1.2198
1.21962
1.21953
1.21951
1.21959
1.21982
1.22025
1.22078
1.22118
1.22131
1.22133
1.22133
1.22133
1.22136
1.22143
1.22159
1.22184
1.22204
1.22209
1.22208
1.22199
1.22179
1.22153
1.22133
1.22126
1.22125
1.22125
1.22125
1.22125
1.22125
1.22125
1.22125
1.22125
1.22125
1.22125
1.22125
1.22125
1.22125
1.22125
1.22125
1.22125
1.22125
1.22125
1.22125
1.22125
1.22125
1.22125
1.22125
1.22125
1.22125
1.22125
1.22125
1.22125
1.22125
1.22125
1.22125
1.22125
1.22125
1.22125
1.22125
1.22125
1.22125
1.22125
1.22125
1.22125
1.22125
1.22125
1.22125
1.22125
1.22125
1.22125
1.22125
1.22125
1.22125
1.22125
1.22125
1.22125
1.1674
1.17053
1.17424
1.17866
1.18346
1.18855
1.19354
1.19818
1.20245
1.20635
1.20978
1.21263
1.21495
1.21677
1.21816
1.21915
1.21979
1.22015
1.22026
1.22016
1.21987
1.21949
1.21908
1.2187
1.21835
1.21804
1.21776
1.21754
1.21739
1.2173
1.21726
1.21727
1.21731
1.2174
1.21753
1.21771
1.21796
1.21824
1.21854
1.21884
1.2191
1.21929
1.21941
1.21944
1.21942
1.21937
1.21926
1.2192
1.21925
1.21942
1.21964
1.21983
1.21994
1.22002
1.22013
1.22034
1.22064
1.221
1.22129
1.22142
1.22141
1.22128
1.22109
1.22081
1.22054
1.2203
1.22011
1.21994
1.21976
1.21961
1.21954
1.21954
1.21965
1.21991
1.22036
1.22088
1.22122
1.22132
1.22134
1.22134
1.22134
1.22137
1.22146
1.22163
1.22188
1.22205
1.22209
1.22207
1.22196
1.22175
1.22149
1.22131
1.22126
1.22125
1.22125
1.22125
1.22125
1.22125
1.22125
1.22125
1.22125
1.22125
1.22125
1.22125
1.22125
1.22125
1.22125
1.22125
1.22125
1.22125
1.22125
1.22125
1.22125
1.22125
1.22125
1.22125
1.22125
1.22125
1.22125
1.22125
1.22125
1.22125
1.22125
1.22125
1.22125
1.22125
1.22125
1.22125
1.22125
1.22125
1.22125
1.22125
1.22125
1.22125
1.22125
1.22125
1.22125
1.22125
1.22125
1.22125
1.22125
1.22125
1.22125
1.22125
1.22125
1.17753
1.17884
1.18084
1.18345
1.1866
1.19019
1.19406
1.19789
1.20144
1.2047
1.20768
1.21034
1.21263
1.21454
1.21609
1.21729
1.21817
1.21877
1.21911
1.21922
1.21917
1.21902
1.21882
1.21862
1.21843
1.21825
1.21809
1.2179
1.21774
1.21763
1.21756
1.21753
1.21755
1.21763
1.21776
1.21796
1.2182
1.21846
1.21871
1.21893
1.21908
1.21918
1.2192
1.21918
1.21914
1.2191
1.21906
1.2191
1.21925
1.2195
1.21976
1.21994
1.22003
1.22011
1.22023
1.22045
1.22077
1.22109
1.22131
1.22139
1.22132
1.22117
1.22095
1.22067
1.22041
1.22021
1.22004
1.21988
1.21972
1.2196
1.21956
1.21958
1.21972
1.22002
1.22049
1.22098
1.22127
1.22133
1.22135
1.22134
1.22135
1.22139
1.22149
1.22168
1.22192
1.22206
1.22209
1.22206
1.22194
1.22171
1.22146
1.2213
1.22126
1.22125
1.22125
1.22125
1.22125
1.22125
1.22125
1.22125
1.22125
1.22125
1.22125
1.22125
1.22125
1.22125
1.22125
1.22125
1.22125
1.22125
1.22125
1.22125
1.22125
1.22125
1.22125
1.22125
1.22125
1.22125
1.22125
1.22125
1.22125
1.22125
1.22125
1.22125
1.22125
1.22125
1.22125
1.22125
1.22125
1.22125
1.22125
1.22125
1.22125
1.22125
1.22125
1.22125
1.22125
1.22125
1.22125
1.22125
1.22125
1.22125
1.22125
1.22125
1.22125
1.18725
1.18717
1.18778
1.18901
1.19078
1.19306
1.19573
1.19864
1.20159
1.20435
1.20688
1.20922
1.21135
1.21322
1.21479
1.21606
1.21704
1.21776
1.21825
1.21853
1.21867
1.2187
1.21867
1.21863
1.21858
1.2185
1.21842
1.21832
1.21822
1.21814
1.21809
1.21807
1.21809
1.21815
1.21825
1.21839
1.21855
1.21871
1.21885
1.21895
1.219
1.21901
1.219
1.21897
1.21895
1.21895
1.21899
1.21914
1.21939
1.21969
1.21993
1.22006
1.22012
1.22019
1.22034
1.22058
1.22089
1.22117
1.22132
1.22132
1.22121
1.22104
1.22079
1.22052
1.22029
1.22012
1.21998
1.21983
1.21969
1.2196
1.21958
1.21963
1.2198
1.22015
1.22063
1.22108
1.2213
1.22134
1.22135
1.22135
1.22136
1.22141
1.22152
1.22173
1.22196
1.22207
1.22209
1.22204
1.2219
1.22166
1.22142
1.22129
1.22125
1.22125
1.22125
1.22125
1.22125
1.22125
1.22125
1.22125
1.22125
1.22125
1.22125
1.22125
1.22125
1.22125
1.22125
1.22125
1.22125
1.22125
1.22125
1.22125
1.22125
1.22125
1.22125
1.22125
1.22125
1.22125
1.22125
1.22125
1.22125
1.22125
1.22125
1.22125
1.22125
1.22125
1.22125
1.22125
1.22125
1.22125
1.22125
1.22125
1.22125
1.22125
1.22125
1.22125
1.22125
1.22125
1.22125
1.22125
1.22125
1.22125
1.22125
1.22125
1.22125
1.19564
1.19477
1.1945
1.19472
1.19543
1.19665
1.19831
1.20032
1.20252
1.20476
1.20694
1.20895
1.21082
1.21253
1.21404
1.2153
1.21632
1.2171
1.21768
1.2181
1.21837
1.21855
1.21864
1.21869
1.21872
1.21874
1.21876
1.21879
1.21881
1.21882
1.21884
1.21887
1.2189
1.21891
1.21893
1.21895
1.21897
1.219
1.21902
1.21902
1.21901
1.21899
1.21897
1.21897
1.21898
1.21902
1.21913
1.21937
1.21967
1.21994
1.22009
1.22015
1.22019
1.22028
1.22046
1.22073
1.22101
1.22121
1.22128
1.22122
1.22109
1.22087
1.22061
1.22036
1.22018
1.22004
1.21991
1.21978
1.21967
1.21961
1.21961
1.21969
1.21991
1.22029
1.22078
1.22117
1.22133
1.22135
1.22136
1.22136
1.22138
1.22143
1.22156
1.22178
1.222
1.22207
1.22208
1.22202
1.22186
1.22161
1.22138
1.22127
1.22125
1.22125
1.22125
1.22125
1.22125
1.22125
1.22125
1.22125
1.22125
1.22125
1.22125
1.22125
1.22125
1.22125
1.22125
1.22125
1.22125
1.22125
1.22125
1.22125
1.22125
1.22125
1.22125
1.22125
1.22125
1.22125
1.22125
1.22125
1.22125
1.22125
1.22125
1.22125
1.22125
1.22125
1.22125
1.22125
1.22125
1.22125
1.22125
1.22125
1.22125
1.22125
1.22125
1.22125
1.22125
1.22125
1.22125
1.22125
1.22125
1.22125
1.22125
1.22125
1.22125
1.20222
1.20108
1.20031
1.19999
1.20002
1.20043
1.20129
1.20253
1.20405
1.20572
1.20744
1.20912
1.2107
1.21216
1.21351
1.2147
1.21571
1.21653
1.21718
1.21769
1.21807
1.21835
1.21855
1.21868
1.21878
1.21886
1.21895
1.21905
1.21915
1.21924
1.21933
1.2194
1.21945
1.21946
1.21946
1.21943
1.21939
1.21935
1.2193
1.21926
1.21923
1.2192
1.21919
1.21921
1.21926
1.21932
1.21947
1.21974
1.21998
1.22012
1.22018
1.22021
1.22026
1.22039
1.2206
1.22087
1.2211
1.22121
1.22119
1.22109
1.22092
1.22068
1.22043
1.22022
1.22008
1.21997
1.21985
1.21974
1.21966
1.21963
1.21965
1.21978
1.22004
1.22046
1.22093
1.22125
1.22135
1.22137
1.22137
1.22137
1.22139
1.22146
1.22162
1.22184
1.22203
1.22208
1.22207
1.22199
1.2218
1.22155
1.22135
1.22126
1.22125
1.22125
1.22125
1.22125
1.22125
1.22125
1.22125
1.22125
1.22125
1.22125
1.22125
1.22125
1.22125
1.22125
1.22125
1.22125
1.22125
1.22125
1.22125
1.22125
1.22125
1.22125
1.22125
1.22125
1.22125
1.22125
1.22125
1.22125
1.22125
1.22125
1.22125
1.22125
1.22125
1.22125
1.22125
1.22125
1.22125
1.22125
1.22125
1.22125
1.22125
1.22125
1.22125
1.22125
1.22125
1.22125
1.22125
1.22125
1.22125
1.22125
1.22125
1.22125
1.22125
1.20716
1.20596
1.20502
1.20435
1.20402
1.20397
1.20422
1.20484
1.20578
1.20693
1.2082
1.20951
1.21079
1.21201
1.21313
1.21418
1.21513
1.21595
1.21663
1.21719
1.21765
1.21801
1.21829
1.21851
1.21868
1.21882
1.21895
1.21908
1.21921
1.21933
1.21943
1.21951
1.21957
1.21961
1.21964
1.21965
1.21965
1.21962
1.21959
1.21956
1.21953
1.21952
1.21954
1.21957
1.21963
1.2197
1.21985
1.22004
1.22016
1.2202
1.22022
1.22026
1.22036
1.22054
1.22077
1.22099
1.22112
1.22114
1.22107
1.22093
1.22072
1.22047
1.22025
1.22009
1.21999
1.2199
1.2198
1.21971
1.21966
1.21966
1.21972
1.21989
1.22021
1.22065
1.22107
1.22131
1.22136
1.22138
1.22137
1.22138
1.22141
1.2215
1.22168
1.22191
1.22205
1.22209
1.22206
1.22195
1.22174
1.22149
1.22132
1.22126
1.22125
1.22125
1.22125
1.22125
1.22125
1.22125
1.22125
1.22125
1.22125
1.22125
1.22125
1.22125
1.22125
1.22125
1.22125
1.22125
1.22125
1.22125
1.22125
1.22125
1.22125
1.22125
1.22125
1.22125
1.22125
1.22125
1.22125
1.22125
1.22125
1.22125
1.22125
1.22125
1.22125
1.22125
1.22125
1.22125
1.22125
1.22125
1.22125
1.22125
1.22125
1.22125
1.22125
1.22125
1.22125
1.22125
1.22125
1.22125
1.22125
1.22125
1.22125
1.22125
1.22125
1.21079
1.20967
1.20871
1.20792
1.20734
1.20701
1.20692
1.20705
1.20749
1.2082
1.20906
1.21002
1.21102
1.21202
1.21297
1.21386
1.2147
1.21547
1.21616
1.21675
1.21725
1.21767
1.21802
1.21831
1.21855
1.21875
1.21892
1.21907
1.2192
1.21932
1.21942
1.2195
1.21956
1.21961
1.21966
1.2197
1.21972
1.21973
1.21973
1.21973
1.21973
1.21974
1.21978
1.21983
1.21989
1.21997
1.22007
1.22017
1.22022
1.22024
1.22028
1.22037
1.22052
1.22071
1.2209
1.22103
1.22107
1.22101
1.2209
1.22072
1.22048
1.22025
1.22009
1.21999
1.21992
1.21984
1.21977
1.2197
1.21968
1.2197
1.2198
1.22003
1.2204
1.22084
1.22119
1.22135
1.22138
1.22139
1.22138
1.2214
1.22144
1.22155
1.22175
1.22197
1.22207
1.22209
1.22204
1.2219
1.22167
1.22143
1.22129
1.22125
1.22125
1.22125
1.22125
1.22125
1.22125
1.22125
1.22125
1.22125
1.22125
1.22125
1.22125
1.22125
1.22125
1.22125
1.22125
1.22125
1.22125
1.22125
1.22125
1.22125
1.22125
1.22125
1.22125
1.22125
1.22125
1.22125
1.22125
1.22125
1.22125
1.22125
1.22125
1.22125
1.22125
1.22125
1.22125
1.22125
1.22125
1.22125
1.22125
1.22125
1.22125
1.22125
1.22125
1.22125
1.22125
1.22125
1.22125
1.22125
1.22125
1.22125
1.22125
1.22125
1.22125
1.21332
1.21238
1.21152
1.21076
1.21012
1.20962
1.20931
1.20919
1.20925
1.20954
1.21006
1.21071
1.21142
1.21219
1.21299
1.21377
1.21452
1.21524
1.21591
1.21651
1.21705
1.21751
1.2179
1.21824
1.21853
1.21878
1.21899
1.21915
1.21929
1.2194
1.21948
1.21955
1.21961
1.21966
1.21971
1.21975
1.21977
1.2198
1.21981
1.21984
1.21986
1.21991
1.21996
1.22002
1.22008
1.22014
1.2202
1.22025
1.22028
1.22032
1.22041
1.22055
1.2207
1.22084
1.22094
1.22098
1.22093
1.22084
1.22068
1.22046
1.22023
1.22006
1.21996
1.21991
1.21985
1.2198
1.21974
1.21971
1.21971
1.21977
1.21993
1.22022
1.22062
1.22103
1.22129
1.22138
1.22139
1.22139
1.22139
1.22141
1.22148
1.22162
1.22183
1.22202
1.22208
1.22208
1.22201
1.22183
1.22159
1.22137
1.22127
1.22125
1.22125
1.22125
1.22125
1.22125
1.22125
1.22125
1.22125
1.22125
1.22125
1.22125
1.22125
1.22125
1.22125
1.22125
1.22125
1.22125
1.22125
1.22125
1.22125
1.22125
1.22125
1.22125
1.22125
1.22125
1.22125
1.22125
1.22125
1.22125
1.22125
1.22125
1.22125
1.22125
1.22125
1.22125
1.22125
1.22125
1.22125
1.22125
1.22125
1.22125
1.22125
1.22125
1.22125
1.22125
1.22125
1.22125
1.22125
1.22125
1.22125
1.22125
1.22125
1.22125
1.22125
1.21497
1.21421
1.21349
1.21284
1.21226
1.21177
1.21138
1.21112
1.211
1.21102
1.21123
1.21163
1.21211
1.21266
1.21327
1.21391
1.21457
1.21522
1.21585
1.21645
1.21701
1.21751
1.21794
1.21832
1.21865
1.21892
1.21915
1.21934
1.2195
1.21962
1.21972
1.2198
1.21985
1.2199
1.21994
1.21997
1.21999
1.22002
1.22005
1.22008
1.22012
1.22017
1.22022
1.22027
1.2203
1.22033
1.22035
1.22037
1.22042
1.22049
1.22059
1.22069
1.22079
1.22086
1.22086
1.22083
1.22074
1.2206
1.2204
1.22018
1.22
1.21992
1.21987
1.21984
1.21981
1.21977
1.21974
1.21973
1.21977
1.21988
1.2201
1.22044
1.22085
1.22119
1.22136
1.2214
1.2214
1.2214
1.22141
1.22144
1.22153
1.2217
1.22192
1.22206
1.22209
1.22207
1.22196
1.22175
1.2215
1.22132
1.22126
1.22125
1.22125
1.22125
1.22125
1.22125
1.22125
1.22125
1.22125
1.22125
1.22125
1.22125
1.22125
1.22125
1.22125
1.22125
1.22125
1.22125
1.22125
1.22125
1.22125
1.22125
1.22125
1.22125
1.22125
1.22125
1.22125
1.22125
1.22125
1.22125
1.22125
1.22125
1.22125
1.22125
1.22125
1.22125
1.22125
1.22125
1.22125
1.22125
1.22125
1.22125
1.22125
1.22125
1.22125
1.22125
1.22125
1.22125
1.22125
1.22125
1.22125
1.22125
1.22125
1.22125
1.22125
1.21614
1.21548
1.21487
1.21431
1.21381
1.21337
1.213
1.21271
1.21252
1.21245
1.21248
1.21266
1.21299
1.21338
1.21383
1.21432
1.21484
1.21538
1.21594
1.21649
1.21703
1.21753
1.21799
1.2184
1.21875
1.21906
1.21932
1.21953
1.21971
1.21986
1.21998
1.22007
1.22014
1.2202
1.22024
1.22027
1.2203
1.22033
1.22036
1.22039
1.22043
1.22045
1.22047
1.22048
1.22049
1.22049
1.22049
1.2205
1.22055
1.22061
1.22068
1.22072
1.22074
1.22072
1.22068
1.2206
1.22047
1.22029
1.22009
1.21992
1.21985
1.21982
1.21982
1.21981
1.21979
1.21977
1.21976
1.21978
1.21987
1.22004
1.22033
1.2207
1.22107
1.22132
1.2214
1.22142
1.22141
1.22141
1.22143
1.22148
1.2216
1.2218
1.222
1.22208
1.22209
1.22204
1.22189
1.22165
1.22142
1.22129
1.22125
1.22125
1.22125
1.22125
1.22125
1.22125
1.22125
1.22125
1.22125
1.22125
1.22125
1.22125
1.22125
1.22125
1.22125
1.22125
1.22125
1.22125
1.22125
1.22125
1.22125
1.22125
1.22125
1.22125
1.22125
1.22125
1.22125
1.22125
1.22125
1.22125
1.22125
1.22125
1.22125
1.22125
1.22125
1.22125
1.22125
1.22125
1.22125
1.22125
1.22125
1.22125
1.22125
1.22125
1.22125
1.22125
1.22125
1.22125
1.22125
1.22125
1.22125
1.22125
1.22125
1.22125
1.22125
1.21726
1.21666
1.21609
1.21556
1.21508
1.21466
1.2143
1.214
1.21377
1.21364
1.21359
1.21363
1.2138
1.21407
1.2144
1.21478
1.21519
1.21561
1.21606
1.21651
1.21697
1.21742
1.21786
1.21826
1.21862
1.21894
1.21921
1.21944
1.21964
1.2198
1.21993
1.22005
1.22014
1.22022
1.22028
1.22034
1.22038
1.22042
1.22046
1.22048
1.2205
1.22051
1.22052
1.22052
1.22051
1.22051
1.22051
1.22052
1.22055
1.22057
1.22057
1.22057
1.22055
1.2205
1.22041
1.22028
1.22012
1.21995
1.21982
1.21977
1.21976
1.21978
1.21979
1.2198
1.21979
1.21979
1.21981
1.21988
1.22003
1.22027
1.2206
1.22097
1.22126
1.22139
1.22142
1.22143
1.22142
1.22142
1.22145
1.22153
1.22169
1.22191
1.22206
1.22209
1.22208
1.22198
1.22179
1.22154
1.22134
1.22127
1.22125
1.22125
1.22125
1.22125
1.22125
1.22125
1.22125
1.22125
1.22125
1.22125
1.22125
1.22125
1.22125
1.22125
1.22125
1.22125
1.22125
1.22125
1.22125
1.22125
1.22125
1.22125
1.22125
1.22125
1.22125
1.22125
1.22125
1.22125
1.22125
1.22125
1.22125
1.22125
1.22125
1.22125
1.22125
1.22125
1.22125
1.22125
1.22125
1.22125
1.22125
1.22125
1.22125
1.22125
1.22125
1.22125
1.22125
1.22125
1.22125
1.22125
1.22125
1.22125
1.22125
1.22125
1.22125
1.21866
1.2181
1.21755
1.21702
1.21652
1.21606
1.21565
1.2153
1.215
1.21477
1.21462
1.21455
1.21456
1.21466
1.21485
1.21511
1.21541
1.21573
1.21607
1.21641
1.21675
1.2171
1.21745
1.2178
1.21814
1.21844
1.21872
1.21897
1.21919
1.21938