/*--------------------------------*- C++ -*----------------------------------*\
| =========                 |                                                 |
| \\      /  F ield         | OpenFOAM: The Open Source CFD Toolbox           |
|  \\    /   O peration     | Version:  2406                                  |
|   \\  /    A nd           | Website:  www.openfoam.com                      |
|    \\/     M anipulation  |                                                 |
\*---------------------------------------------------------------------------*/
FoamFile
{
    version     2.0;
    format      ascii;
    arch        "LSB;label=32;scalar=64";
    class       volVectorField;
    location    "0.02";
    object      U;
}
// * * * * * * * * * * * * * * * * * * * * * * * * * * * * * * * * * * * * * //

dimensions      [0 1 -1 0 0 0 0];

internalField   nonuniform List<vector> 
13962
(
(347.059 -2.45679e-11 -1.26814e-11)
(347.059 -2.53418e-11 -1.21847e-11)
(347.059 -2.48195e-11 -1.00691e-11)
(347.059 -2.5029e-11 -9.18495e-12)
(347.059 -2.75312e-11 -3.91143e-12)
(347.059 -8.105e-11 -1.00126e-10)
(347.059 5.48342e-10 1.35682e-09)
(347.059 -4.39207e-09 -1.2199e-08)
(347.058 -2.13142e-08 3.73988e-09)
(347.017 1.37852e-07 6.20148e-07)
(346.006 4.5847e-05 5.8465e-05)
(334.259 -0.00068031 -0.00104809)
(319.784 6.54891e-05 0.000323017)
(318.75 0.000853482 0.00138753)
(318.72 0.00057854 0.000866503)
(318.681 7.11524e-05 -7.37107e-05)
(318.646 -0.000425387 -0.000975628)
(318.617 -0.00064683 -0.001357)
(318.59 -0.000780495 -0.00155435)
(318.556 -0.000721287 -0.0013588)
(318.52 -0.000333663 -0.000549975)
(318.492 -0.000113591 -0.000118413)
(318.47 0.000306326 0.000692823)
(318.445 0.000533634 0.0011289)
(318.413 0.000527219 0.00106325)
(318.387 0.000434908 0.000817137)
(318.368 0.000366217 0.000680965)
(318.352 0.000193899 0.000360452)
(318.336 3.25204e-05 6.00317e-05)
(318.317 -6.48743e-05 -0.000108366)
(318.302 -9.68302e-05 -0.000151454)
(318.296 -9.20467e-05 -0.000131877)
(318.294 -7.07816e-05 -8.97538e-05)
(318.291 -4.16084e-05 -4.12612e-05)
(318.287 -1.8762e-05 -5.99632e-06)
(318.282 -7.0753e-06 1.00801e-05)
(318.278 4.71597e-06 2.2876e-05)
(318.27 9.75873e-06 2.42748e-05)
(318.262 8.5023e-06 1.75623e-05)
(318.259 4.41793e-06 8.83099e-06)
(318.26 2.15209e-06 4.29266e-06)
(318.266 3.99972e-07 4.46957e-07)
(318.275 -7.02681e-07 -2.77444e-06)
(318.284 -2.5725e-07 -3.64697e-06)
(318.291 1.22943e-06 -2.9195e-06)
(318.297 2.61247e-06 -1.65962e-06)
(318.303 2.96118e-06 -1.10595e-06)
(318.308 3.37729e-06 -2.35036e-07)
(318.313 3.50531e-06 4.51569e-07)
(318.316 3.13245e-06 6.73806e-07)
(318.32 2.35399e-06 5.35647e-07)
(318.326 1.65472e-06 3.24801e-07)
(318.333 1.15505e-06 1.72797e-07)
(318.337 3.35444e-07 -5.64613e-08)
(318.338 -4.95404e-07 -2.02488e-07)
(318.339 -1.16106e-06 -2.49688e-07)
(318.34 -1.69563e-06 -2.3981e-07)
(318.34 -1.83002e-06 -1.96895e-07)
(318.338 -1.77802e-06 -1.68871e-07)
(318.337 -1.60507e-06 -1.08314e-07)
(318.335 -1.38474e-06 -4.08556e-08)
(318.335 -1.16543e-06 6.91453e-09)
(318.334 -8.95171e-07 3.60995e-08)
(318.331 -5.85913e-07 4.38023e-08)
(318.327 -3.60113e-07 3.86409e-08)
(318.324 -2.90432e-07 3.42773e-08)
(318.321 -1.7729e-07 2.53522e-08)
(318.318 -5.6225e-08 1.58948e-08)
(318.316 4.02082e-08 1.00197e-08)
(318.315 1.10647e-07 6.50199e-09)
(318.314 1.4687e-07 4.64848e-09)
(318.315 1.54326e-07 3.97949e-09)
(318.315 1.59086e-07 3.20229e-09)
(318.313 1.61751e-07 2.44506e-09)
(318.311 1.60076e-07 1.80853e-09)
(318.308 1.50448e-07 1.37127e-09)
(318.307 1.37778e-07 1.34969e-09)
(318.306 1.28345e-07 1.33612e-09)
(318.306 1.09721e-07 9.82617e-10)
(318.308 8.78015e-08 4.48933e-10)
(318.312 6.665e-08 3.50903e-11)
(318.318 4.79913e-08 -1.38454e-10)
(318.321 3.46295e-08 -1.73925e-10)
(318.322 2.92438e-08 -1.25648e-10)
(318.323 1.8359e-08 -3.46172e-11)
(318.323 4.51693e-09 1.16069e-10)
(318.321 -8.98711e-09 5.71337e-10)
(318.32 -2.09437e-08 1.10865e-09)
(318.319 -3.24571e-08 1.7183e-09)
(318.32 -3.7561e-08 1.99547e-09)
(318.323 -3.72187e-08 1.97374e-09)
(318.327 -3.5054e-08 1.85478e-09)
(318.328 -3.14734e-08 1.67847e-09)
(318.328 -2.58721e-08 1.36804e-09)
(318.328 -1.82794e-08 9.73252e-10)
(318.328 -1.20856e-08 5.50554e-10)
(318.327 -1.11538e-08 4.06903e-10)
(318.326 -1.05913e-08 4.05182e-10)
(318.325 -9.77076e-09 2.43855e-10)
(318.325 -9.48254e-09 2.22541e-10)
(318.326 -1.31704e-08 6.97022e-10)
(318.327 -9.04528e-09 8.88334e-10)
(318.325 2.15934e-09 6.57958e-10)
(318.324 8.568e-09 3.13357e-10)
(318.323 1.24366e-08 8.59431e-12)
(318.322 2.23684e-08 -6.56522e-10)
(318.321 2.20846e-08 -8.12179e-10)
(318.321 1.35179e-08 -4.62451e-10)
(318.321 1.62777e-08 -5.9388e-10)
(318.323 9.86431e-10 7.56485e-11)
(318.325 -2.47349e-08 9.6678e-10)
(318.324 -2.63584e-08 1.04503e-09)
(318.322 -7.83854e-09 6.07699e-10)
(318.321 4.606e-09 1.63064e-11)
(318.319 5.24465e-08 -1.31522e-09)
(318.317 7.7033e-08 -2.58857e-09)
(318.316 1.09438e-07 -4.00985e-09)
(318.315 9.3903e-08 -4.25221e-09)
(318.316 6.57077e-09 -1.06399e-09)
(318.318 -3.61075e-08 1.95046e-10)
(318.318 -5.20261e-08 5.68996e-10)
(318.318 -2.76514e-08 4.3959e-10)
(318.319 -7.07026e-08 2.90273e-09)
(318.319 1.20404e-08 7.05822e-10)
(318.319 2.12978e-07 -6.92846e-09)
(318.319 4.22396e-07 -1.55753e-08)
(318.32 4.63012e-07 -1.77578e-08)
(318.322 5.48643e-07 -2.13206e-08)
(318.325 6.69261e-07 -2.65131e-08)
(318.325 8.69645e-07 -3.52156e-08)
(318.325 9.27116e-07 -3.83698e-08)
(318.325 1.26602e-06 -5.17895e-08)
(318.324 1.47481e-06 -6.04475e-08)
(318.323 1.94711e-06 -7.99806e-08)
(318.323 2.07138e-06 -8.8775e-08)
(318.323 2.35752e-06 -1.03047e-07)
(318.325 2.22395e-06 -1.00286e-07)
(318.328 1.78768e-06 -8.8187e-08)
(318.328 1.01682e-06 -6.01353e-08)
(318.327 7.64252e-08 -2.24014e-08)
(318.327 -1.39215e-06 4.47939e-08)
(318.327 -2.12985e-06 6.51739e-09)
(318.327 -3.73116e-06 1.23163e-07)
(318.329 -3.25032e-06 1.20733e-07)
(318.338 -3.11174e-06 1.22161e-07)
(318.356 -3.53912e-06 1.60926e-07)
(318.388 -1.93953e-06 1.29705e-07)
(318.434 -7.0501e-07 5.0193e-08)
(318.493 -3.04926e-07 3.49416e-08)
(318.56 -3.21712e-08 7.44712e-08)
(318.612 1.53481e-06 5.25748e-08)
(318.628 2.19604e-06 -2.46275e-08)
(318.614 5.3762e-06 -2.57451e-07)
(318.349 4.82042e-06 -1.01176e-07)
(318.199 2.20792e-06 4.57864e-08)
(318.586 4.01228e-07 8.22273e-08)
(318.486 1.05518e-06 -2.05738e-08)
(318.328 -6.47007e-07 3.64407e-08)
(318.272 3.5374e-06 -1.01563e-07)
(318.24 1.08157e-05 -1.84665e-07)
(318.216 2.94531e-05 -8.57084e-07)
(318.21 6.19794e-05 -1.66298e-06)
(318.219 3.65524e-05 -2.24536e-06)
(318.25 -1.52038e-05 4.65112e-07)
(318.337 -0.000317221 7.38489e-06)
(318.413 -0.00096457 3.65108e-05)
(318.412 -0.000585728 2.32143e-05)
(318.398 0.000210252 4.02698e-06)
(318.434 0.00135131 9.14073e-06)
(318.64 0.0165265 -0.000564533)
(319.24 0.0300983 -0.000965027)
(320.239 0.0455219 -0.0023923)
(321.286 0.0368148 -0.000836018)
(322.087 0.0412046 -0.00144321)
(322.555 0.0410312 -0.00259326)
(322.797 0.0254041 -0.00159452)
(322.908 0.015376 -0.000481836)
(322.931 0.0161094 -0.000426577)
(322.858 0.0206583 -0.000743292)
(322.768 0.0266379 -0.00122232)
(322.667 0.0357924 -0.00166454)
(322.551 0.0530437 -0.00219296)
(322.406 0.0863545 -0.003356)
(322.247 0.134551 -0.00528807)
(322.088 0.200172 -0.00788927)
(321.936 0.312947 -0.0124413)
(321.617 0.575467 -0.0226701)
(320.885 0.528089 -0.0220094)
(320.524 0.475809 -0.0204867)
(320.189 0.416407 -0.0203982)
(319.896 0.357777 -0.0169939)
(319.624 0.332961 -0.0124185)
(319.375 0.291642 -0.0124361)
(319.15 0.249519 -0.0130167)
(318.947 0.226735 -0.011089)
(318.767 0.206224 -0.00921632)
(318.615 0.178947 -0.00810505)
(318.515 0.151702 -0.00666552)
(318.453 0.135508 -0.00579589)
(318.407 0.120979 -0.00570546)
(318.37 0.110342 -0.00605076)
(318.329 0.0983674 -0.00552206)
(318.282 0.0857503 -0.00430771)
(318.23 0.0747309 -0.00312084)
(318.173 0.0677314 -0.00253584)
(318.104 0.0649196 -0.00263224)
(318.025 0.0624124 -0.00288563)
(317.953 0.0550967 -0.0028665)
(317.906 0.0417773 -0.00246669)
(317.882 0.0292838 -0.00197052)
(317.87 0.0195131 -0.00149009)
(317.867 0.0138256 -0.00109558)
(317.867 0.0109067 -0.000789152)
(317.858 0.0086608 -0.000565013)
(317.838 0.00728673 -0.000466665)
(317.813 0.00569218 -0.000403213)
(317.782 0.00485904 -0.000466397)
(317.74 0.00488664 -0.000612795)
(317.69 0.00460205 -0.000708616)
(317.654 0.00143754 -0.000642096)
(317.642 -0.00369589 -0.000438688)
(317.64 -0.0161736 0.000113394)
(317.653 -0.0429063 0.00126801)
(317.686 -0.0830276 0.00287954)
(317.734 -0.131851 0.00506922)
(317.79 -0.177702 0.00745869)
(317.849 -0.202769 0.00882319)
(317.904 -0.205895 0.00890151)
(317.946 -0.196363 0.00823063)
(317.985 -0.178831 0.00749223)
(318.012 -0.142729 0.00661065)
(318.034 -0.0790451 0.0051244)
(318.042 0.01934 0.00215243)
(318.031 0.150533 -0.00275709)
(317.983 0.297199 -0.00964325)
(317.931 0.402149 -0.0155784)
(317.877 0.43078 -0.0176023)
(317.793 0.425383 -0.0175893)
(317.705 0.391814 -0.0163087)
(317.624 0.29007 -0.0121816)
(317.577 0.120197 -0.00505275)
(317.558 -0.061264 0.00252926)
(317.558 -0.184527 0.00787024)
(317.588 -0.224159 0.00987508)
(317.624 -0.223461 0.0100367)
(317.662 -0.206162 0.00949132)
(317.699 -0.163566 0.00768175)
(317.732 -0.0960542 0.00442053)
(317.752 -0.0195428 0.000649118)
(317.747 0.0311952 -0.00163381)
(317.73 0.0487765 -0.0021945)
(317.708 0.0456469 -0.00168841)
(317.687 0.0265488 -0.000538959)
(317.668 -0.00121723 0.000674239)
(317.646 -0.0231572 0.001484)
(317.628 -0.0327771 0.00178014)
(317.624 -0.0329469 0.00171362)
(317.629 -0.0293549 0.00151276)
(317.636 -0.0194751 0.00102042)
(317.642 -0.00326761 0.000257849)
(317.642 0.010795 -0.000410316)
(317.637 0.0183206 -0.000788531)
(317.627 0.0198849 -0.000889036)
(317.613 0.016337 -0.000738538)
(317.593 0.0102787 -0.000441256)
(317.571 0.00426932 -0.000171263)
(317.54 0.000252421 4.24167e-05)
(317.46 -0.00119484 0.000166928)
(317.083 -0.000914831 0.000278533)
(314.863 0.000716892 0.0003263)
(301.717 0.00286294 0.00027513)
(238.504 0.00363087 0.000147916)
(85.3266 0.00156458 2.503e-05)
(4.25033 7.64883e-05 7.22853e-08)
(0.0168415 2.78148e-07 -2.93256e-09)
(3.95625e-06 5.89371e-11 -1.07943e-11)
(1.08564e-10 2.11564e-12 -1.1642e-11)
(-2.78491e-12 1.7636e-12 -1.3195e-11)
(-1.77483e-12 2.7067e-12 -1.40397e-11)
(-9.0276e-13 2.98997e-12 -1.21049e-11)
(-2.03352e-12 3.08665e-12 -7.58421e-12)
(-4.28616e-12 1.40262e-12 -4.95152e-12)
(-3.26272e-12 -6.2331e-13 -3.96418e-12)
(-6.42102e-13 -5.48129e-13 -4.28256e-12)
(1.44727e-12 -9.13668e-13 -5.66252e-12)
(2.49896e-12 -1.615e-12 -7.2639e-12)
(3.4929e-12 -1.19542e-12 -5.66736e-12)
(3.15429e-12 -1.25838e-12 -3.20265e-12)
(2.78714e-12 -2.4928e-12 -1.05619e-12)
(9.03747e-13 -1.95233e-12 4.80039e-13)
(-9.3851e-13 -2.97219e-12 1.33357e-12)
(4.60411e-13 -3.90698e-12 2.7869e-12)
(1.14552e-12 -5.06482e-12 4.77189e-12)
(-1.1677e-13 -5.69036e-12 4.86678e-12)
(-2.92472e-13 -6.96861e-12 5.9011e-12)
(2.62524e-12 -7.52331e-12 7.11445e-12)
(5.47499e-12 -6.40191e-12 7.9795e-12)
(5.6296e-12 -4.27882e-12 7.76205e-12)
(7.59352e-12 -4.01381e-12 8.03626e-12)
(8.15806e-12 -2.20345e-12 8.02149e-12)
(6.41868e-12 -1.69308e-12 8.80234e-12)
(5.1068e-12 -2.12412e-12 1.08042e-11)
(4.6198e-12 -3.22382e-12 1.14994e-11)
(4.47971e-12 -3.75743e-12 9.06179e-12)
(2.85804e-12 -3.84082e-12 6.47476e-12)
(3.91861e-12 -4.5679e-12 5.13853e-12)
(5.21795e-12 -3.24863e-12 4.34505e-12)
(5.01682e-12 -2.07645e-12 3.82501e-12)
(5.6023e-12 -1.62771e-12 3.06766e-12)
(5.79935e-12 -1.59431e-12 2.18311e-12)
(4.19899e-12 -2.79748e-12 1.3532e-12)
(3.44576e-12 -3.85021e-12 -1.63114e-12)
(5.08446e-12 -4.20605e-12 -5.20068e-12)
(7.29489e-12 -1.76358e-12 -7.44442e-12)
(7.44734e-12 -3.81876e-13 -8.33712e-12)
(6.32316e-12 5.62322e-13 -7.62578e-12)
(4.34672e-12 8.8366e-13 -7.72003e-12)
(4.19067e-12 5.42506e-13 -5.08309e-12)
(2.5647e-12 1.97922e-12 -2.87173e-12)
(-4.07057e-13 6.31485e-13 -3.25982e-13)
(-3.68317e-12 -2.76351e-13 2.23259e-12)
(-4.86617e-12 -2.51841e-12 3.22967e-12)
(-1.83506e-12 -4.17154e-12 3.91446e-12)
(-1.11735e-12 -3.68823e-12 4.43776e-12)
(-1.48294e-12 -3.16945e-12 4.26563e-12)
(-7.18368e-13 -3.0278e-12 2.20786e-12)
(-1.71075e-12 -3.06972e-12 1.68648e-12)
(-1.80281e-12 -3.23818e-12 3.36945e-12)
(-1.65857e-12 -1.87314e-12 4.55866e-12)
(-7.95249e-13 -1.50625e-12 4.89549e-12)
(-1.24876e-12 6.14542e-13 4.76549e-12)
(-4.72679e-12 1.71802e-12 4.70435e-12)
(-5.2579e-12 2.92347e-12 4.59606e-12)
(-7.84823e-12 1.84807e-12 4.87044e-12)
(-9.05445e-12 -3.0809e-13 6.24417e-12)
(-1.09241e-11 -8.41733e-13 5.89561e-12)
(-1.27165e-11 -2.60382e-12 3.86963e-12)
(-1.2093e-11 -6.0851e-12 3.07989e-12)
(-9.20297e-12 -8.58377e-12 1.17853e-12)
(-5.54454e-12 -8.59898e-12 -1.21238e-12)
(-2.93749e-12 -5.42296e-12 -3.84804e-12)
(1.67438e-13 -3.35398e-12 -5.99607e-12)
(1.09928e-12 -1.53199e-12 -4.57034e-12)
(-5.26933e-13 -3.50345e-13 -3.99854e-12)
(-2.23047e-12 -2.46082e-13 -4.54144e-13)
(-3.05086e-12 -2.38151e-12 2.75481e-12)
(-1.54475e-12 -4.02307e-12 2.25893e-12)
(6.75411e-13 -4.3452e-12 2.32446e-12)
(6.67333e-13 -3.87653e-12 3.27745e-12)
(3.62955e-13 -3.66027e-12 2.88906e-12)
(8.28366e-13 -3.79791e-12 4.04661e-12)
(1.42779e-12 -4.63767e-12 6.6163e-12)
(1.8365e-12 -5.27028e-12 5.74813e-12)
(2.90592e-12 -5.39398e-12 6.92979e-12)
(4.77068e-12 -5.72855e-12 6.06053e-12)
(5.86447e-12 -4.94116e-12 5.74214e-12)
(3.65022e-12 -3.6851e-12 3.72539e-12)
(1.15957e-12 -3.64356e-12 2.37747e-12)
(9.14644e-13 -4.05308e-12 8.45516e-13)
(1.87912e-12 -3.46648e-12 -5.83899e-13)
(2.3174e-12 -9.96568e-13 2.51506e-13)
(8.26383e-13 1.11172e-12 7.90192e-13)
(1.03909e-12 1.50103e-12 2.18045e-13)
(6.24826e-13 2.76349e-12 -8.39978e-13)
(9.11389e-14 2.20255e-12 -1.9122e-12)
(-9.32302e-13 1.89932e-12 -1.31625e-12)
(-2.05279e-12 1.25621e-12 -9.18849e-13)
(-8.38485e-13 4.28568e-13 -8.06187e-13)
(-8.83714e-13 5.80084e-13 -9.67401e-13)
(-2.60675e-12 -3.84624e-14 -7.94376e-13)
(-2.30958e-12 -6.88361e-13 -3.51204e-13)
(-3.26849e-12 -2.69975e-13 -3.54669e-13)
(-3.70092e-12 1.19503e-14 1.1677e-12)
(-4.7768e-12 -9.65346e-13 1.91741e-12)
(-5.94955e-12 -2.50591e-12 1.52637e-12)
(-4.17571e-12 -2.98233e-12 6.28108e-13)
(-4.5227e-12 -2.25966e-12 -1.63843e-12)
(-6.8463e-12 -8.95272e-13 -2.47683e-12)
(-8.75379e-12 -1.62237e-12 -3.32334e-12)
(-6.93227e-12 -8.40591e-13 -5.82718e-12)
(-5.21601e-12 2.98151e-13 -1.01291e-11)
(-9.03506e-12 -1.22509e-12 -1.49877e-11)
(-9.54511e-12 -3.65214e-12 -2.07991e-11)
(-8.07887e-12 -5.75734e-12 -2.20376e-11)
(-7.47922e-12 -7.42276e-12 -1.89988e-11)
(-2.97932e-12 -8.45173e-12 -1.60548e-11)
(-2.05235e-12 -6.42485e-12 -1.05736e-11)
(-2.25044e-12 -5.97966e-12 -3.91624e-12)
(7.04471e-13 -4.86799e-12 -3.46383e-12)
(3.48592e-12 -1.83615e-12 -3.44062e-12)
(4.47445e-12 1.81759e-12 -2.15618e-12)
(4.02621e-12 2.92504e-12 1.48158e-12)
(2.74381e-12 3.06795e-12 2.42868e-13)
(3.50691e-12 1.8448e-12 -2.37245e-12)
(5.48402e-12 1.88501e-12 -4.56965e-12)
(4.87112e-12 1.30293e-12 -7.58904e-12)
(4.56443e-12 3.01544e-12 -9.57503e-12)
(3.86341e-12 2.44168e-12 -1.19073e-11)
(4.15257e-12 1.40694e-12 -1.14286e-11)
(4.30049e-12 1.59376e-12 -1.07855e-11)
(4.15655e-12 2.30813e-12 -1.04047e-11)
(1.79746e-12 2.3648e-12 -6.10375e-12)
(1.06544e-12 1.4376e-12 -1.12592e-12)
(1.26937e-12 8.74371e-13 7.74671e-13)
(-1.14851e-12 7.18633e-14 8.33669e-13)
(-2.84359e-12 -1.82276e-12 2.24196e-12)
(-4.05905e-12 -3.26749e-12 4.01072e-12)
(-2.54945e-12 -3.3957e-12 5.44019e-12)
(4.78833e-13 -3.12137e-12 2.78421e-12)
(2.665e-12 -3.73556e-12 -3.01245e-12)
(5.54364e-12 -3.28403e-12 -5.73205e-12)
(5.75663e-12 -2.73215e-12 -6.00035e-12)
(4.46379e-12 -2.96946e-12 -6.40883e-12)
(2.6361e-12 -3.06626e-12 -3.54069e-12)
(3.84679e-12 -4.36408e-12 -1.22827e-12)
(3.43649e-12 -3.5015e-12 -4.47307e-13)
(2.43202e-12 -3.86517e-12 -3.72254e-13)
(3.47617e-12 -2.81973e-12 8.46429e-13)
(3.26745e-12 -7.43771e-13 1.33965e-12)
(3.24851e-12 6.16786e-13 1.08901e-12)
(3.38891e-12 -8.6287e-13 7.8014e-13)
(3.44942e-12 -1.95258e-12 -4.66317e-13)
(4.52012e-12 -3.22788e-12 -5.68282e-13)
(4.78286e-12 -2.82499e-12 -6.18461e-13)
(4.54038e-12 -3.03748e-12 -7.78325e-13)
(7.05917e-12 -3.11005e-12 -7.69111e-13)
(7.45472e-12 -1.87013e-12 -1.25261e-12)
(5.61578e-12 -6.8612e-13 -1.55151e-12)
(3.20296e-12 -1.00598e-12 -1.56521e-12)
(2.10229e-12 -1.89058e-12 -9.41353e-13)
(2.75058e-12 -3.23756e-12 -4.72025e-13)
(4.05467e-12 -3.49042e-12 -1.51818e-13)
(3.36963e-12 -2.56871e-12 -5.97218e-13)
(8.98938e-13 -2.30487e-12 -9.34106e-13)
(-8.01373e-13 -2.04378e-12 9.04501e-13)
(-2.18329e-12 -2.50772e-12 2.38573e-12)
(-1.58137e-12 -2.9871e-12 3.87276e-12)
(-1.3732e-12 -8.32227e-13 5.34252e-12)
(-2.13707e-12 -4.88019e-13 6.6938e-12)
(-1.59632e-12 -2.32931e-13 7.02145e-12)
(-1.3267e-12 6.2029e-13 5.32517e-12)
(-2.84144e-12 1.09297e-12 3.54284e-12)
(-5.10375e-12 -6.87953e-13 2.74875e-12)
(-8.48757e-12 -1.63354e-12 6.00198e-13)
(-9.17271e-12 -4.33527e-12 -2.3343e-12)
(-7.53037e-12 -7.16196e-12 -2.17029e-12)
(-4.81054e-12 -8.4353e-12 -2.453e-12)
(-3.11399e-12 -7.32646e-12 -2.45766e-12)
(-2.23169e-12 -6.7873e-12 -1.82784e-12)
(-2.4293e-12 -5.58293e-12 -2.61912e-12)
(-2.78543e-12 -6.01246e-12 -3.72331e-12)
(-4.23119e-12 -5.58673e-12 -4.36085e-12)
(-5.1799e-12 -6.44363e-12 -4.54407e-12)
(-2.80228e-12 -8.25534e-12 -3.36247e-12)
(8.98139e-14 -9.62817e-12 -2.98748e-12)
(4.64156e-12 -1.14284e-11 -2.10951e-12)
(9.33359e-12 -9.09449e-12 -1.91181e-12)
(1.05436e-11 -5.86978e-12 -2.37447e-12)
(8.96167e-12 -4.16725e-12 -2.6401e-12)
(9.45014e-12 -3.72207e-12 -3.02423e-12)
(8.41149e-12 -3.09154e-12 -3.33037e-12)
(7.88216e-12 -3.6833e-12 -3.87132e-12)
(8.46563e-12 -3.03162e-12 -4.73864e-12)
(8.25261e-12 -3.79661e-12 -5.83743e-12)
(347.059 -2.20161e-11 -1.17269e-11)
(347.059 -2.06611e-11 -1.3575e-11)
(347.059 -2.26061e-11 -1.20288e-11)
(347.059 -2.54081e-11 -1.13573e-11)
(347.059 -2.37875e-11 -5.47542e-12)
(347.059 -7.19821e-11 -1.07695e-10)
(347.059 5.43219e-10 1.44578e-09)
(347.059 -4.43338e-09 -1.28439e-08)
(347.058 -1.52423e-08 -6.05978e-09)
(347.017 7.28528e-08 1.01121e-06)
(346.006 4.29983e-05 5.43703e-05)
(334.259 -0.000625789 -0.00108114)
(319.784 5.75616e-05 0.000403119)
(318.75 0.000797375 0.00143892)
(318.72 0.000545682 0.000882671)
(318.681 7.3603e-05 -0.000103586)
(318.646 -0.000398793 -0.00105125)
(318.617 -0.000611953 -0.00144679)
(318.59 -0.000741902 -0.00164567)
(318.556 -0.000679068 -0.00142418)
(318.52 -0.000312251 -0.000558763)
(318.492 -0.000112431 -9.95552e-05)
(318.47 0.000287568 0.000758995)
(318.445 0.000511846 0.00121208)
(318.413 0.000507482 0.00112616)
(318.387 0.000410576 0.000849629)
(318.368 0.000341241 0.000702541)
(318.352 0.00018124 0.00036346)
(318.336 3.30667e-05 5.17e-05)
(318.317 -5.95083e-05 -0.000120278)
(318.302 -9.00334e-05 -0.000161383)
(318.296 -8.50953e-05 -0.00013745)
(318.294 -6.48506e-05 -9.1276e-05)
(318.291 -3.72144e-05 -4.05381e-05)
(318.287 -1.58797e-05 -4.30618e-06)
(318.282 -5.20592e-06 1.2024e-05)
(318.278 5.20456e-06 2.46654e-05)
(318.27 9.42474e-06 2.51498e-05)
(318.262 7.8814e-06 1.74641e-05)
(318.259 4.07961e-06 8.20655e-06)
(318.26 2.14807e-06 3.62002e-06)
(318.266 6.14749e-07 -1.02049e-07)
(318.275 -3.71925e-07 -3.11404e-06)
(318.284 9.75535e-08 -3.77925e-06)
(318.291 1.4963e-06 -2.88657e-06)
(318.297 2.68267e-06 -1.53944e-06)
(318.303 2.97445e-06 -9.64412e-07)
(318.308 3.24479e-06 -7.86468e-08)
(318.313 3.20301e-06 5.73716e-07)
(318.316 2.69334e-06 7.32726e-07)
(318.32 1.82299e-06 5.38813e-07)
(318.326 1.1279e-06 3.03653e-07)
(318.333 6.72324e-07 1.44608e-07)
(318.337 -5.32722e-08 -8.26254e-08)
(318.338 -7.63436e-07 -2.21823e-07)
(318.339 -1.31216e-06 -2.60852e-07)
(318.34 -1.73187e-06 -2.40925e-07)
(318.34 -1.81258e-06 -1.91061e-07)
(318.338 -1.75397e-06 -1.61299e-07)
(318.337 -1.57568e-06 -9.91735e-08)
(318.335 -1.35193e-06 -3.06672e-08)
(318.335 -1.12887e-06 1.80054e-08)
(318.334 -8.55556e-07 4.61236e-08)
(318.331 -5.44719e-07 4.81567e-08)
(318.327 -3.20931e-07 3.9325e-08)
(318.324 -2.56551e-07 3.46568e-08)
(318.321 -1.55367e-07 2.55543e-08)
(318.318 -4.92097e-08 1.56595e-08)
(318.316 3.34835e-08 9.72357e-09)
(318.315 9.22816e-08 6.22715e-09)
(318.314 1.23888e-07 4.29895e-09)
(318.315 1.31755e-07 3.60935e-09)
(318.315 1.38797e-07 2.90028e-09)
(318.313 1.45529e-07 2.31215e-09)
(318.311 1.50475e-07 1.78328e-09)
(318.308 1.48156e-07 1.30626e-09)
(318.307 1.39281e-07 1.28706e-09)
(318.306 1.324e-07 1.3124e-09)
(318.306 1.17866e-07 9.68792e-10)
(318.308 9.81366e-08 3.63642e-10)
(318.312 7.7864e-08 -1.92674e-10)
(318.318 5.83175e-08 -4.16005e-10)
(318.321 4.19285e-08 -3.08681e-10)
(318.322 3.48913e-08 -1.73704e-10)
(318.323 2.11879e-08 3.27617e-12)
(318.323 3.64254e-09 1.98158e-10)
(318.321 -1.22901e-08 6.59563e-10)
(318.32 -2.49917e-08 1.07739e-09)
(318.319 -3.53476e-08 1.49902e-09)
(318.32 -3.89039e-08 1.62419e-09)
(318.323 -3.78402e-08 1.57198e-09)
(318.327 -3.47064e-08 1.45041e-09)
(318.328 -3.03949e-08 1.26173e-09)
(318.328 -2.35653e-08 8.8917e-10)
(318.328 -1.5735e-08 5.10701e-10)
(318.328 -1.07006e-08 2.5833e-10)
(318.327 -1.0498e-08 2.72214e-10)
(318.326 -1.04065e-08 2.84607e-10)
(318.325 -1.02538e-08 1.9214e-10)
(318.325 -9.74921e-09 2.78559e-10)
(318.326 -1.29956e-08 7.58073e-10)
(318.327 -1.00299e-08 9.65584e-10)
(318.325 1.91041e-09 6.64611e-10)
(318.324 9.02588e-09 2.57999e-10)
(318.323 1.35925e-08 -1.03441e-10)
(318.322 2.41157e-08 -7.9921e-10)
(318.321 2.34137e-08 -9.0323e-10)
(318.321 1.4157e-08 -5.77851e-10)
(318.321 6.93354e-09 -2.24624e-10)
(318.323 7.76069e-11 -5.78223e-12)
(318.325 -1.95475e-08 8.58005e-10)
(318.324 -2.52664e-08 9.81984e-10)
(318.322 -1.21512e-08 6.43103e-10)
(318.321 -2.24646e-09 3.74278e-10)
(318.319 4.44218e-08 -1.08626e-09)
(318.317 7.63095e-08 -2.77359e-09)
(318.316 1.25435e-07 -4.75212e-09)
(318.315 1.1429e-07 -4.97555e-09)
(318.316 9.41525e-09 -1.04715e-09)
(318.318 -4.78052e-08 7.57068e-10)
(318.318 -6.98247e-08 1.48963e-09)
(318.318 -5.10357e-08 1.66122e-09)
(318.319 -1.04799e-07 4.75179e-09)
(318.319 -4.33064e-08 2.67351e-09)
(318.319 1.62492e-07 -5.09186e-09)
(318.319 4.19032e-07 -1.48795e-08)
(318.32 4.78951e-07 -1.77408e-08)
(318.322 5.57064e-07 -2.1197e-08)
(318.325 6.72967e-07 -2.65012e-08)
(318.325 8.54015e-07 -3.45409e-08)
(318.325 9.33464e-07 -3.87925e-08)
(318.325 1.19668e-06 -4.93245e-08)
(318.324 1.39923e-06 -5.77718e-08)
(318.323 1.80861e-06 -7.48711e-08)
(318.323 2.07151e-06 -8.76601e-08)
(318.323 2.33704e-06 -1.01303e-07)
(318.325 2.39754e-06 -1.06283e-07)
(318.328 2.18044e-06 -1.02591e-07)
(318.328 1.55852e-06 -8.08683e-08)
(318.327 7.42793e-07 -5.21242e-08)
(318.327 -7.20623e-07 9.4054e-09)
(318.327 -1.72204e-06 -1.7068e-09)
(318.327 -3.67167e-06 1.25755e-07)
(318.329 -3.74836e-06 1.26771e-07)
(318.338 -4.24857e-06 1.61624e-07)
(318.356 -4.67275e-06 2.02124e-07)
(318.388 -3.67858e-06 1.78543e-07)
(318.434 -2.78078e-06 1.42096e-07)
(318.493 -2.42363e-06 1.28576e-07)
(318.56 -1.98819e-06 1.50328e-07)
(318.612 -6.10638e-07 8.90871e-08)
(318.628 7.57125e-10 4.62539e-08)
(318.614 2.38597e-06 -1.0292e-07)
(318.349 1.55037e-06 -1.72937e-09)
(318.199 -8.61341e-07 1.36535e-07)
(318.586 -5.99747e-07 8.31454e-08)
(318.486 3.95212e-08 2.05994e-08)
(318.328 -2.53769e-06 1.26924e-07)
(318.272 1.77674e-06 -5.88147e-09)
(318.24 8.99072e-06 -1.34241e-07)
(318.216 2.73564e-05 -7.54892e-07)
(318.209 5.75233e-05 -1.5957e-06)
(318.22 2.62279e-05 -1.75659e-06)
(318.25 -2.71658e-05 3.43083e-07)
(318.337 -0.000350801 8.84445e-06)
(318.413 -0.000937375 3.70502e-05)
(318.412 -0.000519711 2.16578e-05)
(318.396 0.000260252 6.02041e-07)
(318.428 0.00152743 7.45197e-06)
(318.628 0.0155673 -0.000543379)
(319.222 0.0280814 -0.000948038)
(320.229 0.0410495 -0.00207481)
(321.29 0.0311333 -0.000795537)
(322.096 0.0370865 -0.00139174)
(322.56 0.0362362 -0.00219154)
(322.801 0.023662 -0.00137825)
(322.91 0.0168864 -0.000580313)
(322.932 0.0196107 -0.000640222)
(322.856 0.0235997 -0.000893324)
(322.761 0.028229 -0.00125614)
(322.652 0.0359082 -0.00163744)
(322.525 0.0520061 -0.00214671)
(322.366 0.0817743 -0.00326744)
(322.188 0.124912 -0.00504773)
(322.005 0.187233 -0.00747412)
(321.818 0.279888 -0.0113383)
(321.482 0.439698 -0.0180719)
(320.905 0.412441 -0.0177876)
(320.521 0.394411 -0.0172813)
(320.184 0.350522 -0.0177144)
(319.892 0.303694 -0.0151864)
(319.623 0.286643 -0.0107109)
(319.375 0.2504 -0.0108369)
(319.15 0.211819 -0.0115657)
(318.947 0.191843 -0.00968197)
(318.767 0.173799 -0.00805116)
(318.615 0.148178 -0.007116)
(318.514 0.123528 -0.00562044)
(318.449 0.111616 -0.00481226)
(318.402 0.0998951 -0.00476298)
(318.365 0.0922724 -0.00543008)
(318.325 0.083219 -0.00509407)
(318.277 0.073317 -0.0038862)
(318.226 0.0647586 -0.00265408)
(318.168 0.0590494 -0.00208857)
(318.099 0.0570797 -0.00229432)
(318.02 0.0549736 -0.00256639)
(317.948 0.0479311 -0.00252074)
(317.901 0.0354156 -0.00214184)
(317.877 0.0237129 -0.00169898)
(317.866 0.013993 -0.00125277)
(317.863 0.00837259 -0.00088153)
(317.864 0.00600765 -0.000601163)
(317.854 0.00429146 -0.000396116)
(317.834 0.00318207 -0.000307439)
(317.81 0.00221044 -0.000269898)
(317.78 0.00212647 -0.000367127)
(317.738 0.00272032 -0.000542003)
(317.689 0.00272487 -0.000644177)
(317.653 -0.000378144 -0.000583422)
(317.64 -0.00543099 -0.000366154)
(317.638 -0.0174908 0.000188571)
(317.651 -0.0434509 0.0013046)
(317.683 -0.0832796 0.00287843)
(317.734 -0.129892 0.00497201)
(317.794 -0.172922 0.00724788)
(317.857 -0.200518 0.00877209)
(317.916 -0.205552 0.00893498)
(317.961 -0.194973 0.00820247)
(318.003 -0.176767 0.00744045)
(318.032 -0.141473 0.00661287)
(318.056 -0.0798892 0.0051901)
(318.066 0.0160134 0.00227704)
(318.051 0.144952 -0.00259823)
(317.998 0.291598 -0.00939328)
(317.939 0.399051 -0.0154594)
(317.878 0.428635 -0.017594)
(317.79 0.424023 -0.017614)
(317.698 0.389982 -0.0163462)
(317.615 0.285682 -0.0121221)
(317.565 0.111716 -0.00481613)
(317.541 -0.0703078 0.0027916)
(317.543 -0.186301 0.00790673)
(317.578 -0.22274 0.00977904)
(317.618 -0.221864 0.00999047)
(317.66 -0.203811 0.00946127)
(317.699 -0.161559 0.00768562)
(317.733 -0.0938356 0.00441201)
(317.755 -0.0162283 0.000567075)
(317.75 0.035581 -0.00176946)
(317.732 0.0532899 -0.00234472)
(317.71 0.0496072 -0.00181488)
(317.688 0.0292311 -0.00061345)
(317.668 0.00263304 0.00054871)
(317.646 -0.0183677 0.00129931)
(317.628 -0.026961 0.0015421)
(317.624 -0.0279019 0.00149968)
(317.63 -0.0248437 0.00131823)
(317.636 -0.0159305 0.000870478)
(317.642 0.000186751 0.000112937)
(317.643 0.0155229 -0.000595793)
(317.638 0.0233596 -0.00097727)
(317.629 0.0245572 -0.00105628)
(317.614 0.0203778 -0.00087603)
(317.595 0.0136501 -0.000553025)
(317.573 0.00747555 -0.000288224)
(317.545 0.00329638 -0.000132449)
(317.469 0.00107433 -8.00719e-05)
(317.096 0.00269183 -0.000205339)
(314.881 0.00781693 -0.000457588)
(301.739 0.0137823 -0.000652184)
(238.531 0.0145518 -0.000571523)
(85.3457 0.00533321 -0.00019039)
(4.25182 0.00022271 -7.72916e-06)
(0.0168484 7.03097e-07 -2.40662e-08)
(3.95792e-06 1.29037e-10 -1.35995e-11)
(1.08858e-10 2.77635e-12 -1.11374e-11)
(-3.72545e-12 2.39937e-12 -1.26678e-11)
(-2.45693e-12 3.37608e-12 -1.24135e-11)
(-1.09282e-12 3.09517e-12 -1.05846e-11)
(-1.63655e-12 2.35068e-12 -7.37021e-12)
(-2.49465e-12 1.65048e-12 -4.37585e-12)
(-2.98106e-12 -4.22099e-13 -2.8699e-12)
(-1.26407e-12 6.82773e-14 -4.07476e-12)
(1.59114e-12 -1.33284e-14 -5.67851e-12)
(2.21995e-12 -8.69385e-13 -7.5839e-12)
(3.07091e-12 -6.65503e-13 -5.78796e-12)
(3.65573e-12 -5.8492e-14 -3.27295e-12)
(2.76351e-12 -1.42983e-12 -8.8111e-13)
(1.22423e-12 -4.54107e-13 9.20725e-13)
(-4.95428e-13 -1.85195e-12 1.55473e-12)
(8.96516e-13 -3.18485e-12 2.58788e-12)
(1.75965e-12 -3.95825e-12 4.04988e-12)
(4.86791e-13 -4.4774e-12 4.38007e-12)
(5.24477e-13 -5.76955e-12 4.95693e-12)
(2.59559e-12 -5.63804e-12 6.39704e-12)
(3.83856e-12 -5.57418e-12 7.75594e-12)
(5.20325e-12 -3.5042e-12 7.49319e-12)
(7.09936e-12 -3.1336e-12 7.95517e-12)
(7.15057e-12 -1.19463e-12 7.7916e-12)
(6.69791e-12 -8.16821e-13 8.13139e-12)
(5.89831e-12 -1.47415e-12 8.5549e-12)
(5.43605e-12 -2.49273e-12 8.78488e-12)
(4.52212e-12 -2.69611e-12 7.14545e-12)
(3.31707e-12 -3.05099e-12 5.69117e-12)
(3.66793e-12 -4.01698e-12 4.88014e-12)
(4.24288e-12 -3.10439e-12 4.30665e-12)
(4.8548e-12 -1.60647e-12 3.89039e-12)
(5.54775e-12 -2.07525e-12 3.40574e-12)
(6.13766e-12 -1.88238e-12 2.41622e-12)
(5.01912e-12 -2.56126e-12 1.4001e-12)
(4.0076e-12 -2.38245e-12 -1.68198e-12)
(4.17627e-12 -3.16377e-12 -5.14347e-12)
(6.14462e-12 -9.27949e-13 -7.42793e-12)
(7.34283e-12 8.20398e-13 -8.13005e-12)
(6.53894e-12 1.20698e-12 -7.54917e-12)
(5.37936e-12 1.45794e-12 -6.42498e-12)
(3.56751e-12 8.67759e-13 -4.25068e-12)
(1.70978e-12 2.72891e-12 -2.66602e-12)
(-1.82702e-13 1.16579e-12 1.14096e-13)
(-3.15191e-12 3.01306e-13 2.13669e-12)
(-3.17947e-12 -2.50841e-12 3.20891e-12)
(-1.31486e-12 -3.80191e-12 4.09126e-12)
(-2.22917e-12 -3.24808e-12 4.29746e-12)
(-1.75433e-12 -2.95605e-12 4.2365e-12)
(-3.72449e-15 -2.97865e-12 3.67797e-12)
(-8.35871e-13 -2.37146e-12 3.30023e-12)
(-1.72635e-12 -2.62665e-12 4.08716e-12)
(-2.06709e-12 -1.27998e-12 4.52763e-12)
(-1.76982e-12 -5.71853e-13 5.18311e-12)
(-2.59138e-12 1.52261e-12 4.72577e-12)
(-5.19326e-12 1.97403e-12 4.56667e-12)
(-5.43838e-12 2.87312e-12 4.29801e-12)
(-6.94512e-12 2.45376e-12 4.59844e-12)
(-9.10573e-12 2.30562e-13 5.43411e-12)
(-1.13149e-11 -4.03122e-13 6.02076e-12)
(-1.16515e-11 -1.95802e-12 4.03125e-12)
(-1.05168e-11 -4.37739e-12 3.50236e-12)
(-9.07116e-12 -6.56984e-12 1.41652e-12)
(-6.49931e-12 -6.78786e-12 -9.77714e-13)
(-3.81103e-12 -4.45516e-12 -3.14244e-12)
(-6.47865e-13 -2.43084e-12 -4.7696e-12)
(5.64238e-13 -1.18831e-12 -3.74924e-12)
(-7.40238e-13 9.74534e-14 -3.42063e-12)
(-1.06955e-12 2.72241e-14 -1.28842e-12)
(-1.00567e-12 -2.28219e-12 8.72976e-13)
(-6.62361e-13 -3.935e-12 1.24801e-12)
(1.76521e-13 -2.9746e-12 1.21025e-12)
(-4.96045e-14 -2.61214e-12 1.43281e-12)
(-4.7867e-13 -2.57926e-12 1.81339e-12)
(1.12996e-12 -2.66483e-12 2.56283e-12)
(2.50423e-12 -3.59207e-12 3.87257e-12)
(2.19197e-12 -4.26859e-12 3.61744e-12)
(3.24796e-12 -5.03886e-12 4.49702e-12)
(5.06569e-12 -5.41209e-12 4.15348e-12)
(4.89744e-12 -4.31526e-12 4.03453e-12)
(3.41051e-12 -2.82408e-12 3.16246e-12)