/*--------------------------------*- C++ -*----------------------------------*\
| =========                 |                                                 |
| \\      /  F ield         | OpenFOAM: The Open Source CFD Toolbox           |
|  \\    /   O peration     | Version:  2406                                  |
|   \\  /    A nd           | Website:  www.openfoam.com                      |
|    \\/     M anipulation  |                                                 |
\*---------------------------------------------------------------------------*/
FoamFile
{
    version     2.0;
    format      ascii;
    arch        "LSB;label=32;scalar=64";
    class       volScalarField;
    location    "0.055";
    object      Ma;
}
// * * * * * * * * * * * * * * * * * * * * * * * * * * * * * * * * * * * * * //

dimensions      [0 0 0 0 0 0 0];

internalField   nonuniform List<scalar> 
14020
(
0.766141
0.76616
0.766189
0.766214
0.766219
0.766216
0.766205
0.766184
0.766158
0.766138
0.766133
0.766136
0.766148
0.766171
0.766202
0.766227
0.766238
0.766245
0.766247
0.766246
0.766245
0.766246
0.766249
0.766258
0.766273
0.766292
0.766313
0.766331
0.76635
0.766374
0.766404
0.76644
0.766476
0.766499
0.766517
0.76654
0.766563
0.766574
0.766575
0.76657
0.766555
0.766531
0.7665
0.766467
0.766437
0.766414
0.7664
0.766394
0.766391
0.766388
0.766382
0.766371
0.766356
0.766338
0.766321
0.766309
0.766304
0.766303
0.766303
0.766303
0.766304
0.766303
0.7663
0.766292
0.766281
0.76627
0.766264
0.766262
0.766262
0.766262
0.766261
0.766259
0.766255
0.766248
0.766237
0.766223
0.766207
0.766191
0.766179
0.766172
0.766168
0.766166
0.766164
0.766161
0.766156
0.766148
0.766137
0.766126
0.76612
0.766118
0.766116
0.766115
0.766114
0.766113
0.766111
0.766108
0.766104
0.766097
0.766089
0.76608
0.766073
0.766068
0.766066
0.766065
0.766064
0.766062
0.766059
0.766053
0.766045
0.766034
0.766021
0.766009
0.766
0.765994
0.76599
0.765986
0.765983
0.765979
0.765973
0.765966
0.765958
0.765948
0.765938
0.765929
0.765921
0.765916
0.765911
0.765906
0.765901
0.765895
0.765886
0.765876
0.765864
0.765852
0.76584
0.765829
0.76582
0.765812
0.765806
0.765799
0.765791
0.765783
0.765773
0.765762
0.765751
0.765739
0.765729
0.76572
0.765712
0.765705
0.765698
0.76569
0.765681
0.765671
0.765659
0.765647
0.765634
0.765621
0.765609
0.765598
0.765588
0.765578
0.765568
0.765557
0.765545
0.765532
0.765517
0.765502
0.765488
0.765473
0.76546
0.765447
0.765434
0.765421
0.765407
0.765392
0.765376
0.765358
0.76534
0.765322
0.765304
0.765287
0.765271
0.765255
0.765239
0.765223
0.765206
0.765189
0.765171
0.765152
0.765134
0.765116
0.765099
0.765082
0.765065
0.765049
0.765032
0.765015
0.764996
0.764978
0.764958
0.764939
0.76492
0.764901
0.764883
0.764866
0.764849
0.764832
0.764815
0.764798
0.764781
0.764764
0.764748
0.764732
0.764715
0.764698
0.764677
0.764654
0.764628
0.764598
0.764626
0.765085
0.768503
0.779285
0.797793
0.821263
0.848125
0.876559
0.907621
0.940987
0.99134
0.766141
0.766159
0.766188
0.766213
0.766218
0.766215
0.766205
0.766184
0.766157
0.766137
0.766132
0.766135
0.766146
0.76617
0.766203
0.766228
0.76624
0.766247
0.76625
0.76625
0.766249
0.76625
0.766253
0.766262
0.766276
0.766295
0.766314
0.766332
0.76635
0.766372
0.766401
0.766438
0.766474
0.766497
0.766516
0.766539
0.766562
0.766573
0.766575
0.766569
0.766555
0.766531
0.766501
0.766468
0.766438
0.766415
0.766401
0.766395
0.766392
0.766388
0.766382
0.766372
0.766356
0.766338
0.766321
0.766309
0.766304
0.766302
0.766303
0.766303
0.766304
0.766303
0.7663
0.766292
0.766281
0.76627
0.766264
0.766262
0.766262
0.766262
0.766261
0.766259
0.766255
0.766248
0.766237
0.766223
0.766207
0.766191
0.766179
0.766172
0.766168
0.766166
0.766164
0.766161
0.766156
0.766148
0.766137
0.766126
0.76612
0.766118
0.766116
0.766115
0.766114
0.766113
0.766111
0.766108
0.766104
0.766097
0.766089
0.766081
0.766073
0.766069
0.766066
0.766065
0.766064
0.766062
0.766059
0.766054
0.766045
0.766034
0.766021
0.76601
0.766
0.765994
0.76599
0.765986
0.765983
0.765979
0.765973
0.765967
0.765958
0.765948
0.765938
0.765929
0.765921
0.765916
0.765911
0.765906
0.765901
0.765895
0.765886
0.765876
0.765864
0.765852
0.76584
0.765829
0.76582
0.765813
0.765806
0.765799
0.765791
0.765783
0.765773
0.765762
0.765751
0.765739
0.765729
0.76572
0.765712
0.765705
0.765698
0.76569
0.765681
0.765671
0.765659
0.765647
0.765634
0.765621
0.765609
0.765599
0.765588
0.765578
0.765568
0.765557
0.765545
0.765532
0.765517
0.765502
0.765488
0.765473
0.76546
0.765447
0.765434
0.765421
0.765407
0.765392
0.765376
0.765358
0.76534
0.765322
0.765304
0.765287
0.765271
0.765255
0.765239
0.765223
0.765206
0.765189
0.765171
0.765152
0.765134
0.765116
0.765099
0.765082
0.765065
0.765049
0.765032
0.765015
0.764996
0.764978
0.764958
0.764939
0.76492
0.764901
0.764883
0.764866
0.764849
0.764832
0.764815
0.764798
0.764781
0.764764
0.764748
0.764732
0.764715
0.764698
0.764677
0.764655
0.764628
0.764599
0.764625
0.765073
0.768436
0.77917
0.797732
0.821272
0.848304
0.876852
0.908019
0.941418
0.991085
0.76614
0.766158
0.766188
0.766212
0.766217
0.766214
0.766203
0.766181
0.766154
0.766133
0.766128
0.766131
0.766144
0.766168
0.766202
0.76623
0.766245
0.766253
0.766258
0.76626
0.766261
0.766262
0.766266
0.766273
0.766286
0.766302
0.766318
0.766334
0.76635
0.76637
0.766399
0.766435
0.766471
0.766494
0.766513
0.766536
0.76656
0.766572
0.766573
0.766569
0.766555
0.766532
0.766501
0.766469
0.766439
0.766416
0.766402
0.766396
0.766393
0.766389
0.766383
0.766372
0.766357
0.766339
0.766322
0.76631
0.766304
0.766302
0.766303
0.766303
0.766304
0.766303
0.7663
0.766292
0.766281
0.76627
0.766264
0.766262
0.766262
0.766262
0.766261
0.766259
0.766255
0.766248
0.766237
0.766223
0.766207
0.766191
0.766179
0.766172
0.766169
0.766166
0.766164
0.766161
0.766156
0.766148
0.766137
0.766126
0.766121
0.766118
0.766116
0.766115
0.766114
0.766113
0.766111
0.766108
0.766104
0.766097
0.766089
0.766081
0.766073
0.766069
0.766066
0.766065
0.766064
0.766062
0.766059
0.766054
0.766045
0.766034
0.766021
0.76601
0.766
0.765994
0.76599
0.765986
0.765983
0.765979
0.765974
0.765967
0.765958
0.765948
0.765938
0.765929
0.765921
0.765916
0.765911
0.765906
0.765901
0.765895
0.765886
0.765876
0.765864
0.765852
0.76584
0.765829
0.76582
0.765813
0.765806
0.765799
0.765792
0.765783
0.765773
0.765762
0.765751
0.765739
0.765729
0.76572
0.765712
0.765705
0.765698
0.76569
0.765681
0.765671
0.765659
0.765647
0.765634
0.765621
0.765609
0.765599
0.765588
0.765579
0.765568
0.765557
0.765545
0.765532
0.765517
0.765502
0.765488
0.765473
0.76546
0.765447
0.765434
0.765421
0.765407
0.765392
0.765376
0.765358
0.76534
0.765322
0.765304
0.765287
0.765271
0.765255
0.765239
0.765223
0.765206
0.765189
0.765171
0.765152
0.765134
0.765116
0.765099
0.765082
0.765065
0.765049
0.765032
0.765015
0.764996
0.764978
0.764958
0.764939
0.76492
0.764901
0.764883
0.764866
0.764849
0.764832
0.764815
0.764798
0.764781
0.764764
0.764748
0.764732
0.764715
0.764698
0.764678
0.764655
0.764629
0.764599
0.764623
0.765048
0.768303
0.778953
0.797628
0.821343
0.848632
0.877256
0.908464
0.941852
0.99054
0.766139
0.766157
0.766186
0.76621
0.766214
0.76621
0.766199
0.766176
0.766148
0.766127
0.766122
0.766125
0.766138
0.766165
0.766201
0.766234
0.766255
0.766267
0.766276
0.766282
0.766286
0.766288
0.766292
0.766297
0.766307
0.766318
0.76633
0.76634
0.766351
0.766368
0.766394
0.766429
0.766465
0.766488
0.766506
0.76653
0.766555
0.766568
0.76657
0.766567
0.766554
0.766532
0.766502
0.76647
0.76644
0.766417
0.766403
0.766397
0.766394
0.766391
0.766384
0.766374
0.766358
0.76634
0.766322
0.76631
0.766303
0.766302
0.766302
0.766303
0.766303
0.766303
0.766299
0.766292
0.766281
0.76627
0.766264
0.766262
0.766262
0.766262
0.766261
0.766259
0.766255
0.766248
0.766237
0.766223
0.766207
0.766191
0.766179
0.766172
0.766169
0.766166
0.766164
0.766161
0.766156
0.766148
0.766137
0.766126
0.766121
0.766118
0.766117
0.766116
0.766115
0.766113
0.766111
0.766108
0.766104
0.766097
0.766089
0.766081
0.766073
0.766069
0.766066
0.766065
0.766064
0.766062
0.766059
0.766054
0.766045
0.766034
0.766021
0.76601
0.766
0.765994
0.76599
0.765986
0.765983
0.765979
0.765974
0.765967
0.765958
0.765948
0.765938
0.765929
0.765921
0.765916
0.765911
0.765906
0.765901
0.765895
0.765886
0.765876
0.765864
0.765852
0.76584
0.765829
0.76582
0.765813
0.765806
0.765799
0.765792
0.765783
0.765773
0.765762
0.765751
0.765739
0.765729
0.76572
0.765712
0.765705
0.765698
0.76569
0.765681
0.765671
0.765659
0.765647
0.765634
0.765621
0.765609
0.765599
0.765588
0.765578
0.765568
0.765557
0.765545
0.765532
0.765517
0.765502
0.765488
0.765474
0.76546
0.765447
0.765434
0.765421
0.765407
0.765392
0.765376
0.765358
0.76534
0.765322
0.765304
0.765287
0.765271
0.765255
0.765239
0.765223
0.765206
0.765189
0.765171
0.765152
0.765134
0.765116
0.765099
0.765082
0.765065
0.765049
0.765032
0.765015
0.764996
0.764978
0.764958
0.764939
0.76492
0.764901
0.764883
0.764866
0.764849
0.764832
0.764815
0.764798
0.764781
0.764764
0.764748
0.764731
0.764715
0.764698
0.764678
0.764656
0.76463
0.7646
0.764618
0.765015
0.768135
0.778719
0.797593
0.821575
0.849076
0.877709
0.908878
0.941889
0.989506
0.766137
0.766155
0.766184
0.766207
0.76621
0.766206
0.766193
0.76617
0.76614
0.766118
0.766112
0.766116
0.76613
0.766159
0.766199
0.766238
0.766267
0.766288
0.766304
0.766316
0.766324
0.766328
0.766332
0.766334
0.766339
0.766344
0.766348
0.76635
0.766355
0.766366
0.766389
0.766423
0.766457
0.766479
0.766498
0.766522
0.766548
0.766563
0.766566
0.766564
0.766552
0.766532
0.766503
0.766471
0.766442
0.766419
0.766406
0.7664
0.766397
0.766393
0.766386
0.766375
0.766359
0.76634
0.766323
0.76631
0.766303
0.766302
0.766302
0.766303
0.766303
0.766302
0.766299
0.766292
0.766281
0.76627
0.766264
0.766262
0.766262
0.766262
0.766261
0.766259
0.766255
0.766248
0.766238
0.766223
0.766207
0.766191
0.766179
0.766172
0.766169
0.766166
0.766164
0.766161
0.766156
0.766148
0.766137
0.766127
0.766121
0.766118
0.766117
0.766116
0.766115
0.766113
0.766111
0.766108
0.766104
0.766097
0.766089
0.766081
0.766073
0.766069
0.766066
0.766065
0.766064
0.766063
0.766059
0.766054
0.766045
0.766034
0.766021
0.76601
0.766
0.765994
0.76599
0.765986
0.765983
0.765979
0.765974
0.765967
0.765958
0.765948
0.765938
0.765929
0.765921
0.765916
0.765911
0.765906
0.765901
0.765895
0.765886
0.765876
0.765865
0.765852
0.76584
0.765829
0.76582
0.765813
0.765806
0.765799
0.765792
0.765783
0.765773
0.765762
0.76575
0.765739
0.765729
0.76572
0.765712
0.765705
0.765698
0.76569
0.765681
0.765671
0.765659
0.765647
0.765634
0.765621
0.765609
0.765598
0.765588
0.765578
0.765568
0.765557
0.765545
0.765532
0.765517
0.765502
0.765488
0.765474
0.76546
0.765447
0.765434
0.765421
0.765407
0.765392
0.765376
0.765358
0.76534
0.765322
0.765304
0.765287
0.765271
0.765255
0.765239
0.765223
0.765206
0.765189
0.765171
0.765152
0.765134
0.765116
0.765098
0.765082
0.765065
0.765049
0.765032
0.765015
0.764996
0.764978
0.764958
0.764939
0.76492
0.764901
0.764883
0.764866
0.764849
0.764832
0.764815
0.764798
0.764781
0.764764
0.764748
0.764731
0.764715
0.764698
0.764678
0.764657
0.764631
0.764601
0.764613
0.764978
0.767947
0.778475
0.797601
0.821933
0.849635
0.878192
0.90929
0.941818
0.988324
0.766135
0.766153
0.766182
0.766204
0.766206
0.7662
0.766186
0.766161
0.766131
0.766107
0.766102
0.766106
0.766121
0.766152
0.766196
0.766241
0.76628
0.766312
0.766339
0.766359
0.766372
0.766378
0.76638
0.766379
0.766379
0.766376
0.76637
0.766363
0.76636
0.766367
0.766388
0.766417
0.766448
0.766469
0.766488
0.766514
0.766541
0.766558
0.766563
0.766562
0.766551
0.766531
0.766504
0.766474
0.766445
0.766422
0.766409
0.766403
0.766399
0.766395
0.766389
0.766377
0.766361
0.766341
0.766323
0.76631
0.766303
0.766301
0.766301
0.766302
0.766303
0.766302
0.766299
0.766291
0.766281
0.76627
0.766264
0.766262
0.766262
0.766262
0.766261
0.766259
0.766255
0.766248
0.766238
0.766223
0.766207
0.766191
0.766179
0.766172
0.766169
0.766167
0.766164
0.766161
0.766156
0.766148
0.766137
0.766127
0.766121
0.766118
0.766117
0.766116
0.766115
0.766113
0.766111
0.766108
0.766104
0.766097
0.766089
0.766081
0.766073
0.766069
0.766066
0.766065
0.766064
0.766063
0.766059
0.766054
0.766045
0.766034
0.766021
0.766009
0.766
0.765994
0.76599
0.765986
0.765983
0.765979
0.765974
0.765967
0.765958
0.765948
0.765938
0.765929
0.765921
0.765916
0.765911
0.765906
0.765901
0.765895
0.765886
0.765876
0.765865
0.765852
0.76584
0.765829
0.76582
0.765813
0.765806
0.765799
0.765792
0.765783
0.765773
0.765762
0.76575
0.765739
0.765729
0.76572
0.765712
0.765705
0.765698
0.76569
0.765681
0.765671
0.765659
0.765647
0.765634
0.765621
0.765609
0.765598
0.765588
0.765578
0.765568
0.765557
0.765545
0.765532
0.765517
0.765502
0.765488
0.765474
0.76546
0.765447
0.765434
0.765421
0.765407
0.765392
0.765376
0.765358
0.76534
0.765322
0.765304
0.765287
0.765271
0.765255
0.765239
0.765223
0.765206
0.765189
0.765171
0.765152
0.765134
0.765116
0.765098
0.765082
0.765065
0.765049
0.765032
0.765015
0.764996
0.764978
0.764958
0.764939
0.76492
0.764901
0.764883
0.764866
0.764849
0.764832
0.764815
0.764798
0.764781
0.764764
0.764748
0.764731
0.764715
0.764698
0.764679
0.764657
0.764632
0.764602
0.764607
0.764942
0.767762
0.778241
0.797642
0.822328
0.85023
0.878667
0.909641
0.941535
0.987236
0.766132
0.766151
0.766179
0.7662
0.766201
0.766195
0.766179
0.766153
0.766121
0.766097
0.766092
0.766096
0.766113
0.766146
0.766193
0.766243
0.76629
0.766334
0.766374
0.766404
0.766422
0.766428
0.766428
0.766425
0.766421
0.766409
0.766393
0.766377
0.766366
0.766368
0.766385
0.766411
0.766439
0.766459
0.766478
0.766505
0.766534
0.766553
0.76656
0.76656
0.766551
0.766532
0.766505
0.766475
0.766447
0.766425
0.766412
0.766406
0.766402
0.766398
0.766391
0.766379
0.766362
0.766342
0.766324
0.76631
0.766303
0.766301
0.766301
0.766302
0.766302
0.766302
0.766299
0.766291
0.766281
0.76627
0.766264
0.766262
0.766262
0.766262
0.766261
0.766259
0.766255
0.766248
0.766238
0.766223
0.766207
0.766191
0.766179
0.766172
0.766169
0.766167
0.766164
0.766162
0.766156
0.766148
0.766137
0.766127
0.766121
0.766118
0.766117
0.766116
0.766115
0.766113
0.766111
0.766108
0.766104
0.766097
0.766089
0.766081
0.766073
0.766069
0.766066
0.766065
0.766064
0.766063
0.766059
0.766054
0.766045
0.766034
0.766021
0.766009
0.766
0.765994
0.76599
0.765986
0.765983
0.765979
0.765974
0.765967
0.765958
0.765948
0.765938
0.765929
0.765921
0.765916
0.765911
0.765906
0.765901
0.765895
0.765886
0.765876
0.765864
0.765852
0.76584
0.765829
0.76582
0.765813
0.765806
0.765799
0.765792
0.765783
0.765773
0.765762
0.76575
0.765739
0.765729
0.76572
0.765712
0.765705
0.765698
0.76569
0.765681
0.765671
0.765659
0.765647
0.765634
0.765621
0.765609
0.765598
0.765588
0.765578
0.765568
0.765557
0.765545
0.765532
0.765517
0.765502
0.765488
0.765474
0.76546
0.765447
0.765434
0.765421
0.765407
0.765392
0.765376
0.765358
0.76534
0.765322
0.765304
0.765287
0.765271
0.765255
0.765239
0.765223
0.765206
0.765189
0.765171
0.765152
0.765134
0.765116
0.765098
0.765082
0.765065
0.765049
0.765032
0.765015
0.764996
0.764978
0.764958
0.764939
0.76492
0.764901
0.764883
0.764866
0.764849
0.764832
0.764815
0.764798
0.764781
0.764764
0.764748
0.764731
0.764715
0.764698
0.764679
0.764658
0.764633
0.764603
0.764601
0.764912
0.767602
0.778043
0.797686
0.822686
0.85074
0.879031
0.909921
0.941024
0.986508
0.766131
0.766149
0.766177
0.766198
0.766198
0.766191
0.766174
0.766147
0.766113
0.766089
0.766084
0.766089
0.766107
0.766142
0.766189
0.76624
0.766292
0.766347
0.766398
0.766439
0.766462
0.766469
0.766467
0.766461
0.766452
0.766431
0.766407
0.766386
0.766374
0.766375
0.766387
0.766407
0.766432
0.76645
0.76647
0.766497
0.766529
0.76655
0.766557
0.766558
0.766549
0.766531
0.766505
0.766476
0.766448
0.766427
0.766413
0.766408
0.766404
0.7664
0.766392
0.76638
0.766363
0.766343
0.766324
0.76631
0.766302
0.7663
0.766301
0.766301
0.766302
0.766302
0.766299
0.766291
0.76628
0.76627
0.766264
0.766262
0.766262
0.766262
0.766261
0.766259
0.766255
0.766248
0.766238
0.766223
0.766207
0.766191
0.766179
0.766172
0.766169
0.766167
0.766165
0.766162
0.766156
0.766148
0.766137
0.766127
0.766121
0.766118
0.766117
0.766116
0.766115
0.766113
0.766111
0.766108
0.766104
0.766097
0.766089
0.766081
0.766073
0.766069
0.766066
0.766065
0.766064
0.766063
0.766059
0.766054
0.766045
0.766034
0.766021
0.766009
0.766
0.765994
0.76599
0.765986
0.765983
0.765979
0.765974
0.765967
0.765958
0.765948
0.765938
0.765929
0.765921
0.765916
0.765911
0.765906
0.765901
0.765894
0.765886
0.765876
0.765864
0.765852
0.76584
0.765829
0.76582
0.765813
0.765806
0.765799
0.765792
0.765783
0.765773
0.765762
0.76575
0.765739
0.765729
0.76572
0.765712
0.765705
0.765698
0.76569
0.765681
0.765671
0.765659
0.765647
0.765634
0.765621
0.765609
0.765598
0.765588
0.765578
0.765568
0.765557
0.765545
0.765532
0.765517
0.765503
0.765488
0.765474
0.76546
0.765447
0.765434
0.765421
0.765407
0.765392
0.765376
0.765358
0.76534
0.765322
0.765304
0.765287
0.765271
0.765255
0.765239
0.765223
0.765206
0.765189
0.765171
0.765152
0.765134
0.765116
0.765098
0.765082
0.765065
0.765049
0.765032
0.765015
0.764996
0.764978
0.764958
0.764939
0.76492
0.764901
0.764883
0.764866
0.764849
0.764832
0.764815
0.764798
0.764781
0.764764
0.764748
0.764731
0.764715
0.764698
0.764679
0.764659
0.764634
0.764604
0.764597
0.764892
0.767489
0.777908
0.797735
0.822968
0.851124
0.879338
0.910148
0.940471
0.986072
0.76613
0.766148
0.766176
0.766197
0.766196
0.766189
0.766171
0.766143
0.766109
0.766085
0.76608
0.766085
0.766104
0.76614
0.766188
0.766243
0.766299
0.766357
0.766412
0.76646
0.766487
0.766493
0.766489
0.766479
0.766465
0.766438
0.766411
0.766389
0.766375
0.766374
0.766385
0.766402
0.766427
0.766445
0.766465
0.766493
0.766526
0.766548
0.766556
0.766557
0.766549
0.766531
0.766505
0.766476
0.766448
0.766427
0.766414
0.766408
0.766405
0.7664
0.766392
0.76638
0.766363
0.766343
0.766324
0.76631
0.766302
0.7663
0.7663
0.766301
0.766302
0.766302
0.766298
0.766291
0.76628
0.76627
0.766264
0.766262
0.766262
0.766262
0.766261
0.766259
0.766255
0.766248
0.766238
0.766223
0.766207
0.766191
0.766179
0.766172
0.766169
0.766167
0.766165
0.766162
0.766156
0.766148
0.766137
0.766127
0.766121
0.766118
0.766117
0.766116
0.766115
0.766113
0.766111
0.766108
0.766104
0.766097
0.766089
0.766081
0.766073
0.766069
0.766066
0.766065
0.766064
0.766063
0.766059
0.766054
0.766045
0.766034
0.766021
0.766009
0.766
0.765994
0.76599
0.765986
0.765983
0.765979
0.765974
0.765967
0.765958
0.765948
0.765938
0.765929
0.765921
0.765916
0.765911
0.765906
0.765901
0.765894
0.765886
0.765876
0.765864
0.765852
0.76584
0.765829
0.76582
0.765813
0.765806
0.765799
0.765792
0.765783
0.765773
0.765762
0.76575
0.765739
0.765729
0.76572
0.765712
0.765705
0.765698
0.76569
0.765681
0.765671
0.765659
0.765647
0.765634
0.765621
0.765609
0.765598
0.765588
0.765578
0.765568
0.765557
0.765545
0.765532
0.765517
0.765503
0.765488
0.765474
0.76546
0.765447
0.765434
0.765421
0.765407
0.765392
0.765376
0.765358
0.76534
0.765322
0.765304
0.765287
0.765271
0.765255
0.765239
0.765223
0.765206
0.765189
0.765171
0.765152
0.765134
0.765116
0.765098
0.765082
0.765065
0.765049
0.765032
0.765015
0.764996
0.764978
0.764958
0.764939
0.76492
0.764901
0.764883
0.764866
0.764849
0.764832
0.764815
0.764798
0.764781
0.764764
0.764748
0.764731
0.764715
0.764698
0.764679
0.764659
0.764634
0.764605
0.764593
0.764883
0.767437
0.777853
0.797772
0.823122
0.851322
0.879475
0.910201
0.940034
0.985889
2.20089e-14
1.49314e-14
3.69708e-14
5.44621e-14
5.57424e-14
5.13979e-14
4.17939e-14
3.76627e-14
3.7536e-14
4.88655e-14
5.39373e-14
6.75266e-14
5.03058e-14
3.21421e-14
2.47392e-14
2.68524e-14
2.24273e-14
2.79107e-14
3.40654e-14
3.27053e-14
3.11674e-14
3.82335e-14
3.32034e-14
2.05208e-14
1.6516e-14
2.82845e-14
4.72174e-14
5.65024e-14
5.55071e-14
5.17905e-14
4.49159e-14
3.95521e-14
5.27947e-14
8.03147e-14
7.52807e-14
6.17274e-14
4.89172e-14
4.41894e-14
4.83023e-14
5.15197e-14
6.12769e-14
7.65833e-14
7.10076e-14
5.02806e-14
2.82147e-14
9.9652e-15
1.34494e-14
1.42573e-14
1.94196e-14
1.9561e-14
2.05397e-14
2.12793e-14
2.30962e-14
3.4647e-14
5.01189e-14
6.31468e-14
5.30692e-14
5.09163e-14
5.13822e-14
6.3096e-14
5.34309e-14
3.40974e-14
2.12667e-14
2.30235e-14
1.63396e-14
1.34383e-14
2.17118e-14
3.12227e-14
4.59543e-14
4.53073e-14
4.16906e-14
4.23099e-14
3.84e-14
3.42418e-14
2.59904e-14
3.03543e-14
2.49665e-14
2.25646e-14
2.99473e-14
5.54016e-14
6.86711e-14
6.30286e-14
5.72165e-14
5.08278e-14
4.34527e-14
4.66716e-14
1.46445e-11
5.61675e-08
2.34999e-05
0.00145633
0.0188088
0.0731603
0.13087
0.159931
0.16565
0.148771
0.133314
0.129949
0.118536
0.102422
3.09244e-14
2.56444e-14
1.91407e-14
3.33022e-14
4.70367e-14
4.93648e-14
4.25226e-14
4.10557e-14
3.54575e-14
4.19293e-14
4.57536e-14
4.372e-14
5.42595e-14
5.01768e-14
2.83545e-14
2.98604e-14
2.33663e-14
2.92641e-14
2.84601e-14
4.29989e-14
3.82896e-14
2.79555e-14
3.10687e-14
3.39367e-14
1.96984e-14
1.41419e-14
2.94418e-14
5.76371e-14
5.9309e-14
6.36542e-14
5.5735e-14
5.26166e-14
3.7566e-14
4.38463e-14
7.13715e-14
8.09991e-14
5.76358e-14
4.72213e-14
4.2465e-14
4.51849e-14
4.43611e-14
5.40933e-14
6.66738e-14
7.67681e-14
5.17626e-14
3.20071e-14
1.13177e-14
1.45409e-14
1.21057e-14
2.52314e-14
2.05159e-14
2.10618e-14
2.26152e-14
2.2771e-14
3.31376e-14
4.48617e-14
5.25417e-14
4.73588e-14
4.92212e-14
4.74991e-14
5.26515e-14
5.25111e-14
3.07651e-14
1.94413e-14
1.24666e-14
1.27927e-14
8.45616e-15
2.57113e-14
5.4431e-14
7.33433e-14
5.77541e-14
4.48964e-14
3.58572e-14
3.18544e-14
2.52653e-14
2.76057e-14
2.78448e-14
2.24201e-14
1.5383e-14
1.89044e-14
4.47867e-14
5.87056e-14
5.7102e-14
5.19966e-14
4.81062e-14
4.11805e-14
5.09084e-14
1.81784e-13
9.98481e-10
8.57681e-07
0.000122102
0.00359497
0.0283132
0.0819875
0.127425
0.145988
0.143812
0.131543
0.123892
0.110708
3.82267e-14
3.41277e-14
2.96109e-14
3.91991e-14
4.62756e-14
4.70364e-14
4.12904e-14
3.67399e-14
3.7932e-14
4.0114e-14
3.01899e-14
2.95631e-14
3.11419e-14
2.65551e-14
1.9832e-14
2.09964e-14
1.79968e-14
2.40888e-14
3.08478e-14
4.50545e-14
3.40242e-14
2.20633e-14
1.87419e-14
2.11287e-14
2.48148e-14
1.84562e-14
3.32511e-14
5.84657e-14
5.53938e-14
5.54437e-14
5.46839e-14
4.49262e-14
3.26844e-14
3.36452e-14
5.53017e-14
6.44597e-14
4.65104e-14
3.4789e-14
3.1328e-14
3.0916e-14
3.70448e-14
4.63471e-14
5.93448e-14
6.03507e-14
4.48059e-14
2.16e-14
1.49889e-14
1.11629e-14
1.43882e-14
3.23287e-14
3.45019e-14
2.95951e-14
2.74902e-14
1.71557e-14
3.26058e-14
3.56934e-14
4.97701e-14
5.40669e-14
6.11304e-14
5.24026e-14
4.63284e-14
4.13701e-14
3.18377e-14
1.65845e-14
1.40172e-14
1.46007e-14
1.89167e-14
2.57467e-14
6.51951e-14
8.13283e-14
6.23002e-14
4.31679e-14
3.63958e-14
2.70432e-14
2.47879e-14
2.27532e-14
2.44219e-14
1.71421e-14
1.34944e-14
1.71989e-14
3.71096e-14
5.21948e-14
5.13145e-14
5.43346e-14
4.96364e-14
4.5682e-14
4.78598e-14
3.90072e-14
7.07381e-12
1.07053e-08
3.44411e-06
3.58391e-14
3.79135e-14
3.95248e-14
4.1066e-14
4.14759e-14
5.06852e-14
5.09721e-14
4.59269e-14
3.48718e-14
3.86106e-14
4.098e-14
3.774e-14
3.23544e-14
3.0336e-14
2.45199e-14
2.8561e-14
2.77803e-14
3.06463e-14
2.66308e-14
2.65449e-14
3.23912e-14
2.54183e-14
1.66063e-14
2.14255e-14
1.15075e-14
1.60136e-14
1.5915e-14
3.50216e-14
5.08498e-14
4.82935e-14
4.79739e-14
5.07786e-14
3.82322e-14
3.54278e-14
3.41109e-14
4.20588e-14
4.31721e-14
3.19313e-14
2.55724e-14
2.28155e-14
2.44445e-14
3.36841e-14
4.97534e-14
5.57559e-14
5.12754e-14
3.2798e-14
1.4156e-14
1.67509e-14
1.04271e-14
1.40939e-14
2.42605e-14
2.63694e-14
3.10114e-14
3.13589e-14
1.37671e-14
2.54498e-14
3.378e-14
4.79435e-14
4.88062e-14
4.45883e-14
3.61163e-14
3.90909e-14
4.11406e-14
4.04315e-14
4.73235e-14
4.36978e-14
3.97615e-14
3.90079e-14
3.98713e-14
3.68392e-14
3.84005e-14
3.19355e-14
3.20471e-14
3.28411e-14
3.71039e-14
4.14304e-14
3.50389e-14
2.22839e-14
1.34765e-14
1.56716e-14
1.64465e-14
1.13328e-14
6.9516e-15
7.87991e-15
7.45747e-15
1.65222e-14
2.99963e-14
4.1614e-14
4.04143e-14
3.82469e-14
3.61063e-14
3.19694e-14
3.33474e-14
3.22389e-14
3.81393e-14
4.1659e-14
3.83499e-14
3.04275e-14
2.49431e-14
3.01496e-14
3.70166e-14
4.97275e-14
4.89709e-14
3.64488e-14
2.52934e-14
1.64882e-14
1.58339e-14
1.40561e-14
1.81001e-14
1.45826e-14
1.05588e-14
1.1627e-14
1.15659e-14
1.75902e-14
2.42822e-14
3.66808e-14
3.92094e-14
3.07762e-14
2.80911e-14
3.23922e-14
3.71375e-14
3.56855e-14
3.13331e-14
2.52759e-14
2.38193e-14
2.5485e-14
2.6028e-14
2.59959e-14
2.6631e-14
2.20268e-14
2.8427e-14
3.22114e-14
3.61955e-14
2.31843e-14
1.10327e-14
2.31475e-15
2.32629e-15
7.65347e-15
5.67459e-15
9.1353e-15
6.44106e-15
8.79849e-15
1.66428e-14
2.60696e-14
3.22439e-14
3.32371e-14
3.13459e-14
2.83371e-14
2.47807e-14
2.30672e-14
2.42171e-14
3.51453e-14
4.69083e-14
3.66424e-14
3.04428e-14
2.70283e-14
2.76632e-14
3.40787e-14
4.49857e-14
3.99524e-14
2.53445e-14
1.46735e-14
1.01108e-14
8.57832e-15
7.70239e-15
7.94476e-15
1.56768e-14
1.39653e-14
1.5387e-14
1.87678e-14
1.67587e-14
2.61231e-14
4.86794e-14
4.69429e-14
4.2728e-14
4.36205e-14
4.19073e-14
3.90761e-14
3.18463e-14
3.01311e-14
2.84304e-14
3.39466e-14
3.73578e-14
3.95802e-14
4.20564e-14
3.89414e-14
3.85858e-14
4.25688e-14
4.36726e-14
2.76249e-14
1.28077e-14
1.09066e-14
1.64025e-14
1.51673e-14
1.11669e-14
1.00994e-14
1.17578e-14
1.30094e-14
2.29204e-14
2.73007e-14
3.291e-14
2.9436e-14
2.77423e-14
2.36494e-14
2.10565e-14
2.18809e-14
3.17718e-14
3.7673e-14
4.73536e-14
4.32006e-14
3.90689e-14
3.87152e-14
3.51831e-14
3.61765e-14
4.16178e-14
3.78761e-14
3.33055e-14
2.41451e-14
2.15266e-14
1.9201e-14
1.84845e-14
1.72585e-14
2.33916e-14
1.94737e-14
2.15862e-14
2.07929e-14
2.48097e-14
3.31468e-14
5.91903e-14
5.6764e-14
4.85636e-14
5.27363e-14
5.0542e-14
5.0899e-14
4.59502e-14
5.27787e-14
5.29812e-14
6.52573e-14
6.53879e-14
6.65107e-14
6.44338e-14
6.69604e-14
5.92524e-14
5.74452e-14
4.76737e-14
4.52165e-14
3.4266e-14
3.68942e-14
3.75611e-14
3.13855e-14
3.23294e-14
3.35147e-14
3.73876e-14
3.66647e-14
3.95592e-14
4.29487e-14
4.11036e-14
4.52999e-14
4.01444e-14
3.8911e-14
3.38215e-14
4.0767e-14
4.34681e-14
5.20753e-14
5.25172e-14
5.63163e-14
4.93726e-14
4.89275e-14
4.53026e-14
4.98319e-14
4.99815e-14
4.45287e-14
4.22599e-14
4.26505e-14
4.26027e-14
4.14893e-14
3.75789e-14
3.47231e-14
3.81174e-14
3.83649e-14
3.93272e-14
3.99671e-14
4.32301e-14
4.80432e-14
5.25597e-14
5.18571e-14
4.24215e-14
4.45843e-14
5.12896e-14
4.6269e-14
4.43638e-14
5.46067e-14
6.33236e-14
6.02579e-14
6.14175e-14
5.77568e-14
5.08059e-14
5.41459e-14
5.50164e-14
5.10163e-14
4.66171e-14
4.99586e-14
4.61057e-14
4.68462e-14
4.35384e-14
4.04901e-14
4.16444e-14
4.26744e-14
4.38472e-14
4.21029e-14
3.60552e-14
4.43871e-14
4.89816e-14
4.88294e-14
4.21507e-14
3.59658e-14
3.3338e-14
4.03465e-14
3.43752e-14
4.89003e-14
5.2778e-14
5.04512e-14
4.97863e-14
4.28176e-14
4.06655e-14
4.98413e-14
5.13876e-14
5.46814e-14
5.32231e-14
5.55344e-14
5.3009e-14
4.58443e-14
3.80652e-14
4.30625e-14
4.5316e-14
3.89446e-14
3.53207e-14
3.64509e-14
4.12817e-14
4.26197e-14
4.02345e-14
3.88292e-14
4.33971e-14
3.98522e-14
4.25902e-14
4.08001e-14
4.46908e-14
4.09809e-14
4.36259e-14
3.78644e-14
3.88399e-14
3.87114e-14
3.52352e-14
3.35372e-14
3.851e-14
3.48928e-14
2.9792e-14
3.41608e-14
3.56762e-14
3.84275e-14
3.94387e-14
4.10507e-14
3.94958e-14
3.84899e-14
2.93035e-14
3.1087e-14
3.39955e-14
3.30829e-14
3.46821e-14
3.06099e-14
3.1732e-14
2.66185e-14
2.76264e-14
3.47159e-14
3.58285e-14
4.26869e-14
5.0283e-14
4.69609e-14
4.4562e-14
3.80553e-14
4.21533e-14
4.23403e-14
4.09089e-14
4.66998e-14
5.32323e-14
5.31624e-14
4.69501e-14
3.89507e-14
3.72539e-14
3.73351e-14
3.78634e-14
2.64988e-14
1.8714e-14
2.1747e-14
3.19067e-14
3.85405e-14
3.52468e-14
3.89457e-14
4.79293e-14
3.82596e-14
3.61286e-14
3.46527e-14
4.01838e-14
3.6262e-14
2.84298e-14
2.49632e-14
2.39426e-14
1.97523e-14
2.37533e-14
1.99313e-14
2.60801e-14
2.88756e-14
2.7193e-14
2.84342e-14
3.27464e-14
3.00251e-14
3.07501e-14
3.03616e-14
3.66935e-14
3.82528e-14
3.81138e-14
4.08824e-14
4.10034e-14
3.46101e-14
2.47325e-14
1.94636e-14
2.02685e-14
2.53172e-14
2.32079e-14
2.18732e-14
3.02881e-14
3.48406e-14
3.99059e-14
3.57191e-14
3.31867e-14
2.75523e-14
3.50851e-14
2.83258e-14
3.01457e-14
2.74704e-14
3.63674e-14
3.64072e-14
3.57194e-14
3.65191e-14
4.06558e-14
3.21246e-14
3.23813e-14
2.86396e-14
2.68238e-14
2.72849e-14
3.40851e-14
3.79085e-14
4.01707e-14
4.06336e-14
4.0403e-14
4.05135e-14
3.2295e-14
3.08234e-14
3.12983e-14
3.64352e-14
3.41798e-14
2.52695e-14
2.32614e-14
1.86401e-14
1.35109e-14
5.162e-15
1.52127e-14
2.00168e-14
2.72963e-14
2.35634e-14
2.2474e-14
2.07519e-14
2.05905e-14
2.45897e-14
3.4654e-14
5.11701e-14
5.75031e-14
5.41892e-14
4.58848e-14
4.28864e-14
2.99871e-14
2.35215e-14
1.70116e-14
2.83763e-14
1.74654e-14
2.32223e-14
2.63745e-14
3.31845e-14
3.73642e-14
3.21956e-14
2.75496e-14
2.85295e-14
2.79257e-14
2.101e-14
1.9203e-14
1.8278e-14
2.5009e-14
2.61902e-14
2.88937e-14
3.10964e-14
3.55777e-14
3.45635e-14
3.3596e-14
3.97389e-14
3.97724e-14
3.81104e-14
3.90221e-14
3.96252e-14
2.72799e-14
2.85124e-14
2.36439e-14
2.89227e-14
3.76279e-14
4.14196e-14
4.08158e-14
3.86656e-14
3.52298e-14
2.7577e-14
2.92806e-14
2.67573e-14
2.12819e-14
1.1915e-14
2.42806e-14
2.54839e-14
2.44839e-14
2.56971e-14
1.94578e-14
1.69194e-14
2.31712e-14
2.3936e-14
2.851e-14
5.6232e-14
6.49813e-14
5.60773e-14
4.09066e-14
4.20551e-14
3.73339e-14
1.89562e-14
9.63898e-15
1.99147e-14
1.16465e-14
2.06531e-14
2.54243e-14
3.03474e-14
4.13839e-14
2.88643e-14
2.77804e-14
3.0446e-14
2.89794e-14
2.61521e-14
2.69026e-14
2.40439e-14
3.52476e-14
3.30585e-14
3.28389e-14
3.48284e-14
3.38573e-14
4.39965e-14
4.28476e-14
4.63778e-14
5.18803e-14
4.51505e-14
4.0714e-14
4.28626e-14
1.42142e-14
1.53401e-14
2.69136e-14
3.06858e-14
4.40223e-14
5.06909e-14
5.20236e-14
4.85721e-14
3.91228e-14
2.93182e-14
3.58555e-14
3.34261e-14
2.30063e-14
2.51385e-14
2.81188e-14
1.5604e-14
6.58146e-15
1.35511e-14
1.95427e-14
2.12452e-14
2.45388e-14
1.77049e-14
3.61051e-14
6.22592e-14
6.80253e-14
5.9443e-14
4.84125e-14
4.37752e-14
3.8502e-14
2.71948e-14
1.52246e-14
6.99034e-15
1.60743e-14
2.38762e-14
2.67705e-14
3.43323e-14
3.97946e-14
3.56605e-14
3.77004e-14
3.64724e-14
3.43864e-14