/*--------------------------------*- C++ -*----------------------------------*\
| =========                 |                                                 |
| \\      /  F ield         | OpenFOAM: The Open Source CFD Toolbox           |
|  \\    /   O peration     | Version:  2406                                  |
|   \\  /    A nd           | Website:  www.openfoam.com                      |
|    \\/     M anipulation  |                                                 |
\*---------------------------------------------------------------------------*/
FoamFile
{
    version     2.0;
    format      ascii;
    arch        "LSB;label=32;scalar=64";
    class       volScalarField;
    location    "0.03";
    object      Ma;
}
// * * * * * * * * * * * * * * * * * * * * * * * * * * * * * * * * * * * * * //

dimensions      [0 0 0 0 0 0 0];

internalField   nonuniform List<scalar> 
83682
(
1.132
1.132
1.132
1.132
1.132
1.132
1.132
1.132
1.132
1.132
1.132
1.132
1.132
1.132
1.13195
1.1307
1.10767
1.03675
1.02043
1.0201
1.01999
1.01985
1.01973
1.01964
1.01959
1.01958
1.01952
1.01944
1.01935
1.01922
1.01904
1.01891
1.01887
1.01887
1.01889
1.01893
1.01899
1.019
1.01898
1.01894
1.0189
1.01884
1.01879
1.01881
1.01884
1.01889
1.01895
1.01904
1.01914
1.01917
1.01918
1.01917
1.01915
1.01911
1.01907
1.01906
1.01907
1.01908
1.01912
1.01916
1.01917
1.01917
1.01916
1.01915
1.01911
1.01908
1.01907
1.01907
1.01907
1.01908
1.0191
1.01911
1.01911
1.01911
1.01909
1.01907
1.01904
1.01902
1.019
1.019
1.01901
1.01902
1.01903
1.01905
1.01906
1.01907
1.01907
1.01907
1.01907
1.01908
1.01909
1.0191
1.01912
1.01913
1.01914
1.01914
1.01914
1.01913
1.01912
1.01911
1.01911
1.0191
1.0191
1.01909
1.01908
1.01907
1.01906
1.01906
1.01906
1.01906
1.01907
1.01909
1.0191
1.0191
1.01909
1.01909
1.01908
1.01908
1.01907
1.01908
1.01908
1.01909
1.01909
1.01908
1.01908
1.01907
1.01906
1.01906
1.01906
1.01907
1.01908
1.01908
1.01909
1.01909
1.0191
1.0191
1.01911
1.01911
1.01912
1.01912
1.01911
1.01911
1.0191
1.01909
1.01909
1.01909
1.01909
1.01909
1.01909
1.01908
1.01908
1.01907
1.01907
1.01906
1.01906
1.01907
1.01908
1.01908
1.01909
1.0191
1.0191
1.01907
1.01892
1.01877
1.01896
1.01996
1.02225
1.02546
1.0288
1.03145
1.03297
1.03346
1.03358
1.03362
1.03374
1.0339
1.03405
1.03404
1.03396
1.0338
1.03364
1.03346
1.03334
1.03322
1.03313
1.03299
1.03272
1.03224
1.03128
1.02999
1.02875
1.0277
1.02681
1.02606
1.02543
1.0249
1.02441
1.02394
1.02351
1.02309
1.02272
1.02238
1.0221
1.02184
1.02162
1.02143
1.02125
1.02107
1.02087
1.02061
1.02024
1.0197
1.01888
1.01762
1.01567
1.01274
1.0084
1.00224
0.99367
0.982229
0.96732
0.948571
0.925883
0.899643
0.870804
0.841071
0.81307
0.790071
0.773946
0.765718
0.764542
0.764464
0.764304
0.764113
0.764012
0.764037
0.764162
0.764385
0.76465
0.764939
0.765228
0.765345
0.765351
0.76531
0.7652
0.765022
0.764799
0.764584
0.764495
0.764496
0.764529
0.764598
0.764667
0.764686
0.764683
0.764657
0.764586
0.764489
0.764431
0.764421
0.76443
0.764462
0.764514
0.764546
0.76455
0.76454
0.764506
0.764445
0.764357
0.764258
0.76419
0.764178
0.764184
0.764198
0.76422
0.764247
0.764271
0.76429
0.7643
0.764304
0.764306
0.76431
0.764319
0.764333
0.764351
0.764374
0.764399
0.764423
0.764442
0.764457
0.764469
0.764484
0.764504
0.764532
0.764574
0.764636
0.764725
0.764843
0.764987
0.76515
0.765313
0.765468
0.765601
0.765689
0.765735
0.765735
0.765699
0.765674
0.765659
0.765659
0.765675
0.765703
0.765726
0.765734
0.765723
0.765716
0.765714
0.765717
0.765722
0.765725
0.765726
0.765725
0.765721
0.765714
0.765707
0.765699
0.765686
0.765665
0.765641
0.765625
0.76562
0.76562
0.765622
0.765629
0.765638
0.765644
0.765645
0.765644
0.76564
0.765632
0.765624
0.765622
0.765622
0.765626
0.765634
0.765647
0.765661
0.765666
0.765667
0.765665
0.76566
0.765651
0.765639
0.765632
0.765631
0.765633
0.765637
0.765644
0.765652
0.765657
0.765658
0.765658
0.765656
0.76565
0.765644
0.765642
0.765642
0.765643
0.765646
0.76565
0.765652
0.765651
0.76565
0.765646
0.76564
0.765631
0.76562
0.765611
0.765609
0.765609
0.765611
0.765613
0.765616
0.765618
0.765618
0.765618
0.765615
0.765612
0.76561
0.765609
0.765608
0.765609
0.765611
0.765616
0.765622
0.765627
0.76563
0.765633
0.765635
0.765635
0.765632
0.765608
0.765446
0.764403
0.757846
0.719156
0.540572
0.154664
0.00478133
1.06898e-05
1.3187e-09
4.50812e-14
3.7772e-14
3.22337e-14
3.11269e-14
3.05339e-14
2.83479e-14
2.59637e-14
2.18025e-14
2.11608e-14
1.96283e-14
1.5358e-14
1.48798e-14
2.08483e-14
2.57581e-14
2.69346e-14
3.31701e-14
3.44473e-14
2.77147e-14
2.70083e-14
2.03055e-14
1.70465e-14
1.23067e-14
1.09553e-14
8.74768e-15
1.09824e-14
1.79616e-14
1.54698e-14
1.54523e-14
1.91542e-14
2.33624e-14
2.4203e-14
3.1569e-14
2.68168e-14
2.16523e-14
2.24923e-14
1.79582e-14
1.783e-14
1.99435e-14
1.84633e-14
1.55189e-14
1.28476e-14
1.44688e-14
1.54435e-14
1.31012e-14
1.298e-14
1.7462e-14
2.12184e-14
2.30584e-14
2.1552e-14
2.20682e-14
2.41684e-14
2.38671e-14
2.14064e-14
2.37312e-14
2.65904e-14
2.52424e-14
2.66305e-14
2.55889e-14
2.28895e-14
2.64168e-14
2.73125e-14
2.3271e-14
2.47052e-14
3.16458e-14
3.79419e-14
4.01321e-14
4.19129e-14
4.14856e-14
4.39564e-14
4.00509e-14
4.00621e-14
4.88418e-14
5.3019e-14
5.2211e-14
5.52237e-14
5.95599e-14
5.64662e-14
5.98234e-14
6.24192e-14
5.96001e-14
5.70272e-14
6.115e-14
6.43967e-14
6.63537e-14
5.87528e-14
5.07853e-14
4.97573e-14
5.14522e-14
5.9714e-14
7.32719e-14
8.31225e-14
7.22252e-14
5.59506e-14
4.28015e-14
3.22908e-14
2.22099e-14
1.65166e-14
6.45548e-15
1.2364e-14
1.90352e-14
1.15098e-14
1.69877e-14
2.70048e-14
2.50979e-14
2.87901e-14
3.4305e-14
3.99204e-14
4.54712e-14
4.92426e-14
5.16739e-14
5.19155e-14
4.94139e-14
4.10066e-14
3.65761e-14
3.08073e-14
2.79608e-14
2.67157e-14
3.47299e-14
3.98545e-14
4.39449e-14
4.13272e-14
3.95177e-14
3.31093e-14
2.59494e-14
2.37287e-14
2.42097e-14
2.55735e-14
2.83608e-14
2.77802e-14
2.79424e-14
2.99677e-14
3.59419e-14
4.18434e-14
3.98692e-14
4.43398e-14
4.48781e-14
4.55697e-14
4.24343e-14
4.07209e-14
4.30915e-14
3.59211e-14
3.1666e-14
3.57363e-14
3.4757e-14
3.9824e-14
4.0108e-14
3.46307e-14
3.3772e-14
3.98999e-14
3.96074e-14
3.59785e-14
3.78163e-14
3.8305e-14
3.36166e-14
2.78433e-14
2.56913e-14
2.53192e-14
2.18124e-14
2.01014e-14
1.84272e-14
1.04536e-14
4.21812e-15
1.28897e-14
2.17041e-14
2.4581e-14
2.44762e-14
2.52746e-14
3.10102e-14
2.43502e-14
2.28327e-14
2.79532e-14
2.66003e-14
2.98377e-14
2.99563e-14
3.44651e-14
4.47425e-14
4.6562e-14
4.97625e-14
4.8733e-14
4.49421e-14
4.94192e-14
5.68783e-14
5.56118e-14
5.19693e-14
5.4546e-14
5.95987e-14
6.04554e-14
5.8694e-14
5.89226e-14
7.23242e-14
7.9598e-14
7.50299e-14
7.28162e-14
7.14997e-14
5.77041e-14
4.74089e-14
4.10216e-14
3.15013e-14
2.91584e-14
2.52982e-14
1.92783e-14
2.09954e-14
2.1383e-14
2.36961e-14
2.29508e-14
2.04252e-14
1.93594e-14
1.85349e-14
2.35154e-14
2.95828e-14
3.19751e-14
3.31158e-14
3.81819e-14
4.15796e-14
4.91141e-14
4.60594e-14
5.39022e-14
6.39783e-14
5.50234e-14
4.49135e-14
3.8506e-14
3.35808e-14
3.09275e-14
3.20745e-14
2.77562e-14
2.36353e-14
1.98431e-14
1.56513e-14
1.62607e-14
2.17136e-14
2.86162e-14
3.29396e-14
3.18814e-14
2.69425e-14
2.58786e-14
2.62268e-14
2.16011e-14
1.5759e-14
1.04116e-14
8.52761e-15
1.14841e-14
1.93524e-14
2.79726e-14
3.00232e-14
2.63548e-14
2.55107e-14
2.65255e-14
2.67711e-14
2.311e-14
2.03448e-14
2.28801e-14
2.67939e-14
2.99652e-14
2.74031e-14
2.25176e-14
1.81881e-14
1.85429e-14
2.03541e-14
1.89969e-14
2.74942e-14
3.96212e-14
4.83234e-14
4.46148e-14
3.58877e-14
2.79874e-14
2.36919e-14
2.015e-14
1.39265e-14
1.50604e-14
1.83727e-14
1.76817e-14
1.99425e-14
2.20717e-14
2.28038e-14
2.05644e-14
1.89452e-14
2.25847e-14
2.27347e-14
1.96714e-14
2.35639e-14
2.63917e-14
2.44059e-14
2.43467e-14
2.38838e-14
1.132
1.132
1.132
1.132
1.132
1.132
1.132
1.132
1.132
1.132
1.132
1.132
1.132
1.132
1.13195
1.1307
1.10767
1.03675
1.02043
1.0201
1.01999
1.01985
1.01973
1.01964
1.01959
1.01958
1.01952
1.01944
1.01935
1.01922
1.01904
1.01891
1.01887
1.01887
1.01889
1.01893
1.01899
1.019
1.01898
1.01894
1.0189
1.01884
1.01879
1.01881
1.01884
1.01889
1.01895
1.01904
1.01914
1.01917
1.01918
1.01917
1.01915
1.01911
1.01907
1.01906
1.01907
1.01908
1.01912
1.01916
1.01917
1.01917
1.01916
1.01915
1.01911
1.01908
1.01907
1.01907
1.01907
1.01908
1.0191
1.01911
1.01911
1.01911
1.01909
1.01907
1.01904
1.01902
1.019
1.019
1.01901
1.01902
1.01903
1.01905
1.01906
1.01907
1.01907
1.01907
1.01907
1.01908
1.01909
1.0191
1.01912
1.01913
1.01914
1.01914
1.01914
1.01913
1.01912
1.01911
1.01911
1.0191
1.0191
1.01909
1.01908
1.01907
1.01906
1.01906
1.01906
1.01906
1.01907
1.01909
1.0191
1.0191
1.01909
1.01909
1.01908
1.01908
1.01907
1.01908
1.01908
1.01909
1.01909
1.01908
1.01908
1.01907
1.01906
1.01906
1.01906
1.01907
1.01908
1.01908
1.01909
1.01909
1.0191
1.0191
1.01911
1.01911
1.01912
1.01912
1.01911
1.01911
1.0191
1.01909
1.01909
1.01909
1.01909
1.01909
1.01909
1.01908
1.01908
1.01907
1.01907
1.01906
1.01906
1.01907
1.01908
1.01908
1.01909
1.0191
1.0191
1.01907
1.01893
1.01877
1.01895
1.01995
1.02224
1.02548
1.02884
1.0315
1.03299
1.03342
1.03351
1.03355
1.03371
1.03391
1.0341
1.03409
1.03399
1.03381
1.03363
1.03344
1.03333
1.0332
1.03311
1.03296
1.03271
1.03225
1.0313
1.02999
1.02874
1.02769
1.02681
1.02607
1.02545
1.02491
1.02441
1.02394
1.0235
1.02309
1.02273
1.02238
1.0221
1.02184
1.02162
1.02143
1.02125
1.02108
1.02088
1.02062
1.02025
1.0197
1.01888
1.01762
1.01568
1.01277
1.00844
1.00232
0.993816
0.982474
0.967682
0.949054
0.926483
0.900335
0.871539
0.841779
0.813646
0.790468
0.774202
0.765839
0.764565
0.764478
0.76432
0.76413
0.76402
0.76404
0.764159
0.764379
0.76464
0.764926
0.765219
0.765344
0.765351
0.765312
0.765204
0.765027
0.764801
0.764584
0.764491
0.764491
0.764522
0.764592
0.764665
0.764685
0.764683
0.764658
0.764589
0.76449
0.764429
0.764419
0.764427
0.764458
0.764511
0.764544
0.764549
0.764539
0.764506
0.764445
0.764356
0.764258
0.764188
0.764177
0.764182
0.764196
0.764218
0.764245
0.76427
0.764289
0.764299
0.764303
0.764304
0.764308
0.764317
0.76433
0.764349
0.764372
0.764397
0.764421
0.764441
0.764455
0.764467
0.764481
0.764501
0.764528
0.764569
0.764632
0.764721
0.764843
0.764992
0.765159
0.765326
0.765484
0.765619
0.765709
0.765756
0.765756
0.765716
0.765687
0.765668
0.765662
0.765672
0.765694
0.765716
0.765723
0.76571
0.765705
0.765707
0.765714
0.765721
0.765725
0.765726
0.765726
0.765722
0.765715
0.765708
0.7657
0.765687
0.765666
0.765643
0.765627
0.765622
0.765621
0.765623
0.765629
0.765638
0.765644
0.765645
0.765644
0.76564
0.765632
0.765624
0.765622
0.765623
0.765626
0.765634
0.765647
0.76566
0.765666
0.765667
0.765665
0.76566
0.765651
0.765639
0.765632
0.765631
0.765633
0.765637
0.765644
0.765652
0.765657
0.765658
0.765658
0.765656
0.76565
0.765644
0.765642
0.765642
0.765643
0.765646
0.76565
0.765652
0.765651
0.76565
0.765646
0.76564
0.765631
0.76562
0.765611
0.765609
0.765609
0.765611
0.765613
0.765616
0.765618
0.765618
0.765618
0.765615
0.765612
0.76561
0.765609
0.765608
0.765609
0.765611
0.765616
0.765622
0.765627
0.76563
0.765633
0.765635
0.765635
0.765632
0.765609
0.765447
0.764404
0.757847
0.719156
0.540573
0.154664
0.00478136
1.06899e-05
1.31873e-09
4.15591e-14
2.85358e-14
2.7178e-14
2.65447e-14
2.73936e-14
2.55917e-14
2.48326e-14
2.1475e-14
2.0598e-14
2.14744e-14
1.70678e-14
1.4273e-14
1.8886e-14
2.48219e-14
2.58029e-14
2.8822e-14
3.21298e-14
2.83481e-14
2.73977e-14
2.04052e-14
1.42784e-14
1.21369e-14
1.06638e-14
9.38568e-15
1.16049e-14
1.59274e-14
1.5255e-14
1.73757e-14
2.00631e-14
1.94502e-14
2.01659e-14
2.48606e-14
2.31004e-14
2.02927e-14
1.77667e-14
1.79173e-14
1.62534e-14
1.63863e-14
1.59917e-14
1.36928e-14
1.43345e-14
1.62634e-14
1.44275e-14
1.19024e-14
1.35181e-14
1.61909e-14
1.82981e-14
2.20845e-14
2.18809e-14
2.16354e-14
2.27565e-14
2.43002e-14
2.21303e-14
2.26242e-14
2.6154e-14
2.53872e-14
2.57359e-14
2.63963e-14
2.31884e-14
2.48928e-14
2.47242e-14
2.28011e-14
2.44104e-14
3.03774e-14
3.65442e-14
3.93075e-14
4.27773e-14
4.48146e-14
4.33049e-14
4.15016e-14
4.05857e-14
4.71552e-14
5.14568e-14
5.2295e-14
5.24262e-14
5.66756e-14
5.71937e-14
6.17339e-14
6.33208e-14
6.0472e-14
5.8876e-14
6.26503e-14
6.47492e-14
6.19594e-14
5.7654e-14
5.33092e-14
5.12547e-14
5.28159e-14
5.96717e-14
6.90773e-14
7.30609e-14
6.49809e-14
5.29814e-14
4.27638e-14
3.16359e-14
2.14621e-14
1.38165e-14
7.33723e-15
1.10945e-14
1.51648e-14
1.22164e-14
1.41591e-14
2.14047e-14
2.53505e-14
3.0769e-14
3.76714e-14
4.11912e-14
4.15065e-14
4.82213e-14
5.30685e-14
5.10424e-14
4.8579e-14
4.23186e-14
3.7501e-14
3.08883e-14
2.7553e-14
2.81705e-14
3.4708e-14
3.74629e-14
4.0719e-14
3.96954e-14
3.44052e-14
3.08421e-14
2.60508e-14
2.35807e-14
2.63887e-14
2.73504e-14
2.93794e-14
2.82351e-14
3.0145e-14
3.02139e-14
3.47487e-14
3.84084e-14
3.64613e-14
4.1992e-14
4.46474e-14
4.30645e-14
4.03072e-14
3.64529e-14
3.66866e-14
3.15334e-14
2.62875e-14
2.91312e-14
3.16075e-14
3.5566e-14
3.52447e-14
3.33822e-14
3.09977e-14
3.75393e-14
3.69515e-14
3.62383e-14
3.6851e-14
3.54638e-14
3.24815e-14
2.71287e-14
2.4983e-14
2.28686e-14
2.00319e-14
2.04377e-14
1.80691e-14
1.07275e-14
4.53755e-15
1.26022e-14
2.19445e-14
2.46084e-14
2.212e-14
2.34899e-14
2.66308e-14
2.47607e-14
2.37147e-14
2.61676e-14
2.56049e-14
2.88801e-14
3.14038e-14
3.63934e-14
4.2633e-14
4.54335e-14
5.02463e-14
5.00131e-14
4.66469e-14
4.94172e-14
5.40316e-14
5.67406e-14
5.61008e-14
5.5498e-14
5.70923e-14
5.68075e-14
5.67747e-14
5.54808e-14
6.38502e-14
7.06982e-14
7.26486e-14
7.14787e-14
6.86209e-14
5.847e-14
5.09927e-14
4.04041e-14
2.90485e-14
2.70637e-14
2.43738e-14
1.78843e-14
1.76475e-14
1.86146e-14
2.09738e-14
2.09697e-14
1.86802e-14
1.89564e-14
1.95332e-14
2.22083e-14
2.8496e-14
3.33111e-14
3.39912e-14
3.90363e-14
4.10138e-14
4.9481e-14
4.6982e-14
5.09385e-14
5.50939e-14
4.96191e-14
4.03776e-14
3.52876e-14
3.18583e-14
2.95131e-14
2.78846e-14
2.69891e-14
2.31849e-14
1.72108e-14
1.68156e-14
1.71824e-14
2.34962e-14
3.07771e-14
3.34231e-14
3.17003e-14
2.76828e-14
2.73443e-14
2.45295e-14
2.0865e-14
1.65844e-14
1.15917e-14
9.82859e-15
1.14197e-14
1.71213e-14
2.46104e-14
2.74373e-14
2.47893e-14
2.63837e-14
2.75915e-14
2.43679e-14
2.21615e-14
2.11665e-14
2.37386e-14
2.85083e-14
2.99388e-14
2.62292e-14
2.12688e-14
1.72772e-14
1.7422e-14
2.13284e-14
2.10241e-14
2.71869e-14
3.38638e-14
3.84781e-14
3.80171e-14
3.23956e-14
2.80001e-14
2.33985e-14
1.98638e-14
1.70984e-14
1.68882e-14
1.99129e-14
1.786e-14
1.99082e-14
2.21235e-14
2.09809e-14
1.98268e-14
1.84791e-14
2.12645e-14
2.13925e-14
1.78547e-14
1.91117e-14
2.44996e-14
2.39244e-14
2.3045e-14
2.08007e-14
1.132
1.132
1.132
1.132
1.132
1.132
1.132
1.132
1.132
1.132
1.132
1.132
1.132
1.132
1.13195
1.1307
1.10767
1.03675
1.02043
1.0201
1.01999
1.01985
1.01973
1.01964
1.01959
1.01958
1.01952
1.01944
1.01935
1.01922
1.01904
1.01891
1.01887
1.01887
1.01889
1.01893
1.01899
1.019
1.01898
1.01894
1.0189
1.01884
1.01879
1.01881
1.01884
1.01889
1.01895
1.01904
1.01914
1.01917
1.01918
1.01917
1.01915
1.01911
1.01907
1.01906
1.01907
1.01908
1.01912
1.01916
1.01917
1.01917
1.01916
1.01915
1.01911
1.01908
1.01907
1.01907
1.01907
1.01908
1.0191
1.01911
1.01911
1.01911
1.01909
1.01907
1.01904
1.01902
1.019
1.019
1.01901
1.01902
1.01903
1.01905
1.01906
1.01907
1.01907
1.01907
1.01907
1.01908
1.01909
1.0191
1.01912
1.01913
1.01914
1.01914
1.01914
1.01913
1.01912
1.01911
1.01911
1.0191
1.0191
1.01909
1.01908
1.01907
1.01906
1.01906
1.01906
1.01906
1.01907
1.01909
1.0191
1.0191
1.01909
1.01909
1.01908
1.01908
1.01907
1.01908
1.01908
1.01909
1.01909
1.01908
1.01908
1.01907
1.01906
1.01906
1.01906
1.01907
1.01908
1.01908
1.01909
1.01909
1.0191
1.0191
1.01911
1.01911
1.01912
1.01912
1.01911
1.01911
1.0191
1.01909
1.01909
1.01909
1.01909
1.01909
1.01909
1.01908
1.01908
1.01907
1.01907
1.01906
1.01906
1.01907
1.01908
1.01908
1.01909
1.0191
1.0191
1.01907
1.01893
1.01877
1.01895
1.01994
1.02224
1.02549
1.02888
1.03154
1.03301
1.03337
1.03344
1.03349
1.03368
1.03393
1.03416
1.03413
1.03402
1.03382
1.03362
1.03343
1.03333
1.03319
1.03309
1.03293
1.0327
1.03226
1.03133
1.03001
1.02873
1.02767
1.02681
1.02609
1.02547
1.02492
1.02441
1.02394
1.02351
1.0231
1.02274
1.02239
1.02211
1.02184
1.02162
1.02143
1.02126
1.02109
1.02089
1.02063
1.02025
1.01971
1.01888
1.01763
1.01571
1.01282
1.00851
1.00241
0.993934
0.982643
0.967928
0.949391
0.926915
0.900837
0.872058
0.842245
0.813981
0.790658
0.774342
0.765925
0.764592
0.764508
0.764353
0.764164
0.764041
0.764053
0.764163
0.764374
0.764631
0.764911
0.765204
0.765337
0.765345
0.765306
0.7652
0.765024
0.764799
0.764578
0.764481
0.76448
0.764511
0.76458
0.764656
0.764679
0.764677
0.764654
0.764586
0.764487
0.764423
0.764412
0.76442
0.764451
0.764503
0.764539
0.764544
0.764535
0.764502
0.764441
0.764354
0.764255
0.764184
0.764172
0.764177
0.764191
0.764214
0.76424
0.764265
0.764284
0.764294
0.764298
0.764299
0.764303
0.764312
0.764326
0.764345
0.764368
0.764393
0.764417
0.764436
0.76445
0.764462
0.764475
0.764493
0.76452
0.764561
0.764624
0.764717
0.764846
0.765005
0.765184
0.765362
0.765532
0.765678
0.765775
0.765826
0.765823
0.765769
0.765724
0.765691
0.765672
0.765668
0.765677
0.76569
0.765692
0.765677
0.765676
0.765689
0.765702
0.765715
0.765722
0.765726
0.765726
0.765722
0.765716
0.76571
0.765703
0.76569
0.765669
0.765646
0.765631
0.765625
0.765624
0.765625
0.765631
0.765638
0.765644
0.765645
0.765644
0.76564
0.765632
0.765625
0.765623
0.765623
0.765627
0.765635
0.765647
0.76566
0.765666
0.765666
0.765665
0.76566
0.765651
0.76564
0.765633
0.765632
0.765633
0.765637
0.765644
0.765652
0.765657
0.765658
0.765658
0.765656
0.765651
0.765645
0.765642
0.765642
0.765643
0.765646
0.76565
0.765652
0.765651
0.76565
0.765646
0.76564
0.765631
0.76562
0.765612
0.765609
0.76561
0.765611
0.765613
0.765616
0.765618
0.765618
0.765618
0.765616
0.765613
0.76561
0.765609
0.765609
0.765609
0.765612
0.765616
0.765622
0.765627
0.765631
0.765633
0.765636
0.765636
0.765633
0.765609
0.765447
0.764404
0.757846
0.719156
0.540573
0.154665
0.0047814
1.06901e-05
1.31875e-09
3.80876e-14
1.48422e-14
1.75933e-14
1.97868e-14
2.08031e-14
2.13093e-14
2.0736e-14
1.89584e-14
1.52588e-14
1.57693e-14
1.6834e-14
1.49259e-14
1.77288e-14
2.1688e-14
2.13487e-14
2.35535e-14
2.46459e-14
2.1872e-14
2.32097e-14
1.78264e-14
1.49223e-14
1.2885e-14
1.17509e-14
1.35528e-14
1.24461e-14
1.41051e-14
1.6645e-14
1.55588e-14
1.41742e-14
1.55512e-14
1.68639e-14
2.09382e-14
2.17043e-14
2.20666e-14
1.50094e-14
1.51554e-14
1.24012e-14
1.27264e-14
1.53406e-14
1.08987e-14
1.55686e-14
1.36345e-14
1.09278e-14
1.10004e-14
1.33322e-14
1.53621e-14
1.45581e-14
1.67468e-14
1.67963e-14
1.48163e-14
1.46207e-14
1.66802e-14
1.73854e-14
1.67732e-14
1.89308e-14
1.89007e-14
1.90414e-14
1.964e-14
1.78756e-14
1.92506e-14
1.98095e-14
1.92393e-14
2.23845e-14
2.92929e-14
3.3368e-14
3.65342e-14
3.77259e-14
4.21746e-14
4.15068e-14
3.93815e-14
3.94011e-14
4.20615e-14
4.16219e-14
4.21083e-14
4.47512e-14
4.70125e-14
5.16677e-14
5.56326e-14
5.63469e-14
5.56123e-14
5.40481e-14
5.66871e-14
5.77729e-14
5.57814e-14
5.59785e-14
5.27832e-14
5.04861e-14
5.18691e-14
5.33789e-14
5.7056e-14
5.83722e-14
5.41199e-14
4.77894e-14
3.98859e-14
3.00399e-14
2.2042e-14
1.35116e-14
3.84121e-15
8.72916e-15
1.53401e-14
1.1375e-14
1.33788e-14
1.57788e-14
2.37739e-14
3.18955e-14
3.89679e-14
4.1375e-14
4.19626e-14
4.55531e-14
4.79305e-14
4.6738e-14
4.2649e-14
3.76822e-14
3.43062e-14
3.06152e-14
2.8325e-14
2.75398e-14
2.93836e-14
3.29508e-14
3.30764e-14
3.15094e-14
3.00837e-14
2.92281e-14
2.55366e-14
2.62577e-14
2.77273e-14
2.56278e-14
2.6799e-14
2.62519e-14
2.74882e-14
2.81622e-14
3.13398e-14
3.37395e-14
3.23789e-14
3.4685e-14
3.57026e-14
3.4915e-14
3.3284e-14
2.96488e-14
2.89099e-14
2.53911e-14
2.44008e-14
2.50884e-14
2.78477e-14
3.02996e-14
2.90412e-14
2.46844e-14
2.22116e-14
3.06481e-14
3.38976e-14
3.40921e-14
3.30055e-14
3.42068e-14
3.0675e-14
2.39211e-14
2.23244e-14
2.17509e-14
1.94761e-14
1.88079e-14
1.93109e-14
1.58246e-14
7.65156e-15
1.01899e-14
1.64961e-14
1.71822e-14
1.74745e-14
1.96614e-14
2.1945e-14
2.29112e-14
2.29783e-14
2.36448e-14
2.60124e-14
2.73069e-14
3.16896e-14
3.45984e-14
3.98821e-14
4.39208e-14
4.6086e-14
4.75951e-14
4.62983e-14
4.71907e-14
5.13407e-14
5.61286e-14
5.85269e-14
5.53798e-14
5.551e-14
5.58918e-14
5.13844e-14
5.02609e-14
5.48923e-14
6.09622e-14
6.43327e-14
6.59748e-14
6.27909e-14
5.48148e-14
4.99592e-14
3.98954e-14
2.77393e-14
2.12682e-14
2.08731e-14
1.89127e-14
1.35773e-14
1.23354e-14
1.39292e-14
1.43268e-14
1.31847e-14
1.26178e-14
1.55679e-14
1.78864e-14
2.36791e-14
2.99171e-14
3.26275e-14
3.88137e-14
4.01455e-14
4.15464e-14
4.2747e-14
4.25033e-14
3.95348e-14
3.96406e-14
3.5319e-14
2.92152e-14
2.50106e-14
2.41676e-14
2.18067e-14
2.15499e-14
1.93924e-14
1.86335e-14
1.81909e-14
2.04299e-14
2.6936e-14
2.79683e-14
2.93747e-14
2.72124e-14
2.44543e-14
2.15149e-14
2.19002e-14
2.00409e-14
1.67317e-14
1.24934e-14
1.0371e-14
1.05746e-14
1.34497e-14
1.82254e-14
1.84881e-14
1.85439e-14
1.99455e-14
1.93742e-14
1.6732e-14
1.73437e-14
1.63963e-14
2.37745e-14
2.38312e-14
2.09791e-14
1.94817e-14
1.65227e-14
1.32656e-14
1.65825e-14
2.1355e-14
1.91238e-14
2.11125e-14
2.4246e-14
2.72755e-14
2.82943e-14
2.84302e-14
2.41076e-14
1.96944e-14
1.71699e-14
1.76691e-14
2.24582e-14
1.6144e-14
1.21604e-14
1.39183e-14
1.41493e-14
1.46817e-14
1.42566e-14
1.51177e-14
1.99131e-14
2.13055e-14
1.75876e-14
1.40961e-14
1.51743e-14
1.70834e-14
1.78892e-14
1.77067e-14
1.132
1.132
1.132
1.132
1.132
1.132
1.132
1.132
1.132
1.132
1.132
1.132
1.132
1.132
1.13195
1.1307
1.10767
1.03675
1.02043
1.0201
1.01999
1.01985
1.01973
1.01964
1.01959
1.01958
1.01952
1.01944
1.01935
1.01922
1.01904
1.01891
1.01887
1.01887
1.01889
1.01893
1.01899
1.019
1.01898
1.01894
1.0189
1.01884
1.01879
1.01881
1.01884
1.01889
1.01895
1.01904
1.01914
1.01917
1.01918
1.01917
1.01915
1.01911
1.01907
1.01906
1.01907
1.01908
1.01912
1.01916
1.01917
1.01917
1.01916
1.01915
1.01911
1.01908
1.01907
1.01907
1.01907
1.01908
1.0191
1.01911
1.01911
1.01911
1.01909
1.01907
1.01904
1.01902
1.019
1.019
1.01901
1.01902
1.01903
1.01905
1.01906
1.01907
1.01907
1.01907
1.01907
1.01908
1.01909
1.0191
1.01912
1.01913
1.01914
1.01914
1.01914
1.01913
1.01912
1.01911
1.01911
1.0191
1.0191
1.01909
1.01908
1.01907
1.01906
1.01906
1.01906
1.01906
1.01907
1.01909
1.0191
1.0191
1.01909
1.01909
1.01908
1.01908
1.01907
1.01908
1.01908
1.01909
1.01909
1.01908
1.01908
1.01907
1.01906
1.01906
1.01906
1.01907
1.01908
1.01908
1.01909
1.01909
1.0191
1.0191
1.01911
1.01911
1.01912
1.01912
1.01911
1.01911
1.0191
1.01909
1.01909
1.01909
1.01909
1.01909
1.01909
1.01908
1.01908
1.01907
1.01907
1.01906
1.01906
1.01907
1.01908
1.01908
1.01909
1.0191
1.0191
1.01907
1.01893
1.01877
1.01894
1.01993
1.02223
1.0255
1.02892
1.03157
1.03303
1.03334
1.03339
1.03343
1.03365
1.03394
1.0342
1.03417
1.03404
1.03382
1.03362
1.03342
1.03332
1.03317
1.03307
1.03291
1.03269
1.03228
1.03136
1.03001
1.0287
1.02765
1.02681
1.02611
1.02549
1.02493
1.02441
1.02394
1.0235
1.0231
1.02275
1.0224
1.02211
1.02184
1.02163
1.02144
1.02127
1.0211
1.0209
1.02064
1.02025
1.01971
1.01889
1.01766
1.01575
1.01288
1.00858
1.0025
0.99405
0.982769
0.968063
0.949546
0.927094
0.901012
0.87221
0.842369
0.814111
0.790824
0.774551
0.766059
0.764629
0.76455
0.764401
0.764217
0.764079
0.764079
0.764176
0.764375
0.764622
0.764895
0.765184
0.765325
0.765333
0.765297
0.765194
0.76502
0.764796
0.764572
0.764467
0.764465
0.764494
0.764562
0.764639
0.764666
0.764665
0.764644
0.76458
0.764482
0.764415
0.764402
0.76441
0.764439
0.764491
0.764528
0.764534
0.764526
0.764495
0.764435
0.764347
0.764248
0.764177
0.764164
0.764169
0.764183
0.764205
0.764232
0.764257
0.764276
0.764286
0.76429
0.764291
0.764295
0.764304
0.764318
0.764337
0.76436
0.764386
0.76441
0.764429
0.764443
0.764454
0.764466
0.764482
0.764508
0.764549
0.764614
0.764714
0.764854
0.765031
0.765234
0.765438
0.765631
0.765797
0.765912
0.765967
0.765955
0.76588
0.765801
0.765742
0.765696
0.765666
0.765652
0.765647
0.765637
0.765621
0.765628
0.765655
0.76568
0.765701
0.765715
0.765722
0.765724
0.765722
0.765718
0.765714
0.765708
0.765695
0.765675
0.765653
0.765638
0.765632
0.76563
0.76563
0.765633
0.765639
0.765643
0.765644
0.765644
0.765641
0.765633
0.765626
0.765625
0.765625
0.765628
0.765636
0.765648
0.76566
0.765665
0.765665
0.765664
0.765659
0.765651
0.76564
0.765634
0.765633
0.765634
0.765638
0.765644
0.765652
0.765657
0.765658
0.765657
0.765655
0.765651
0.765645
0.765643
0.765643
0.765644
0.765646
0.76565
0.765652
0.765651
0.765649
0.765646
0.76564
0.765631
0.76562
0.765612
0.76561
0.76561
0.765611
0.765614
0.765616
0.765618
0.765618
0.765617
0.765616
0.765613
0.76561
0.765609
0.765609
0.765609
0.765612
0.765616
0.765622
0.765627
0.765631
0.765633
0.765636
0.765636
0.765633
0.765609
0.765447
0.764404
0.757846
0.719155
0.540573
0.154666
0.00478146
1.06903e-05
1.31879e-09
3.71895e-14
6.86657e-15
1.23998e-14
1.64818e-14
1.70778e-14
1.87715e-14
2.02557e-14
1.93124e-14
1.38281e-14
1.20538e-14
1.40953e-14
1.33523e-14
1.58905e-14
2.01249e-14
2.01794e-14
2.09829e-14
1.84793e-14
1.22831e-14
1.30945e-14
1.1472e-14
9.55895e-15
1.19095e-14
1.51391e-14
1.5086e-14
1.37808e-14
1.48667e-14
1.42854e-14
9.75934e-15
1.13532e-14
1.31929e-14
1.57555e-14
1.86812e-14
2.03545e-14
1.91417e-14
1.64952e-14
1.37941e-14
1.36336e-14
1.57314e-14
1.57706e-14
1.12279e-14
1.08366e-14
1.06454e-14
1.22785e-14
1.13554e-14
1.22712e-14
1.17729e-14
1.30296e-14
1.45463e-14
1.52041e-14
1.18354e-14
8.63918e-15
9.89746e-15
1.33628e-14
1.37886e-14
1.64149e-14
1.80046e-14
1.61098e-14
1.46142e-14
1.30233e-14
1.53007e-14
1.64464e-14
1.67143e-14
2.17515e-14
2.90102e-14
3.2996e-14
3.51123e-14
3.47569e-14
3.89059e-14
3.81121e-14
3.60568e-14
3.41845e-14
3.35954e-14
3.538e-14
3.39078e-14
3.65453e-14
3.88101e-14
4.19961e-14
4.49474e-14
4.67914e-14
4.72757e-14
4.71497e-14
4.69075e-14
4.81593e-14
5.04705e-14
5.14516e-14
5.09063e-14
4.96755e-14
4.92971e-14
4.73764e-14
4.70219e-14
4.58066e-14
4.50698e-14
4.27354e-14
3.51189e-14
2.63674e-14
2.12133e-14
1.58052e-14
5.65398e-15
5.69612e-15
8.97015e-15
7.8259e-15
8.97809e-15
1.53664e-14
2.2249e-14
2.91139e-14
3.45618e-14
3.57042e-14
3.84975e-14
3.87357e-14
4.0109e-14
3.92038e-14
3.71603e-14
3.10494e-14
2.71831e-14
2.63447e-14
2.73363e-14
2.56246e-14
2.59119e-14
2.89274e-14
2.72662e-14
2.42197e-14
2.4807e-14
2.54069e-14
2.31199e-14
2.57589e-14
2.79892e-14
2.55017e-14
2.56482e-14
2.58143e-14
2.71646e-14
2.90786e-14
2.97518e-14
2.84621e-14
2.5659e-14
2.88764e-14
2.92425e-14
2.75388e-14
2.59276e-14
2.30291e-14
2.16827e-14
2.00048e-14
2.1335e-14
2.0542e-14
2.25532e-14
2.40874e-14
2.3709e-14
2.16433e-14
2.14786e-14
2.87425e-14
2.95964e-14
2.97858e-14
2.93687e-14
2.88374e-14
2.61719e-14
2.25369e-14
2.10511e-14
1.9768e-14
2.05697e-14
1.9505e-14
1.97768e-14
2.01148e-14
1.37853e-14
1.43753e-14
1.45249e-14
1.44753e-14
1.51796e-14
1.62827e-14
2.01989e-14
2.10349e-14
2.02099e-14
2.21869e-14
2.38483e-14
2.68757e-14
3.09148e-14
3.4319e-14
3.81034e-14
4.20448e-14
4.40074e-14
4.20383e-14
4.19657e-14
4.45308e-14
4.77476e-14
5.13502e-14
5.26793e-14
5.1142e-14
5.10799e-14
4.78728e-14
4.47407e-14
4.20364e-14
4.66382e-14
4.91422e-14
5.2609e-14
5.46768e-14
5.43862e-14
5.32676e-14
4.68717e-14
3.66557e-14
2.48775e-14
1.69483e-14
1.57441e-14
1.52958e-14
1.38109e-14
1.14319e-14
1.07777e-14
1.21749e-14
1.25096e-14
1.15512e-14
1.23766e-14
1.47051e-14
1.98148e-14
2.50136e-14
2.94249e-14
3.2192e-14
3.37188e-14
3.30572e-14
3.24516e-14
3.38767e-14
3.19266e-14
3.17831e-14
2.76599e-14
2.44643e-14
2.08002e-14
2.07629e-14
1.74813e-14
1.708e-14
1.60365e-14
1.89428e-14
1.77528e-14
2.2985e-14
2.30624e-14
2.21895e-14
2.36347e-14
2.30789e-14
2.04343e-14
1.82726e-14
1.7724e-14
1.76528e-14
1.62381e-14
1.3191e-14
9.38929e-15
1.00007e-14
1.30623e-14
1.42393e-14
1.43571e-14
1.28132e-14
1.27992e-14
1.28292e-14
1.3892e-14
9.75077e-15
1.16344e-14
1.65419e-14
1.50454e-14
1.30683e-14
1.42513e-14
1.47268e-14
1.4961e-14
1.44031e-14
1.64978e-14
1.55469e-14
1.50998e-14
1.88176e-14
2.07168e-14
1.97156e-14
2.02061e-14
1.87284e-14
1.62638e-14
1.49247e-14
1.45599e-14
1.53894e-14
9.75578e-15
8.12322e-15
8.5623e-15
1.20368e-14
1.42414e-14
1.18569e-14
1.40754e-14
1.81349e-14
1.91882e-14
1.68466e-14
1.39446e-14
1.26077e-14
1.34932e-14
1.37671e-14
1.65148e-14
1.132
1.132
1.132
1.132
1.132
1.132
1.132
1.132
1.132
1.132
1.132
1.132
1.132
1.132
1.13195
1.1307
1.10767
1.03675
1.02043
1.0201
1.01999
1.01985
1.01973
1.01964
1.01959
1.01958
1.01952
1.01944
1.01935
1.01922
1.01904
1.01891
1.01887
1.01887
1.01889
1.01893
1.01899
1.019
1.01898
1.01894
1.0189
1.01884
1.01879
1.01881
1.01884
1.01889
1.01895
1.01904
1.01914
1.01917
1.01918
1.01917
1.01915
1.01911
1.01907
1.01906
1.01907
1.01908
1.01912
1.01916
1.01917
1.01917
1.01916
1.01915
1.01911
1.01908
1.01907
1.01907
1.01907
1.01908
1.0191
1.01911
1.01911
1.01911
1.01909
1.01907
1.01904
1.01902
1.019
1.019
1.01901
1.01902
1.01903
1.01905
1.01906
1.01907
1.01907
1.01907
1.01907
1.01908
1.01909
1.0191
1.01912
1.01913
1.01914
1.01914
1.01914
1.01913
1.01912
1.01911
1.01911
1.0191
1.0191
1.01909
1.01908
1.01907
1.01906
1.01906
1.01906
1.01906
1.01907
1.01909
1.0191
1.0191
1.01909
1.01909
1.01908
1.01908
1.01907
1.01908
1.01908
1.01909
1.01909
1.01908
1.01908
1.01907
1.01906
1.01906
1.01906
1.01907
1.01908
1.01908
1.01909
1.01909
1.0191
1.0191
1.01911
1.01911
1.01912
1.01912
1.01911
1.01911
1.0191
1.01909
1.01909
1.01909
1.01909
1.01909
1.01909
1.01908
1.01908
1.01907
1.01907
1.01906
1.01906
1.01907
1.01908
1.01908
1.01909
1.0191
1.0191
1.01907
1.01893
1.01876
1.01894
1.01993
1.02223
1.02552
1.02895
1.0316
1.03305
1.03331
1.03333
1.03337
1.03362
1.03396
1.03425
1.0342
1.03406
1.03383
1.03361
1.03341
1.03332
1.03316
1.03305
1.03288
1.03268
1.0323
1.0314
1.03001
1.02866
1.02763
1.02682
1.02614
1.02551
1.02493
1.0244
1.02392
1.0235
1.0231
1.02275
1.0224
1.02211
1.02184
1.02163
1.02144
1.02128
1.0211
1.0209
1.02064
1.02025
1.01972
1.0189
1.01767
1.01578
1.01292
1.00864
1.00257
0.994118
0.982814
0.968086
0.94955
0.92706
0.900933
0.872124
0.842343
0.814182
0.790952
0.774719
0.766142
0.764652
0.764595
0.764462
0.764284
0.76413
0.764115
0.764196
0.76438
0.764616
0.764877
0.765161
0.765313
0.765321
0.765287
0.765187
0.765016
0.764793
0.764566