/*--------------------------------*- C++ -*----------------------------------*\
| =========                 |                                                 |
| \\      /  F ield         | OpenFOAM: The Open Source CFD Toolbox           |
|  \\    /   O peration     | Version:  2406                                  |
|   \\  /    A nd           | Website:  www.openfoam.com                      |
|    \\/     M anipulation  |                                                 |
\*---------------------------------------------------------------------------*/
FoamFile
{
    version     2.0;
    format      ascii;
    arch        "LSB;label=32;scalar=64";
    class       volVectorField;
    location    "0.03";
    object      U;
}
// * * * * * * * * * * * * * * * * * * * * * * * * * * * * * * * * * * * * * //

dimensions      [0 1 -1 0 0 0 0];

internalField   nonuniform List<vector> 
83682
(
(347.059 2.6454e-11 -2.50604e-11)
(347.059 2.37832e-11 -2.50415e-11)
(347.059 1.49778e-11 -2.37947e-11)
(347.059 9.09684e-13 -2.40452e-11)
(347.059 -7.83266e-12 -2.20643e-11)
(347.059 -7.02067e-12 -2.03426e-11)
(347.059 -6.24289e-12 -2.04941e-11)
(347.059 -8.11029e-12 -2.06996e-11)
(347.059 -1.16158e-11 -2.13415e-11)
(347.059 -1.49552e-11 -2.21918e-11)
(347.059 -1.58664e-11 -2.20487e-11)
(347.059 -1.30728e-11 -2.0187e-11)
(347.059 7.99711e-11 -3.34359e-11)
(347.059 -4.85089e-09 -1.18207e-09)
(347.047 2.13286e-07 5.91107e-08)
(346.733 -3.96605e-06 -1.68472e-06)
(340.951 3.70428e-05 1.72502e-05)
(322.896 1.18536e-05 1.10735e-06)
(318.61 -5.30165e-05 -2.45209e-05)
(318.591 -6.55913e-05 -2.07046e-05)
(318.579 -2.74733e-05 -1.69714e-06)
(318.55 -8.81614e-06 4.05086e-06)
(318.512 3.34961e-05 1.47991e-05)
(318.482 5.1436e-05 1.77503e-05)
(318.46 4.0168e-05 1.13658e-05)
(318.445 2.01607e-05 1.00467e-06)
(318.417 1.70075e-06 -6.58978e-06)
(318.39 -2.54901e-06 -7.03819e-06)
(318.369 -2.80551e-05 -1.6168e-05)
(318.344 -2.96073e-05 -1.65292e-05)
(318.311 -1.5115e-06 -3.55128e-06)
(318.293 1.89225e-05 5.91962e-06)
(318.292 2.47203e-05 7.64799e-06)
(318.291 3.41519e-05 1.04293e-05)
(318.292 3.2665e-05 1.00831e-05)
(318.292 3.11698e-05 1.12924e-05)
(318.291 6.18523e-06 1.57136e-06)
(318.277 -1.52057e-05 -6.54391e-06)
(318.266 -1.81545e-05 -7.59719e-06)
(318.257 -1.99948e-05 -8.36669e-06)
(318.252 -1.74819e-05 -7.51433e-06)
(318.251 -9.17731e-06 -3.071e-06)
(318.254 4.97572e-06 4.56609e-06)
(318.271 9.92575e-06 6.77717e-06)
(318.283 1.13228e-05 6.83238e-06)
(318.293 1.07327e-05 5.50415e-06)
(318.302 5.43059e-06 2.73792e-06)
(318.313 -1.45943e-06 -5.68627e-07)
(318.325 -9.11565e-06 -3.92807e-06)
(318.326 -1.10006e-05 -4.09908e-06)
(318.329 -9.66203e-06 -1.36021e-06)
(318.33 -5.72939e-06 3.84418e-06)
(318.331 -2.75996e-06 6.01093e-06)
(318.331 -7.00819e-07 5.12786e-06)
(318.328 -5.98503e-07 4.81434e-07)
(318.328 -4.6615e-06 -7.73688e-06)
(318.328 -7.13276e-06 -1.24189e-05)
(318.328 -1.9729e-05 -2.63508e-05)
(318.329 -3.58759e-05 -4.27537e-05)
(318.329 -2.56875e-05 -2.51711e-05)
(318.33 -3.55672e-06 6.18903e-06)
(318.329 3.38257e-06 1.51824e-05)
(318.329 1.07557e-05 2.33542e-05)
(318.33 1.39089e-05 2.37062e-05)
(318.329 5.26932e-06 4.93675e-06)
(318.328 -4.81027e-06 -1.28087e-05)
(318.328 -7.24104e-06 -1.64771e-05)
(318.326 -1.03096e-05 -1.87792e-05)
(318.325 -7.88918e-06 -1.16595e-05)
(318.323 7.99046e-06 1.14676e-05)
(318.323 2.61616e-05 3.49342e-05)
(318.325 3.60154e-05 4.21291e-05)
(318.325 3.92433e-05 4.19384e-05)
(318.325 3.92125e-05 3.29495e-05)
(318.324 2.46326e-05 -3.50195e-06)
(318.322 -3.6874e-06 -4.09184e-05)
(318.319 -1.71443e-05 -4.42872e-05)
(318.312 -2.04496e-05 -3.47935e-05)
(318.304 -1.7383e-05 -1.6158e-05)
(318.3 -9.8339e-06 7.5207e-07)
(318.297 8.52494e-06 3.3972e-05)
(318.296 5.45506e-05 0.00010338)
(318.298 7.26778e-05 0.000118671)
(318.303 6.32538e-05 8.79127e-05)
(318.309 2.60581e-05 -2.02952e-06)
(318.314 -2.25002e-05 -9.97613e-05)
(318.318 -7.33609e-05 -0.000189098)
(318.323 -0.000117442 -0.000263198)
(318.325 -0.000159357 -0.000302574)
(318.326 -0.000170598 -0.000303046)
(318.327 -0.000167612 -0.00027994)
(318.329 -0.000149728 -0.000225521)
(318.331 -0.00010566 -0.000121381)
(318.331 -4.37442e-05 -3.49048e-07)
(318.332 5.00202e-06 7.73135e-05)
(318.332 4.96773e-05 0.000140358)
(318.332 6.39343e-05 0.000158571)
(318.332 8.70411e-05 0.000184741)
(318.332 0.000105329 0.000195409)
(318.332 0.000104204 0.000177939)
(318.331 9.02689e-05 0.00015156)
(318.329 7.21053e-05 0.000123489)
(318.326 5.40887e-05 9.67938e-05)
(318.321 3.75973e-05 7.30414e-05)
(318.315 2.35755e-05 5.24607e-05)
(318.312 1.3843e-05 3.72872e-05)
(318.309 9.77378e-06 3.06568e-05)
(318.308 4.52009e-06 2.16584e-05)
(318.308 5.4057e-07 1.44036e-05)
(318.311 -2.23429e-06 9.42396e-06)
(318.317 -4.25083e-06 6.16064e-06)
(318.324 -5.55922e-06 4.09094e-06)
(318.328 -6.35709e-06 2.7768e-06)
(318.329 -6.77092e-06 1.88857e-06)
(318.328 -6.94921e-06 1.48674e-06)
(318.326 -7.06482e-06 1.24022e-06)
(318.323 -6.5468e-06 8.81684e-07)
(318.321 -5.68378e-06 6.44831e-07)
(318.32 -4.69049e-06 4.79796e-07)
(318.32 -3.87374e-06 3.35938e-07)
(318.321 -3.43432e-06 2.23065e-07)
(318.322 -3.19534e-06 1.4302e-07)
(318.322 -3.32771e-06 1.03487e-07)
(318.321 -3.69007e-06 8.71318e-08)
(318.32 -4.33756e-06 7.50138e-08)
(318.317 -5.19444e-06 4.39978e-08)
(318.314 -6.08066e-06 -2.97315e-08)
(318.312 -6.6408e-06 -1.42149e-07)
(318.312 -6.53631e-06 -2.15213e-07)
(318.315 -6.21312e-06 -2.38476e-07)
(318.316 -5.56007e-06 -2.63497e-07)
(318.317 -5.06544e-06 -2.45425e-07)
(318.319 -4.62806e-06 -1.90483e-07)
(318.322 -4.18755e-06 -1.072e-07)
(318.326 -3.76652e-06 -1.77726e-08)
(318.328 -3.39977e-06 7.07759e-08)
(318.329 -3.05652e-06 1.52979e-07)
(318.331 -3.09215e-06 2.01955e-07)
(318.332 -2.77075e-06 2.49544e-07)
(318.332 -2.48815e-06 2.66655e-07)
(318.331 -1.48363e-06 1.95625e-07)
(318.329 -7.15016e-07 1.33192e-07)
(318.327 2.43001e-07 4.86741e-08)
(318.324 5.30433e-07 3.36354e-08)
(318.322 1.20418e-06 -3.16151e-09)
(318.322 1.23235e-06 3.2805e-08)
(318.322 1.75754e-06 3.36177e-08)
(318.323 1.12555e-06 1.42491e-07)
(318.322 2.56184e-06 8.64227e-08)
(318.321 1.91521e-06 1.39536e-07)
(318.319 2.57607e-06 9.51103e-08)
(318.317 1.89018e-06 1.06512e-07)
(318.316 8.98927e-07 1.14006e-07)
(318.315 1.83155e-06 8.64755e-08)
(318.315 -1.83864e-06 1.61995e-07)
(318.316 4.03506e-06 -1.49656e-07)
(318.319 -7.99399e-06 4.25569e-07)
(318.321 8.51107e-06 -3.64216e-07)
(318.323 1.48296e-05 -5.06837e-07)
(318.327 5.30049e-06 -2.51523e-07)
(318.327 -5.6697e-05 2.10047e-06)
(318.319 3.07295e-05 -2.59858e-06)
(318.281 -0.000433027 1.56178e-05)
(318.242 -1.47392e-05 6.02669e-06)
(318.29 0.00121093 -4.54388e-05)
(318.55 0.00391876 -8.22522e-05)
(319.141 0.00552074 -0.00033996)
(319.974 0.0038146 -0.000179695)
(320.836 -0.000735972 0.000319224)
(321.523 -0.0149935 -0.000225512)
(321.914 -0.0237748 0.000752386)
(322.043 -0.0166358 0.000705899)
(322.073 -0.00284692 0.000379812)
(322.083 0.0126901 0.000212392)
(322.113 0.0277582 -0.000749743)
(322.153 0.0264711 -0.000992782)
(322.193 0.0172392 -0.000961313)
(322.19 0.00637563 -0.000657995)
(322.169 -0.00296594 -0.000341363)
(322.129 -0.00792064 0.000105479)
(322.086 -0.00758146 0.000325379)
(322.041 -0.00431956 0.000210064)
(322.01 -0.00219378 0.000184388)
(321.978 0.00156857 0.000144315)
(321.955 0.00605271 -2.94049e-05)
(321.919 0.0132978 -0.000201013)
(321.848 0.0169101 -0.000480814)
(321.724 0.0174494 -0.000552771)
(321.477 0.0164664 -0.000556558)
(321.141 0.0140295 -0.000481177)
(320.821 0.0115625 -0.000371015)
(320.549 0.0122071 -0.000416801)
(320.319 0.0127381 -0.00043591)
(320.126 0.0142851 -0.000587275)
(319.962 0.0138869 -0.000611778)
(319.823 0.01263 -0.000562489)
(319.696 0.0108695 -0.000453534)
(319.575 0.0106622 -0.000409696)
(319.46 0.0110275 -0.000405035)
(319.351 0.0110386 -0.000378301)
(319.257 0.00990142 -0.000276965)
(319.167 0.00782044 -0.00012674)
(319.094 0.00739291 -7.6862e-05)
(319.027 0.00815085 -0.000139107)
(318.971 0.00865756 -0.000193656)
(318.924 0.00706009 -0.000122369)
(318.887 0.00561844 1.08793e-06)
(318.857 0.00868056 -0.000179256)
(318.832 0.016571 -0.000775569)
(318.814 0.0244407 -0.00135472)
(318.795 0.0248566 -0.00136632)
(318.781 0.012437 -0.00066594)
(318.767 0.001598 -0.000400558)
(318.754 0.00805708 -0.00130076)
(318.734 0.0316523 -0.00290667)
(318.708 0.065744 -0.00409348)
(318.668 0.0728941 -0.00368387)
(318.637 0.0509943 -0.00229707)
(318.608 -0.0116076 0.000599879)
(318.612 -0.0966593 0.00435594)
(318.625 -0.123315 0.00542441)
(318.638 -0.0604859 0.00264005)
(318.628 0.0828921 -0.00425254)
(318.584 0.290245 -0.0145219)
(318.487 0.50376 -0.0253864)
(318.323 0.616262 -0.0313651)
(318.135 0.571567 -0.0281314)
(318.046 0.439259 -0.0209071)
(317.693 0.296684 -0.0122691)
(317.282 0.158719 -0.00668964)
(317.7 0.099909 -0.00274253)
(317.79 0.085594 -0.00190996)
(317.722 0.0744895 -0.00138986)
(317.606 0.0638189 -0.000461105)
(317.501 0.0567549 0.000592979)
(317.427 0.0515856 0.0012906)
(317.366 0.0391299 0.00239998)
(317.334 0.0248401 0.00321276)
(317.334 0.0149455 0.00338927)
(317.386 0.0103647 0.00300543)
(317.484 0.00849565 0.00255126)
(317.527 0.00745955 0.00242294)
(317.53 0.00648858 0.00250344)
(317.517 0.00456772 0.00266938)
(317.479 0.00225567 0.00271178)
(317.415 0.000120175 0.00247801)
(317.336 -0.00127489 0.00211987)
(317.265 -0.00187192 0.00170647)
(317.254 -0.00127597 0.00134232)
(317.279 -0.000701927 0.00114112)
(317.309 2.17143e-07 0.000859122)
(317.35 0.000197 0.00065536)
(317.384 -0.000134535 0.000541278)
(317.391 -0.000946847 0.000508449)
(317.386 -0.00163939 0.000506045)
(317.365 -0.00255448 0.000517824)
(317.318 -0.00321877 0.00052533)
(317.259 -0.00339332 0.000500149)
(317.219 -0.00298367 0.000428078)
(317.205 -0.00231214 0.000344028)
(317.204 -0.00175325 0.000269837)
(317.217 -0.00109176 0.000159151)
(317.24 -0.000632373 3.8061e-05)
(317.257 -0.000451167 -6.88751e-05)
(317.262 -0.000493069 -0.000119624)
(317.262 -0.000683512 -0.000184509)
(317.252 -0.00103978 -0.000239706)
(317.229 -0.0013611 -0.000277955)
(317.193 -0.00157928 -0.000316847)
(317.151 -0.0016696 -0.000342259)
(317.121 -0.00146377 -0.000348288)
(317.116 -0.00117064 -0.000343585)
(317.118 -0.000916272 -0.000341207)
(317.124 -0.000322586 -0.000374656)
(317.132 0.000426337 -0.000432977)
(317.142 0.00104139 -0.000524387)
(317.149 0.00128456 -0.000650478)
(317.154 0.00139863 -0.000732763)
(317.155 0.00106873 -0.000665152)
(317.154 4.38024e-05 -0.000548211)
(317.152 -0.000933303 -0.000429049)
(317.153 -0.00162272 -0.000360895)
(317.157 -0.0024019 -0.000335621)
(317.164 -0.00291204 -0.000384144)
(317.174 -0.00248526 -0.000575632)
(317.188 -0.00172402 -0.000723154)
(317.204 -0.00114066 -0.00071981)
(317.219 -5.39955e-05 -0.000733179)
(317.231 0.00174639 -0.000729876)
(317.241 0.00335426 -0.000712651)
(317.249 0.00407082 -0.000704922)
(317.257 0.00428911 -0.000722233)
(317.267 0.00393927 -0.000834123)
(317.28 0.00120415 -0.000997595)
(317.3 -0.00728154 -0.000966517)
(317.328 -0.0246088 -0.000430331)
(317.369 -0.0514036 0.000795764)
(317.423 -0.0825524 0.0026087)
(317.49 -0.112055 0.00448793)
(317.565 -0.128409 0.00586488)
(317.641 -0.131454 0.00664168)
(317.713 -0.120963 0.00667186)
(317.774 -0.090962 0.00548063)
(317.813 -0.0445255 0.00372766)
(317.832 0.0121583 0.00134679)
(317.829 0.0749143 -0.00151381)
(317.808 0.128799 -0.00399454)
(317.787 0.153123 -0.0051476)
(317.765 0.160649 -0.00555631)
(317.741 0.161231 -0.00581339)
(317.719 0.151469 -0.00581222)
(317.7 0.125767 -0.00497319)
(317.684 0.0839319 -0.00328387)
(317.672 0.0358067 -0.00114756)
(317.661 -0.0073384 0.00123202)
(317.655 -0.0399717 0.00326472)
(317.654 -0.0532971 0.00463693)
(317.657 -0.0549208 0.00498714)
(317.665 -0.0529229 0.00517829)
(317.675 -0.048004 0.00530331)
(317.688 -0.0388044 0.00523729)
(317.703 -0.0256347 0.00484402)
(317.715 -0.0125371 0.00403101)
(317.725 -0.00412755 0.003073)
(317.731 -0.000580223 0.00241868)
(317.734 0.000516348 0.002008)
(317.731 0.000818692 0.00172058)
(317.724 0.00112337 0.00147312)
(317.715 0.00177293 0.0012303)
(317.71 0.00277362 0.000995969)
(317.71 0.00376025 0.000812581)
(317.713 0.00443746 0.000699538)
(317.718 0.0051504 0.000576167)
(317.725 0.00532893 0.000505948)
(317.733 0.00479442 0.000504529)
(317.74 0.00354224 0.000553598)
(317.744 0.00202501 0.000589445)
(317.746 0.000676392 0.000567292)
(317.746 -0.000465885 0.000512927)
(317.743 -0.00108099 0.000478424)
(317.74 -0.000985931 0.000427595)
(317.74 -0.000583899 0.000374361)
(317.741 -5.64979e-05 0.000314705)
(317.743 0.000619894 0.000238783)
(317.747 0.0010527 0.000192004)
(317.754 0.00110928 0.000175843)
(317.761 0.00080619 0.00017685)
(317.765 0.000306368 0.000178984)
(317.766 -1.27284e-05 0.000174941)
(317.767 -0.00046271 0.000171939)
(317.766 -0.000812018 0.000167284)
(317.764 -0.000881328 0.000154607)
(317.76 -0.00066637 0.000126857)
(317.758 -0.000221398 8.33488e-05)
(317.759 0.000114117 5.37733e-05)
(317.761 0.000476371 2.23988e-05)
(317.764 0.000820055 -5.53306e-06)
(317.768 0.000908346 -1.45252e-05)
(317.772 0.000723796 -8.10048e-06)
(317.775 0.000351938 5.21311e-06)
(317.776 4.5876e-05 1.48427e-05)
(317.775 -0.000271615 2.56465e-05)
(317.774 -0.000567427 3.87233e-05)
(317.771 -0.000674127 4.80361e-05)
(317.768 -0.000569413 5.01038e-05)
(317.767 -0.000330867 4.38241e-05)
(317.767 -0.000150394 3.67584e-05)
(317.767 0.000115732 2.56914e-05)
(317.769 0.000334563 1.82558e-05)
(317.772 0.00043488 1.80149e-05)
(317.773 0.000379613 2.3534e-05)
(317.774 0.000277043 2.82502e-05)
(317.775 4.67828e-05 3.49975e-05)
(317.774 -0.000222726 4.08339e-05)
(317.772 -0.000409478 4.35096e-05)
(317.769 -0.000472197 4.33252e-05)
(317.765 -0.000400077 3.97227e-05)
(317.761 -0.000209279 3.17994e-05)
(317.76 -9.63297e-06 2.306e-05)
(317.76 0.000128648 1.62132e-05)
(317.761 0.000320633 5.32054e-06)
(317.762 0.000403704 -1.32398e-06)
(317.763 0.000319624 2.49148e-07)
(317.764 0.00012315 7.46597e-06)
(317.764 -1.96339e-05 1.30694e-05)
(317.763 -0.000209663 2.14278e-05)
(317.762 -0.000344972 2.70001e-05)
(317.761 -0.000382866 2.47739e-05)
(317.76 -0.000333499 1.79883e-05)
(317.759 -0.000206796 1.0664e-05)
(317.76 -9.1289e-05 6.49019e-06)
(317.761 5.09981e-05 3.11377e-06)
(317.763 0.000179845 -3.68169e-07)
(317.765 0.000221867 -1.70874e-06)
(317.768 0.000177517 -1.87183e-06)
(317.771 6.99311e-05 -2.65423e-06)
(317.773 -3.36803e-05 -6.86078e-06)
(317.774 -0.000107568 -8.18342e-06)
(317.775 -0.000152703 -1.03123e-05)
(317.775 -0.000158586 -1.16954e-05)
(317.774 -0.000145433 -1.46594e-05)
(317.762 -0.000125218 -2.20708e-05)
(317.682 -0.000145997 -2.86678e-05)
(317.17 -0.000147672 -2.07002e-05)
(313.958 -0.000113525 -3.05714e-05)
(295.143 -7.02818e-05 -7.3479e-05)
(212.497 -1.39081e-05 -8.78011e-05)
(55.2963 4.49054e-06 -2.64039e-05)
(1.64507 2.97297e-07 -7.12671e-07)
(0.0036737 1.07169e-09 -1.34118e-09)
(4.5319e-07 6.18423e-12 4.37073e-13)
(1.33525e-11 5.70217e-12 -5.40581e-12)
(-5.8436e-13 5.76115e-12 -1.16177e-11)
(1.60228e-13 4.66981e-12 -1.00439e-11)
(2.91072e-12 4.34046e-12 -9.33371e-12)
(2.09169e-12 4.72767e-12 -9.13155e-12)
(7.57869e-13 3.61929e-12 -9.0131e-12)
(2.64456e-12 2.67736e-12 -8.09038e-12)
(3.15818e-12 2.90345e-12 -6.14304e-12)
(4.89171e-12 2.1965e-12 -4.91238e-12)
(4.77064e-12 2.72133e-12 -3.91634e-12)
(3.61655e-12 1.89293e-12 -3.34584e-12)
(4.17678e-12 1.43176e-12 -2.57956e-12)
(6.42842e-12 2.06714e-12 -2.3952e-12)
(7.39992e-12 4.11674e-12 -2.57955e-12)
(7.00687e-12 5.42162e-12 -2.68174e-12)
(9.08932e-12 6.36483e-12 -2.61127e-12)
(8.29069e-12 8.01473e-12 -2.6784e-12)
(5.2135e-12 7.56114e-12 -2.52299e-12)
(3.24461e-12 8.64354e-12 -9.55621e-13)
(-1.05414e-12 6.88488e-12 4.28192e-13)
(-3.48074e-12 4.20992e-12 2.11667e-12)
(-1.85614e-12 2.9953e-12 2.33892e-12)
(-1.05413e-12 3.41624e-12 1.18017e-12)
(-1.11277e-12 2.69198e-12 7.43385e-13)
(-7.39496e-13 3.48622e-12 -1.24279e-12)
(-2.05925e-12 4.92355e-12 -3.10178e-12)
(-2.08239e-12 4.32831e-12 -2.27899e-12)
(-9.16066e-13 4.95656e-12 -1.67146e-12)
(-3.57838e-12 5.33548e-12 -1.4348e-12)
(-6.30969e-12 4.54733e-12 1.99292e-12)
(-4.3871e-12 2.76784e-12 6.50203e-12)
(-3.50954e-12 2.46133e-12 9.96636e-12)
(-4.27839e-12 2.11849e-12 7.88298e-12)
(-3.41324e-12 1.43737e-12 6.45401e-12)
(-2.45952e-12 1.96875e-12 7.05865e-12)
(-3.53764e-12 3.52605e-12 3.62498e-12)
(-4.27102e-12 4.35573e-12 -5.76879e-13)
(-4.02911e-12 4.4246e-12 -3.34133e-12)
(-4.31966e-12 4.31314e-12 -1.73168e-12)
(-3.81806e-12 3.3761e-12 -1.57115e-12)
(-2.37974e-12 3.07948e-12 -2.08524e-12)
(-2.47856e-12 3.23228e-12 -2.85201e-12)
(-2.96262e-12 2.99545e-12 -3.22777e-12)
(-1.68455e-12 2.2123e-12 -3.54114e-12)
(1.25215e-12 1.71475e-12 -3.92303e-12)
(3.25533e-12 2.81752e-12 -4.18058e-12)
(4.86837e-12 3.64931e-12 -4.01931e-12)
(4.89621e-12 5.0013e-12 -3.71609e-12)
(4.16288e-12 5.18235e-12 -3.26682e-12)
(4.55067e-12 5.49926e-12 -2.5627e-12)
(4.47103e-12 6.73687e-12 -1.90025e-12)
(3.13078e-12 7.4758e-12 -1.26016e-12)
(2.58161e-12 6.88294e-12 -2.83434e-13)
(4.6694e-12 6.61526e-12 -9.73713e-13)
(5.30835e-12 7.13683e-12 -2.09601e-12)
(4.52151e-12 6.8922e-12 -2.70329e-12)
(4.75998e-12 6.93213e-12 -3.61198e-12)
(2.94366e-12 6.68915e-12 -4.89127e-12)
(1.36676e-12 5.50024e-12 -5.4551e-12)
(2.59119e-12 4.56918e-12 -7.40456e-12)
(1.99945e-12 3.04228e-12 -8.6516e-12)
(1.84364e-12 1.16999e-12 -7.69356e-12)
(4.74001e-12 9.1066e-13 -6.98483e-12)
(7.10081e-12 2.5237e-12 -7.84132e-12)
(9.65561e-12 3.77543e-12 -7.9081e-12)
(1.14722e-11 4.73054e-12 -6.01908e-12)
(1.08083e-11 5.20281e-12 -7.97409e-12)
(1.10216e-11 5.33632e-12 -7.30156e-12)
(1.15918e-11 6.24881e-12 -7.40146e-12)
(8.81015e-12 8.63591e-12 -6.10341e-12)
(6.43797e-12 1.07164e-11 -5.76771e-12)
(7.69432e-12 1.38246e-11 -5.60542e-12)
(4.69874e-12 1.68802e-11 -4.99759e-12)
(-5.97803e-13 1.72389e-11 -4.94131e-12)
(-2.87541e-12 1.61001e-11 -9.628e-12)
(-3.13634e-12 1.45425e-11 -1.40585e-11)
(-3.29203e-12 1.26224e-11 -1.43669e-11)
(-3.64139e-12 1.27927e-11 -1.56769e-11)
(-6.38067e-12 1.32497e-11 -1.56169e-11)
(-7.45152e-12 1.2223e-11 -1.46493e-11)
(-6.66236e-12 1.25715e-11 -1.34781e-11)
(-7.64569e-12 1.39422e-11 -1.37402e-11)
(-1.16464e-11 1.39192e-11 -1.26646e-11)
(-1.50334e-11 1.24644e-11 -1.17741e-11)
(-1.49086e-11 9.67015e-12 -9.58684e-12)
(-1.34369e-11 8.70571e-12 -6.94768e-12)
(-1.22001e-11 7.50024e-12 -9.34378e-12)
(-1.0455e-11 6.63974e-12 -1.26202e-11)
(-1.16781e-11 5.82474e-12 -1.58376e-11)
(-1.4217e-11 6.51603e-12 -1.97357e-11)
(-1.45701e-11 6.27476e-12 -2.37564e-11)
(-1.38771e-11 4.65984e-12 -2.00451e-11)
(-1.04118e-11 1.57843e-12 -1.60881e-11)
(-9.88664e-12 6.15328e-13 -1.08739e-11)
(-8.39294e-12 -8.84761e-13 -7.20576e-12)
(-4.32666e-12 -1.21419e-12 -6.16965e-12)
(-9.23764e-13 5.03568e-15 -5.60047e-12)
(1.35296e-12 7.63004e-13 -1.58403e-12)
(1.74167e-12 2.71975e-12 2.76116e-12)
(4.90854e-13 3.27462e-12 5.64182e-12)
(7.51047e-13 2.9632e-12 2.51023e-12)
(4.36256e-12 3.33251e-12 -1.98631e-12)
(5.434e-12 3.71802e-12 -6.54044e-12)
(5.84414e-12 2.79384e-12 -5.69521e-12)
(7.37505e-12 2.30218e-12 -6.1808e-12)
(9.00226e-12 2.11458e-12 -7.31283e-12)
(1.16314e-11 2.52696e-12 -6.82215e-12)
(1.33489e-11 5.30547e-12 -6.15271e-12)
(1.2142e-11 8.20509e-12 -8.46355e-12)
(1.06961e-11 1.02924e-11 -9.748e-12)
(9.85649e-12 1.19362e-11 -8.87109e-12)
(7.88557e-12 1.38258e-11 -5.91996e-12)
(5.56276e-12 1.28451e-11 -1.62987e-12)
(3.82447e-12 1.18225e-11 -1.89844e-12)
(3.90433e-12 9.82746e-12 -5.18961e-13)
(3.32435e-12 8.79806e-12 1.96931e-12)
(1.93524e-13 8.96767e-12 1.95916e-12)
(-3.57453e-12 1.11068e-11 2.51309e-12)
(-6.01813e-12 1.09755e-11 5.56029e-12)
(-5.23937e-12 1.08401e-11 9.11696e-12)
(-6.91428e-12 1.02745e-11 6.95295e-12)
(-1.06968e-11 6.86126e-12 4.78948e-12)
(-1.04053e-11 3.44559e-12 3.05398e-12)
(-7.74702e-12 3.64624e-12 2.49345e-12)
(-6.63978e-12 3.08568e-12 3.59042e-12)
(-6.21695e-12 3.02758e-12 4.62663e-12)
(-5.16509e-12 4.03664e-12 5.85393e-12)
(-4.442e-12 4.90659e-12 7.1547e-12)
(-3.80989e-12 4.82175e-12 7.3063e-12)
(-4.00067e-12 5.02945e-12 7.13535e-12)
(-3.09917e-12 4.20725e-12 8.87467e-12)
(-1.45487e-12 5.57493e-12 1.09258e-11)
(-4.03602e-13 6.11231e-12 1.30101e-11)
(1.3602e-12 6.88693e-12 1.17666e-11)
(1.40327e-12 9.69486e-12 1.1672e-11)
(-1.74952e-12 1.21973e-11 9.27549e-12)
(-6.22013e-12 1.19397e-11 8.00066e-12)
(-7.86011e-12 9.17689e-12 8.16528e-12)
(-6.49035e-12 6.7182e-12 1.04203e-11)
(-4.90953e-12 4.88447e-12 1.30899e-11)
(-3.29821e-12 3.7708e-12 1.12826e-11)
(-1.28709e-12 2.20976e-12 1.05777e-11)
(1.64451e-13 2.73283e-12 1.19722e-11)
(-2.86723e-13 4.09763e-12 1.12162e-11)
(-2.30733e-12 5.25823e-12 1.24232e-11)
(-3.20186e-12 6.39805e-12 1.17814e-11)
(-2.052e-12 7.52164e-12 8.99199e-12)
(-4.16769e-12 8.8203e-12 6.28784e-12)
(-8.19379e-12 9.31887e-12 5.83473e-12)
(-9.57617e-12 8.08642e-12 5.30882e-12)
(-8.18354e-12 7.75013e-12 5.08397e-12)
(-9.1442e-12 7.99879e-12 4.61539e-12)
(-1.04781e-11 6.72738e-12 4.27129e-12)
(-9.39986e-12 5.7946e-12 3.39597e-12)
(-7.94727e-12 4.44872e-12 2.93436e-12)
(-7.79462e-12 2.98847e-12 2.87525e-12)
(-7.42118e-12 2.48819e-12 3.80104e-12)
(-6.69467e-12 1.92311e-12 2.77044e-12)
(-6.30077e-12 8.72343e-13 2.69469e-12)
(-4.99154e-12 5.80995e-13 3.85371e-12)
(-3.15956e-12 4.17288e-13 1.6581e-12)
(-6.74524e-13 -4.43539e-13 -1.20403e-12)
(1.38759e-12 2.08529e-12 -3.65358e-12)
(2.14346e-12 3.93219e-12 -5.96479e-12)
(-3.97459e-15 5.18332e-12 -6.67047e-12)
(-8.3472e-13 3.87633e-12 -7.41835e-12)
(1.56904e-12 3.31441e-12 -7.87393e-12)
(2.44482e-12 2.93947e-12 -9.94765e-12)
(2.69723e-12 1.85089e-12 -7.70244e-12)
(5.15944e-12 -4.64754e-13 -5.89373e-12)
(8.1213e-12 -4.11532e-13 -5.11469e-12)
(8.47613e-12 6.09939e-13 -3.36923e-12)
(9.78219e-12 1.92376e-12 -2.39903e-12)
(9.97227e-12 2.38721e-12 -9.16507e-13)
(1.14863e-11 1.99652e-12 -2.0902e-12)
(1.48292e-11 2.22475e-12 -3.40289e-12)
(1.45067e-11 4.8039e-12 -4.74673e-12)
(1.46552e-11 5.86786e-12 -6.57708e-12)
(1.30974e-11 6.83333e-12 -7.88995e-12)
(1.11392e-11 6.25283e-12 -8.68154e-12)
(1.26581e-11 5.29067e-12 -1.00112e-11)
(1.42561e-11 5.73233e-12 -1.20827e-11)
(1.23774e-11 6.77106e-12 -1.28924e-11)
(1.05563e-11 6.09786e-12 -1.30522e-11)
(1.1027e-11 6.50019e-12 -1.36948e-11)
(1.25423e-11 7.74613e-12 -1.42196e-11)
(1.18028e-11 9.7035e-12 -1.40781e-11)
(7.27277e-12 1.03208e-11 -1.57308e-11)
(4.18507e-12 8.55029e-12 -1.78724e-11)
(2.83311e-12 9.74568e-12 -2.26887e-11)
(-6.17835e-13 9.05635e-12 -2.5805e-11)
(-9.54614e-13 8.03823e-12 -2.44815e-11)
(-9.97414e-14 7.66464e-12 -2.38214e-11)
(-1.05486e-12 7.62854e-12 -2.33339e-11)
(-3.19794e-13 6.36443e-12 -1.87791e-11)
(3.07319e-12 4.7685e-12 -1.52732e-11)
(3.48417e-12 6.05394e-12 -1.22456e-11)
(4.93359e-12 4.87097e-12 -8.31459e-12)
(5.30277e-12 6.67929e-12 -5.2614e-12)
(2.67267e-12 7.11518e-12 -4.22118e-12)
(2.79893e-12 5.73277e-12 -1.78764e-12)
(2.18969e-12 6.87487e-12 5.21977e-14)
(1.45901e-12 7.15209e-12 8.48874e-13)
(2.72734e-12 7.46565e-12 1.77263e-12)
(2.33553e-12 7.04206e-12 -2.67679e-12)
(1.4838e-12 5.65589e-12 -3.88345e-12)
(2.61862e-12 4.57153e-12 -4.06303e-12)
(4.11278e-12 3.93731e-12 -2.85597e-12)
(6.07468e-12 4.23381e-12 -3.23762e-12)
(8.20744e-12 4.90635e-12 -3.45314e-12)
(7.83996e-12 6.54486e-12 -4.05598e-12)
(7.62102e-12 6.96184e-12 -4.79307e-12)
(8.79196e-12 8.15678e-12 -5.32432e-12)
(6.84245e-12 1.08972e-11 -6.21454e-12)
(3.93707e-12 1.33769e-11 -9.51054e-12)
(-2.57594e-13 1.10689e-11 -1.13123e-11)
(-4.74861e-12 1.03874e-11 -1.45843e-11)
(-6.42235e-12 9.27571e-12 -1.88718e-11)
(-6.34691e-12 7.27566e-12 -1.6259e-11)
(-3.75145e-12 5.26858e-12 -1.40148e-11)
(-3.67973e-12 4.88552e-12 -1.17349e-11)
(-3.17551e-12 3.77759e-12 -1.04321e-11)
(-1.15379e-12 4.20141e-12 -9.69461e-12)
(7.06793e-13 4.50777e-12 -1.00341e-11)
(1.50017e-12 5.18592e-12 -7.86413e-12)
(-8.92397e-13 5.45379e-12 -5.95287e-12)
(-2.35114e-12 3.9136e-12 -5.06554e-12)
(-1.9532e-12 3.70832e-12 -3.37116e-12)
(-1.57832e-12 5.05793e-12 -1.77607e-12)
(-1.08029e-12 6.80014e-12 -2.87668e-12)
(-4.32121e-12 8.21246e-12 -3.25531e-12)
(-7.26807e-12 7.89291e-12 -3.60871e-12)
(-7.19016e-12 7.19844e-12 -4.06557e-12)
(-6.28142e-12 6.20725e-12 -2.7832e-12)
(-6.12543e-12 5.60121e-12 -3.19387e-12)
(-6.84077e-12 4.62237e-12 -3.61599e-12)
(-5.74799e-12 2.88538e-12 -3.70727e-12)
(-3.63235e-12 1.61886e-12 -3.67646e-12)
(-1.41187e-12 1.54748e-12 -2.90082e-12)
(-1.12528e-12 1.92954e-12 -1.89716e-12)
(5.89141e-14 2.24307e-12 -3.24676e-12)
(2.73923e-12 4.18146e-12 -4.3868e-12)
(3.47e-12 6.75466e-12 -5.89463e-12)
(1.42713e-12 8.82813e-12 -5.14652e-12)
(4.55664e-13 8.30982e-12 -3.57377e-12)
(-8.07726e-13 8.54475e-12 -1.78807e-12)
(-4.24917e-12 7.74656e-12 -2.24368e-12)
(-6.13198e-12 5.8519e-12 -3.57754e-12)
(-5.09938e-12 3.74955e-12 -4.7973e-12)
(-2.59426e-12 4.0394e-12 -5.0831e-12)
(-1.39896e-12 5.55517e-12 -5.38617e-12)
(-3.86792e-12 6.61907e-12 -5.10063e-12)
(-6.49729e-12 6.54963e-12 -4.57556e-12)
(-6.59088e-12 5.51899e-12 -3.84568e-12)
(-5.41257e-12 4.37372e-12 -3.38514e-12)
(-4.61321e-12 3.11862e-12 -2.83946e-12)
(-4.51835e-12 1.85346e-12 -4.0937e-12)
(-3.7474e-12 1.3944e-12 -5.73952e-12)
(-1.12804e-12 1.94346e-12 -6.12964e-12)
(-1.58513e-12 4.06814e-12 -8.37954e-12)
(-3.14235e-12 4.75859e-12 -1.23648e-11)
(-1.59783e-12 5.75346e-12 -1.54964e-11)
(-3.1846e-12 7.19333e-12 -1.31606e-11)
(-4.60797e-12 6.36905e-12 -9.5033e-12)
(-3.78202e-12 5.76559e-12 -6.70561e-12)
(-3.9996e-12 4.03912e-12 -5.82937e-12)
(-2.63401e-12 2.86385e-12 -5.72833e-12)
(-4.39351e-13 3.15367e-12 -3.57318e-12)
(2.19019e-12 4.09511e-12 -2.28502e-12)
(2.05702e-12 5.52535e-12 -2.25967e-12)
(1.39426e-12 5.74042e-12 -1.42423e-12)
(2.37288e-12 6.32067e-12 -1.17881e-12)
(1.83383e-12 7.3051e-12 8.99209e-13)
(1.45755e-12 6.99205e-12 3.22538e-12)
(1.92248e-12 6.66455e-12 1.35421e-12)
(3.47801e-12 5.49393e-12 3.32601e-13)
(5.43501e-12 5.52032e-12 -4.77905e-13)
(4.81119e-12 6.14153e-12 -4.22521e-13)
(3.12254e-12 5.85253e-12 -1.30378e-12)
(4.62879e-12 6.30513e-12 -2.09722e-12)
(4.35949e-12 7.50118e-12 -2.64377e-12)
(3.07302e-12 7.36033e-12 -2.59439e-12)
(3.4499e-12 7.50666e-12 -1.32535e-12)
(3.41059e-12 7.25823e-12 1.74848e-12)
(347.059 2.01571e-11 -1.95594e-11)
(347.059 2.02865e-11 -1.96868e-11)
(347.059 9.61566e-12 -2.06132e-11)
(347.059 -3.87681e-12 -2.10072e-11)
(347.059 -9.44886e-12 -2.11875e-11)
(347.059 -8.78106e-12 -1.91999e-11)
(347.059 -9.82414e-12 -1.84485e-11)
(347.059 -1.02074e-11 -2.02834e-11)
(347.059 -1.17217e-11 -2.10585e-11)
(347.059 -1.20413e-11 -2.24504e-11)
(347.059 -1.18442e-11 -2.26375e-11)
(347.059 -1.03106e-11 -2.06148e-11)
(347.059 7.72242e-11 -3.34184e-11)
(347.059 -4.35007e-09 -1.25538e-09)
(347.047 1.88497e-07 6.26515e-08)
(346.733 -3.35665e-06 -1.78273e-06)
(340.951 3.06287e-05 1.82645e-05)
(322.896 1.08271e-05 1.19349e-06)
(318.61 -4.33447e-05 -2.59906e-05)
(318.591 -5.76386e-05 -2.19251e-05)
(318.579 -2.79143e-05 -1.73151e-06)
(318.55 -1.12462e-05 4.33604e-06)
(318.512 2.83485e-05 1.56251e-05)
(318.482 4.58636e-05 1.87039e-05)
(318.46 3.61135e-05 1.19902e-05)
(318.445 1.86581e-05 1.0885e-06)
(318.417 2.06827e-06 -6.89477e-06)
(318.39 -1.08024e-06 -7.42084e-06)
(318.369 -2.46963e-05 -1.68518e-05)
(318.344 -2.68489e-05 -1.70323e-05)
(318.311 -7.05257e-07 -3.49766e-06)
(318.293 1.88119e-05 6.30593e-06)
(318.292 2.45688e-05 8.08364e-06)
(318.291 3.30321e-05 1.09106e-05)
(318.292 3.08406e-05 1.04329e-05)
(318.292 2.9886e-05 1.14001e-05)
(318.291 6.6364e-06 1.35767e-06)
(318.277 -1.35716e-05 -6.89605e-06)
(318.266 -1.63269e-05 -7.96255e-06)
(318.257 -1.75776e-05 -8.68977e-06)
(318.252 -1.4745e-05 -7.74847e-06)
(318.251 -7.63706e-06 -3.0737e-06)
(318.254 4.3231e-06 4.8924e-06)
(318.271 8.59607e-06 7.13977e-06)
(318.283 9.71514e-06 7.02645e-06)
(318.293 9.1763e-06 5.39675e-06)
(318.302 4.94538e-06 2.4682e-06)
(318.313 -5.4974e-07 -8.16867e-07)
(318.325 -6.86972e-06 -4.09525e-06)
(318.326 -8.53726e-06 -4.11555e-06)
(318.329 -7.6059e-06 -1.08084e-06)
(318.33 -4.84734e-06 4.43252e-06)
(318.331 -2.90593e-06 6.27535e-06)
(318.331 -1.32493e-06 4.55805e-06)
(318.328 -1.20116e-06 -9.1403e-07)
(318.328 -5.55737e-06 -9.56534e-06)
(318.328 -8.11439e-06 -1.45656e-05)
(318.328 -1.89235e-05 -2.84569e-05)
(318.329 -3.26019e-05 -4.32965e-05)
(318.329 -2.38059e-05 -2.37171e-05)
(318.33 -3.64261e-06 8.2295e-06)
(318.329 2.80686e-06 1.70645e-05)
(318.329 9.61788e-06 2.48235e-05)
(318.33 1.24613e-05 2.43617e-05)
(318.329 4.15306e-06 4.82985e-06)
(318.328 -5.3816e-06 -1.33312e-05)
(318.328 -7.6958e-06 -1.70172e-05)
(318.326 -1.00268e-05 -1.88474e-05)
(318.325 -7.62846e-06 -1.10634e-05)
(318.323 7.01701e-06 1.19316e-05)
(318.323 2.35028e-05 3.45277e-05)
(318.325 3.20828e-05 4.06509e-05)
(318.325 3.48112e-05 3.9704e-05)
(318.325 3.45981e-05 2.8736e-05)
(318.324 2.11026e-05 -9.72884e-06)
(318.322 -5.72297e-06 -4.49794e-05)
(318.319 -1.85694e-05 -4.4086e-05)
(318.312 -2.18322e-05 -3.07354e-05)
(318.304 -1.80511e-05 -8.85937e-06)
(318.3 -1.03573e-05 9.21302e-06)
(318.297 7.23813e-06 4.31794e-05)
(318.296 5.25986e-05 0.000110801)
(318.298 7.07959e-05 0.000122112)
(318.303 6.27953e-05 8.74992e-05)
(318.309 2.89513e-05 -8.38466e-06)
(318.314 -1.67066e-05 -0.000109488)
(318.318 -6.49355e-05 -0.000199931)
(318.323 -0.000107386 -0.000274512)
(318.325 -0.000148313 -0.00030778)
(318.326 -0.000158889 -0.00030413)
(318.327 -0.000154802 -0.000278562)
(318.329 -0.000137621 -0.000221745)
(318.331 -9.74183e-05 -0.000115122)
(318.331 -3.93966e-05 7.21307e-06)
(318.332 6.46469e-06 8.52271e-05)
(318.332 4.6812e-05 0.000147224)
(318.332 5.97533e-05 0.000164847)
(318.332 8.1327e-05 0.000189123)
(318.332 9.84776e-05 0.000196316)
(318.332 9.61947e-05 0.000177025)
(318.331 8.20355e-05 0.000151149)
(318.329 6.52854e-05 0.000124605)
(318.326 4.89292e-05 9.94972e-05)
(318.321 3.42308e-05 7.58632e-05)
(318.315 2.1338e-05 5.45622e-05)
(318.312 1.22653e-05 3.8913e-05)
(318.309 8.51803e-06 3.20519e-05)
(318.308 3.74868e-06 2.27557e-05)
(318.308 1.70772e-07 1.52157e-05)
(318.311 -2.35088e-06 1.00103e-05)
(318.317 -4.25161e-06 6.53614e-06)
(318.324 -5.51902e-06 4.29021e-06)
(318.328 -6.28305e-06 2.88861e-06)
(318.329 -6.64229e-06 1.95571e-06)
(318.328 -6.76204e-06 1.52355e-06)
(318.326 -6.8089e-06 1.26485e-06)
(318.323 -6.10424e-06 8.87894e-07)
(318.321 -5.02717e-06 6.36115e-07)