/*--------------------------------*- C++ -*----------------------------------*\
| =========                 |                                                 |
| \\      /  F ield         | OpenFOAM: The Open Source CFD Toolbox           |
|  \\    /   O peration     | Version:  2406                                  |
|   \\  /    A nd           | Website:  www.openfoam.com                      |
|    \\/     M anipulation  |                                                 |
\*---------------------------------------------------------------------------*/
FoamFile
{
    version     2.0;
    format      ascii;
    arch        "LSB;label=32;scalar=64";
    class       volScalarField;
    location    "0.085";
    object      p;
}
// * * * * * * * * * * * * * * * * * * * * * * * * * * * * * * * * * * * * * //

dimensions      [1 -1 -2 0 0 0 0];

internalField   nonuniform List<scalar> 
13948
(
98774.9
101873
102378
102477
102546
102630
102739
102867
102978
103040
103057
103047
102991
102914
102842
102786
102740
102693
102645
102607
102588
102593
102629
102712
102829
102921
102949
102952
102947
102940
102941
102951
102978
103027
103072
103085
103085
103068
103030
102984
102955
102947
102946
102946
102946
102946
102946
102946
102946
102946
102946
102946
102946
102946
102946
102946
102946
102946
102946
102946
102946
102946
102946
102946
102946
102946
102946
102946
102946
102946
102946
102946
102946
102946
102946
102946
102946
102946
102946
102946
102946
102946
102946
102946
102946
102946
102946
102946
102946
102946
102946
102946
102946
102946
102946
102946
102946
102946
102946
103256
101442
102124
102432
102513
102568
102647
102749
102867
102970
103028
103042
103031
102977
102904
102835
102782
102738
102693
102648
102613
102595
102601
102638
102719
102833
102923
102950
102953
102948
102941
102943
102953
102980
103027
103071
103084
103083
103066
103029
102983
102954
102947
102946
102946
102946
102946
102946
102946
102946
102946
102946
102946
102946
102946
102946
102946
102946
102946
102946
102946
102946
102946
102946
102946
102946
102946
102946
102946
102946
102946
102946
102946
102946
102946
102946
102946
102946
102946
102946
102946
102946
102946
102946
102946
102946
102946
102946
102946
102946
102946
102946
102946
102946
102946
102946
102946
102946
102946
102946
101248
101310
101283
101489
101657
101846
102055
102331
102345
102763
101432
102152
102394
102518
102578
102657
102756
102872
102969
103020
103033
103021
102967
102896
102829
102777
102735
102693
102650
102616
102600
102607
102644
102725
102837
102925
102951
102953
102949
102942
102945
102954
102982
103028
103071
103083
103082
103065
103027
102982
102954
102947
102946
102946
102946
102946
102946
102946
102946
102946
102946
102946
102946
102946
102946
102946
102946
102946
102946
102946
102946
102946
102946
102946
102946
102946
102946
102946
102946
102946
102946
102946
102946
102946
102946
102946
102946
102946
102946
102946
102946
102946
102946
102946
102946
102946
102946
102946
102946
102946
102946
102946
102946
102946
102946
102946
102946
102946
102946
68605.9
78597.2
86908.1
93497
97446.1
99645.8
100927
101392
101566
101545
101547
101667
101926
102235
102751
103294
103813
104298
104682
104953
104920
104844
104595
104140
103626
103097
102593
102120
101770
101555
101560
101607
101614
101627
101683
101646
101711
101771
101880
102026
102277
102227
102493
102010
102361
102419
102525
102590
102670
102765
102876
102967
103013
103023
103008
102955
102885
102822
102773
102732
102692
102651
102620
102605
102613
102651
102733
102842
102927
102951
102954
102950
102943
102946
102956
102984
103030
103071
103082
103080
103063
103025
102981
102954
102947
102946
102946
102946
102946
102946
102946
102946
102946
102946
102946
102946
102946
102946
102946
102946
102946
102946
102946
102946
102946
102946
102946
102946
102946
102946
102946
102946
102946
102946
102946
102946
102946
102946
102946
102946
102946
102946
102946
102946
102946
102946
102946
102946
102946
102946
102946
102946
102946
102946
102946
102946
102946
102946
102946
102946
102946
102946
48074.4
55999.2
66455.1
77385.1
86051
92240.5
96608.8
99084.5
100298
100854
101139
101254
101366
101511
101752
102035
102401
102897
103393
103853
104205
104403
104390
104259
104033
103692
103296
102891
102510
102185
101923
101732
101634
101566
101531
101537
101597
101626
101715
101809
101942
102007
102182
102184
102287
102145
102323
102418
102533
102599
102682
102776
102882
102966
103006
103013
102997
102942
102874
102814
102768
102729
102690
102651
102623
102610
102619
102659
102740
102848
102929
102952
102955
102950
102945
102947
102958
102986
103032
103071
103081
103079
103061
103024
102980
102953
102947
102946
102946
102946
102946
102946
102946
102946
102946
102946
102946
102946
102946
102946
102946
102946
102946
102946
102946
102946
102946
102946
102946
102946
102946
102946
102946
102946
102946
102946
102946
102946
102946
102946
102946
102946
102946
102946
102946
102946
102946
102946
102946
102946
102946
102946
102946
102946
102946
102946
102946
102946
102946
102946
102946
102946
102946
102946
47947.2
44347.8
52644.1
64298.7
75650.7
84906.9
91629.9
95871.9
98181.9
99461.3
100119
100470
100690
100917
101169
101523
101909
102316
102745
103156
103528
103830
104017
104073
103997
103847
103618
103347
103056
102749
102475
102243
102093
101972
101846
101748
101690
101694
101708
101752
101811
101934
102012
102153
102213
102277
102249
102375
102468
102555
102615
102695
102787
102889
102966
103000
103003
102984
102928
102863
102806
102762
102725
102688
102651
102626
102615
102626
102667
102749
102855
102932
102953
102955
102951
102946
102949
102960
102988
103034
103071
103080
103078
103059
103021
102978
102953
102946
102946
102946
102946
102946
102946
102946
102946
102946
102946
102946
102946
102946
102946
102946
102946
102946
102946
102946
102946
102946
102946
102946
102946
102946
102946
102946
102946
102946
102946
102946
102946
102946
102946
102946
102946
102946
102946
102946
102946
102946
102946
102946
102946
102946
102946
102946
102946
102946
102946
102946
102946
102946
102946
102946
102946
102946
102946
49349.5
45535.9
53614.3
66247.6
76851.4
85236.7
91589.2
95174
97494.7
98841.2
99495.7
99851.1
100099
100356
100686
101133
101639
102117
102576
103009
103396
103714
103921
103998
103937
103760
103519
103273
103028
102795
102594
102428
102285
102163
102070
102011
101964
101926
101895
101898
101919
101981
102059
102146
102215
102273
102291
102402
102492
102571
102633
102711
102800
102897
102965
102993
102993
102970
102914
102850
102797
102756
102721
102685
102651
102628
102620
102632
102675
102758
102862
102935
102954
102956
102951
102947
102950
102962
102991
103036
103072
103080
103077
103057
103019
102976
102952
102946
102946
102946
102946
102946
102946
102946
102946
102946
102946
102946
102946
102946
102946
102946
102946
102946
102946
102946
102946
102946
102946
102946
102946
102946
102946
102946
102946
102946
102946
102946
102946
102946
102946
102946
102946
102946
102946
102946
102946
102946
102946
102946
102946
102946
102946
102946
102946
102946
102946
102946
102946
102946
102946
102946
102946
102946
102946
60878.6
56423.2
60355.4
70260.2
79212
86277.4
91660.6
95132.2
97190.9
98380.4
99030.2
99415.5
99683.9
99923.2
100221
100626
101131
101646
102144
102599
103008
103347
103585
103690
103679
103562
103370
103149
102937
102752
102595
102444
102325
102245
102175
102131
102096
102051
102022
102010
102013
102040
102091
102161
102227
102284
102335
102447
102535
102599
102653
102725
102813
102904
102964
102985
102982
102954
102898
102837
102787
102749
102716
102683
102651
102631
102625
102640
102685
102769
102871
102938
102955
102956
102952
102948
102952
102964
102994
103039
103072
103079
103075
103055
103016
102974
102951
102946
102946
102946
102946
102946
102946
102946
102946
102946
102946
102946
102946
102946
102946
102946
102946
102946
102946
102946
102946
102946
102946
102946
102946
102946
102946
102946
102946
102946
102946
102946
102946
102946
102946
102946
102946
102946
102946
102946
102946
102946
102946
102946
102946
102946
102946
102946
102946
102946
102946
102946
102946
102946
102946
102946
102946
102946
102946
71665.4
69660.2
70544.6
75790
82756.9
88107.8
92175.1
95009.4
96803.8
97931.2
98628
99088.4
99415.1
99688.2
99994.4
100381
100839
101313
101777
102206
102590
102916
103166
103317
103370
103344
103249
103111
102959
102821
102699
102579
102464
102356
102265
102187
102118
102062
102036
102041
102063
102100
102148
102207
102267
102325
102391
102496
102571
102622
102672
102743
102829
102912
102962
102977
102970
102937
102881
102823
102777
102742
102711
102680
102651
102634
102631
102647
102696
102781
102879
102942
102955
102957
102953
102949
102953
102966
102998
103042
103072
103079
103074
103052
103013
102972
102951
102946
102946
102946
102946
102946
102946
102946
102946
102946
102946
102946
102946
102946
102946
102946
102946
102946
102946
102946
102946
102946
102946
102946
102946
102946
102946
102946
102946
102946
102946
102946
102946
102946
102946
102946
102946
102946
102946
102946
102946
102946
102946
102946
102946
102946
102946
102946
102946
102946
102946
102946
102946
102946
102946
102946
102946
102946
102946
81635.3
79484.4
79519.2
82182
86760.1
90335.8
93140.4
95341.7
96861.4
97827.9
98459.6
98907.4
99247.8
99556.2
99892.2
100287
100727
101176
101607
101998
102344
102639
102877
103048
103146
103179
103169
103123
103049
102961
102866
102762
102653
102533
102403
102281
102186
102127
102106
102113
102141
102181
102227
102279
102335
102391
102461
102551
102609
102648
102693
102760
102844
102919
102959
102967
102957
102918
102862
102808
102766
102734
102706
102677
102651
102637
102636
102656
102708
102794
102889
102945
102956
102957
102953
102950
102955
102969
103002
103046
103073
103078
103072
103049
103009
102970
102950
102946
102946
102946
102946
102946
102946
102946
102946
102946
102946
102946
102946
102946
102946
102946
102946
102946
102946
102946
102946
102946
102946
102946
102946
102946
102946
102946
102946
102946
102946
102946
102946
102946
102946
102946
102946
102946
102946
102946
102946
102946
102946
102946
102946
102946
102946
102946
102946
102946
102946
102946
102946
102946
102946
102946
102946
102946
102946
88536
86825.9
86591.9
87867.9
90475.5
92669
94490.9
96062.6
97196.3
97958.5
98485.7
98874.2
99187.8
99487.6
99823.8
100221
100657
101104
101526
101902
102223
102497
102723
102899
103021
103090
103119
103115
103086
103032
102969
102890
102797
102691
102575
102459
102365
102303
102273
102265
102277
102305
102342
102386
102436
102483
102542
102605
102642
102669
102711
102779
102860
102925
102954
102956
102940
102897
102843
102793
102755
102726
102700
102674
102652
102640
102643
102666
102721
102808
102899
102948
102957
102958
102954
102952
102957
102973
103006
103049
103073
103077
103070
103046
103005
102967
102949
102946
102946
102946
102946
102946
102946
102946
102946
102946
102946
102946
102946
102946
102946
102946
102946
102946
102946
102946
102946
102946
102946
102946
102946
102946
102946
102946
102946
102946
102946
102946
102946
102946
102946
102946
102946
102946
102946
102946
102946
102946
102946
102946
102946
102946
102946
102946
102946
102946
102946
102946
102946
102946
102946
102946
102946
102946
102946
93246.3
92059.8
91702.3
92249.7
93582.3
94879.1
95989.5
96999.6
97763.3
98302.8
98695
98989
99240.3
99501
99809.1
100169
100571
100998
101411
101782
102099
102372
102603
102787
102919
103001
103044
103058
103043
102997
102943
102877
102801
102728
102661
102605
102560
102522
102491
102469
102460
102467
102488
102516
102550
102581
102616
102649
102666
102687
102730
102800
102876
102928
102947
102944
102921
102875
102822
102778
102744
102719
102695
102671
102653
102644
102650
102677
102736
102824
102909
102951
102959
102958
102954
102953
102959
102976
103011
103053
103073
103077
103068
103042
103001
102964
102949
102946
102946
102946
102946
102946
102946
102946
102946
102946
102946
102946
102946
102946
102946
102946
102946
102946
102946
102946
102946
102946
102946
102946
102946
102946
102946
102946
102946
102946
102946
102946
102946
102946
102946
102946
102946
102946
102946
102946
102946
102946
102946
102946
102946
102946
102946
102946
102946
102946
102946
102946
102946
102946
102946
102946
102946
102946
102946
96289.9
95371.1
94991.4
95173.8
95817.8
96586.3
97245.1
97855.8
98349.7
98720.4
99010.2
99230.2
99424.1
99623.5
99859.8
100143
100478
100855
101240
101600
101917
102196
102435
102626
102766
102856
102902
102918
102911
102874
102824
102769
102718
102679
102648
102631
102622
102612
102603
102594
102589
102593
102604
102620
102637
102651
102663
102673
102680
102701
102751
102822
102890
102928
102938
102929
102898
102850
102801
102762
102734
102711
102690
102669
102654
102649
102658
102689
102753
102841
102920
102954
102960
102959
102955
102955
102962
102981
103017
103057
103074
103076
103065
103037
102996
102962
102948
102946
102946
102946
102946
102946
102946
102946
102946
102946
102946
102946
102946
102946
102946
102946
102946
102946
102946
102946
102946
102946
102946
102946
102946
102946
102946
102946
102946
102946
102946
102946
102946
102946
102946
102946
102946
102946
102946
102946
102946
102946
102946
102946
102946
102946
102946
102946
102946
102946
102946
102946
102946
102946
102946
102946
102946
102946
102946
98348.4
97622.9
97265.7
97206
97440.2
97860.7
98230.1
98585.7
98901.9
99151.9
99360.1
99520.7
99666.3
99810.5
99980.6
100194
100460
100773
101104
101421
101714
101982
102218
102415
102564
102668
102731
102762
102771
102761
102736
102700
102668
102642
102623
102614
102610
102609
102612
102619
102629
102642
102655
102666
102674
102679
102679
102680
102689
102720
102777
102846
102900
102924
102926
102909
102872
102824
102780
102747
102723
102704
102686
102668
102656
102654
102667
102704
102772
102859
102930
102957
102961
102959
102955
102957
102965
102986
103023
103061
103074
103075
103062
103032
102991
102959
102947
102946
102946
102946
102946
102946
102946
102946
102946
102946
102946
102946
102946
102946
102946
102946
102946
102946
102946
102946
102946
102946
102946
102946
102946
102946
102946
102946
102946
102946
102946
102946
102946
102946
102946
102946
102946
102946
102946
102946
102946
102946
102946
102946
102946
102946
102946
102946
102946
102946
102946
102946
102946
102946
102946
102946
102946
102946
102946
99768.8
99187
98841.9
98701.5
98736.7
98907.3
99082.1
99258.3
99438.5
99587.8
99720.5
99832.6
99943.5
100053
100178
100330
100531
100784
101063
101338
101598
101838
102057
102245
102400
102519
102607
102666
102701
102716
102713
102696
102668
102641
102619
102605
102598
102597
102605
102619
102634
102651
102665
102675
102680
102681
102679
102685
102705
102747
102808
102867
102904
102915
102909
102884
102843
102798
102760
102732
102713
102698
102682
102667
102659
102661
102678
102721
102793
102878
102939
102959
102962
102960
102956
102959
102968
102991
103030
103064
103074
103073
103059
103026
102985
102956
102947
102946
102946
102946
102946
102946
102946
102946
102946
102946
102946
102946
102946
102946
102946
102946
102946
102946
102946
102946
102946
102946
102946
102946
102946
102946
102946
102946
102946
102946
102946
102946
102946
102946
102946
102946
102946
102946
102946
102946
102946
102946
102946
102946
102946
102946
102946
102946
102946
102946
102946
102946
102946
102946
102946
102946
102946
102946
102946
100758
100300
99991.4
99828.4
99770.5
99804.7
99867.4
99915.2
99985.5
100051
100110
100170
100239
100316
100410
100524
100676
100871
101100
101340
101568
101781
101977
102153
102304
102430
102531
102607
102659
102689
102701
102700
102682
102661
102642
102626
102618
102616
102621
102634
102647
102660
102671
102678
102682
102683
102685
102702
102735
102783
102838
102881
102901
102902
102887
102854
102812
102771
102740
102719
102705
102692
102679
102668
102663
102669
102692
102741
102816
102896
102947
102961
102963
102960
102957
102961
102972
102998
103037
103067
103074
103072
103054
103019
102979
102954
102947
102946
102946
102946
102946
102946
102946
102946
102946
102946
102946
102946
102946
102946
102946
102946
102946
102946
102946
102946
102946
102946
102946
102946
102946
102946
102946
102946
102946
102946
102946
102946
102946
102946
102946
102946
102946
102946
102946
102946
102946
102946
102946
102946
102946
102946
102946
102946
102946
102946
102946
102946
102946
102946
102946
102946
102946
102946
102946
101425
101067
100807
100645
100562
100533
100538
100530
100526
100531
100534
100543
100567
100606
100667
100751
100865
101013
101190
101384
101580
101767
101941
102103
102248
102374
102479
102561
102618
102656
102680
102693
102697
102694
102688
102682
102680
102678
102679
102683
102688
102692
102694
102695
102699
102702
102714
102741
102778
102820
102858
102882
102890
102881
102857
102820
102780
102745
102722
102707
102697
102688
102677
102670
102669
102679
102709
102765
102841
102914
102954
102963
102964
102961
102959
102964
102977
103006
103045
103069
103075
103069
103048
103011
102973
102951
102946
102946
102946
102946
102946
102946
102946
102946
102946
102946
102946
102946
102946
102946
102946
102946
102946
102946
102946
102946
102946
102946
102946
102946
102946
102946
102946
102946
102946
102946
102946
102946
102946
102946
102946
102946
102946
102946
102946
102946
102946
102946
102946
102946
102946
102946
102946
102946
102946
102946
102946
102946
102946
102946
102946
102946
102946
102946
102946
101867
101584
101364
101210
101117
101067
101041
101022
100996
100970
100947
100928
100920
100926
100950
100998
101072
101175
101306
101455
101613
101770
101923
102067
102205
102329
102435
102519
102583
102629
102663
102689
102713
102733
102748
102758
102764
102765
102762
102759
102753
102747
102742
102740
102743
102749
102765
102791
102816
102842
102863
102873
102869
102852
102821
102784
102748
102722
102707
102698
102692
102685
102678
102673
102677
102693
102730
102791
102867
102931
102960
102965
102965
102961
102961
102967
102983
103015
103053
103071
103074
103066
103042
103003
102967
102949
102946
102946
102946
102946
102946
102946
102946
102946
102946
102946
102946
102946
102946
102946
102946
102946
102946
102946
102946
102946
102946
102946
102946
102946
102946
102946
102946
102946
102946
102946
102946
102946
102946
102946
102946
102946
102946
102946
102946
102946
102946
102946
102946
102946
102946
102946
102946
102946
102946
102946
102946
102946
102946
102946
102946
102946
102946
102946
102946
102183
101957
101767
101620
101516
101448
101406
101377
101350
101322
101293
101267
101247
101238
101239
101255
101291
101351
101437
101544
101665
101791
101918
102044
102165
102281
102384
102474
102547
102607
102655
102695
102730
102760
102784
102800
102810
102814
102812
102807
102800
102794
102791
102790
102792
102797
102807
102819
102831
102845
102854
102852
102838
102813
102780
102746
102719
102703
102695
102691
102689
102684
102680
102679
102687
102711
102756
102821
102893
102945
102963
102967
102965
102962
102963
102971
102991
103025
103060
103072
103073
103062
103033
102993
102961
102948
102946
102946
102946
102946
102946
102946
102946
102946
102946
102946
102946
102946
102946
102946
102946
102946
102946
102946
102946
102946
102946
102946
102946
102946
102946
102946
102946
102946
102946
102946
102946
102946
102946
102946
102946
102946
102946
102946
102946
102946
102946
102946
102946
102946
102946
102946
102946
102946
102946
102946
102946
102946
102946
102946
102946
102946
102946
102946
102946
102438
102260
102100
101963
101853
101770
101708
101662
101625
101592
101562
101534
101510
101494
101488
101489
101501
101529
101578
101649
101737
101833
101932
102032
102131
102228
102322
102409
102488
102558
102619
102670
102710
102742
102767
102784
102796
102802
102806
102807
102807
102807
102807
102808
102810
102813
102816
102820
102825
102830
102827
102816
102795
102769
102738
102711
102695
102688
102687
102688
102687
102685
102684
102688
102702
102734
102785
102853
102918
102957
102967
102969
102966
102963
102966
102976
103000
103036
103066
103073
103071
103056
103023
102983
102956
102947
102946
102946
102946
102946
102946
102946
102946
102946
102946
102946
102946
102946
102946
102946
102946
102946
102946
102946
102946
102946
102946
102946
102946
102946
102946
102946
102946
102946
102946
102946
102946
102946
102946
102946
102946
102946
102946
102946
102946
102946
102946
102946
102946
102946
102946
102946
102946
102946
102946
102946
102946
102946
102946
102946
102946
102946
102946
102946
102946
102656
102519
102391
102274
102170
102079
102002
101936
101881
101832
101790
101752
101720
101694
101677
101669
101669
101678
101701
101742
101800
101870
101944
102020
102095
102170
102245
102319
102393
102464
102529
102586
102633
102670
102698
102719
102733
102743
102750
102754
102759
102766
102773
102779
102784
102787
102789
102790
102791
102789
102780
102767
102747
102722
102698
102683
102677
102679
102683
102688
102689
102689
102691
102701
102723
102762
102820
102886
102940
102964
102970
102969
102966
102965
102970
102983
103012
103048
103070
103074
103068
103048
103011
102973
102952
102946
102946
102946
102946
102946
102946
102946
102946
102946
102946
102946
102946
102946
102946
102946
102946
102946
102946
102946
102946
102946
102946
102946
102946
102946
102946
102946
102946
102946
102946
102946
102946
102946
102946
102946
102946
102946
102946
102946
102946
102946
102946
102946
102946
102946
102946
102946
102946
102946
102946
102946
102946
102946
102946
102946
102946
102946
102946
102946
102946
102854
102747
102646
102551
102462
102377
102297
102222
102151
102084
102022
101967
101917
101875
101841
101814
101798
101791
101794
101807
101837
101881
101935
101991
102048
102106
102164
102223
102282
102339
102393
102443
102488
102527
102560
102588
102611
102632
102650
102667
102682
102696
102707
102716
102722
102726
102729
102734
102738
102736
102728
102714
102696
102678
102667
102664
102668
102676
102685
102690
102693
102696
102703
102720
102750
102797
102857
102917
102956
102969
102972
102970
102966
102967
102974
102993
103025
103059
103072
103074
103064
103037
102998
102964
102949
102946
102946
102946
102946
102946
102946
102946
102946
102946
102946
102946
102946
102946
102946
102946
102946
102946
102946
102946
102946
102946
102946
102946
102946
102946
102946
102946
102946
102946
102946
102946
102946
102946
102946
102946
102946
102946
102946
102946
102946
102946
102946
102946
102946
102946
102946
102946
102946
102946
102946
102946
102946
102946
102946
102946
102946
102946
102946
102946
102946
103043
102957
102874
102796
102722
102650
102579
102508
102434
102360
102285
102212
102144
102081
102026
101978
101938
101908
101888
101879
101882
101897
101927
101965
102008
102055
102101
102146
102188
102229
102269
102308
102345
102380
102414
102446
102476
102505
102533
102559
102582
102601
102618
102630
102640
102648
102658
102670
102677
102677
102672
102661
102652
102647
102648
102655
102667
102680
102691
102697
102701
102708
102721
102745
102784
102836
102895
102944
102968
102973
102973
102970
102967
102971
102981
103005
103040
103068
103074
103072
103056
103023
102984
102956
102947
102946
102946
102946
102946
102946
102946
102946
102946
102946
102946
102946
102946
102946
102946
102946
102946
102946
102946
102946
102946
102946
102946
102946
102946
102946
102946
102946
102946
102946
102946
102946
102946
102946
102946
102946
102946
102946
102946
102946
102946
102946
102946
102946
102946
102946
102946
102946
102946
102946
102946
102946
102946
102946
102946
102946
102946
102946
102946
102946
102946
103200
103133
103066
103002
102941
102882
102824
102766
102704
102638
102568
102493
102416
102341
102269
102201
102140
102086
102041
102005
101979
101967
101968
101982
102004
102032
102064
102099
102137
102174
102210
102244
102277
102309
102340
102370
102399
102427
102454
102479
102502
102522
102539
102554
102567
102578
102593
102609
102618
102622
102623
102623
102625
102631
102643
102659
102676
102691
102701
102707
102714
102726
102747
102779
102825
102879
102930
102963
102974
102977
102973
102969
102970
102976
102992
103021
103055
103072
103075
103067
103044
103007
102971
102951
102946
102946
102946
102946
102946
102946
102946
102946
102946
102946
102946
102946
102946
102946
102946
102946
102946
102946
102946
102946
102946
102946
102946
102946
102946
102946
102946
102946
102946
102946
102946
102946
102946
102946
102946
102946
102946
102946
102946
102946
102946
102946
102946
102946
102946
102946
102946
102946
102946
102946
102946
102946
102946
102946
102946
102946
102946
102946
102946
102946
102946
103283
103240
103195
103149
103101
103053
103007
102962
102917
102868
102816
102758
102694
102626
102555
102483
102413
102345
102283
102226
102177
102137
102107
102090
102085
102090
102102
102121
102144
102169
102196
102224
102253
102282
102311
102338
102366
102392
102416
102439
102459
102476
102492
102506
102519
102531
102547
102565
102578
102587
102594
102603
102617
102635
102654
102675
102693
102706
102715
102723
102734
102753
102782
102822
102871
102921
102958
102975
102979
102977
102973
102970
102974
102983
103006
103040
103068
103075
103073
103059
103028
102989
102959
102948
102946
102946
102946
102946
102946
102946
102946
102946
102946
102946
102946
102946
102946
102946
102946
102946
102946
102946
102946
102946
102946
102946
102946
102946
102946
102946
102946
102946
102946
102946
102946
102946
102946
102946
102946
102946
102946
102946
102946
102946
102946
102946
102946
102946
102946
102946
102946
102946
102946
102946
102946
102946
102946
102946
102946
102946
102946
102946
102946
102946
102946
103298
103273
103246
103216
103185
103152
103118
103084
103049
103014
102977
102939
102897
102851
102801
102746
102688
102629
102569
102510
102453
102400
102353
102312
102280
102256
102242
102237
102238
102245
102257
102273
102291
102311
102332
102352
102372
102391
102409
102425
102440
102454
102468
102481
102493
102505
102521
102540
102557
102575
102593
102612
102633
102657
102680
102699
102714
102724
102734
102746
102764
102791
102827
102871
102918
102956
102976
102982
102981
102976
102972
102973
102979
102996
103026
103059
103074
103076
103068
103045
103008
102972
102952
102946
102946
102946
102946
102946
102946
102946
102946
102946
102946
102946
102946
102946
102946
102946
102946
102946
102946
102946
102946
102946
102946
102946
102946
102946
102946
102946
102946
102946
102946
102946
102946
102946
102946
102946
102946
102946
102946
102946
102946
102946
102946
102946
102946
102946
102946
102946
102946
102946
102946
102946
102946
102946
102946
102946
102946
102946
102946
102946
102946
102946
102946
103278
103258
103239
103221
103203
103183
103162
103138
103113
103087
103060
103032
103003
102973
102941
102906
102870
102831
102790
102746
102702
102657
102613
102570
102530
102494
102463
102438
102418
102404
102396
102392
102393
102397
102403
102410
102420
102429
102440
102451
102462
102473
102484
102495
102506
102517
102533
102554
102576
102598
102621
102645
102670
102693
102712
102727
102738
102749
102762
102780
102806
102840
102880
102923
102958
102979
102985
102984
102979
102974
102974
102978
102990
103016
103049
103072
103077
103073
103056
103024
102986
102958
102948
102946
102946
102946
102946
102946
102946
102946
102946
102946
102946
102946
102946
102946
102946
102946
102946
102946
102946
102946
102946
102946
102946
102946
102946
102946
102946
102946
102946
102946
102946
102946
102946
102946
102946
102946
102946
102946
102946
102946
102946
102946
102946
102946
102946
102946
102946
102946
102946
102946
102946
102946
102946
102946
102946
102946
102946
102946
102946
102946
102946
102946
102946
103258
103235
103218
103204
103190
103176
103161
103145
103129
103111
103091
103071
103049
103027
103003
102979
102955
102929
102902
102874
102845
102815
102784
102753
102722
102692
102662
102635
102610
102588
102569
102553
102540
102530
102524
102520
102518
102519
102521
102525
102530
102537
102545
102553
102562
102571
102586
102606
102629
102651
102674
102696
102716
102733
102746
102758
102769
102783
102803
102828
102861
102898
102936
102966
102984
102988
102987
102982
102977
102975
102978
102988
103009
103041
103069
103077
103076
103064
103037
102999
102966
102950
102946
102946
102946
102946
102946
102946
102946
102946
102946
102946
102946
102946
102946
102946
102946
102946
102946
102946
102946
102946
102946
102946
102946
102946
102946
102946
102946
102946
102946
102946
102946
102946
102946
102946
102946
102946
102946
102946
102946
102946
102946
102946
102946
102946
102946
102946
102946
102946
102946
102946
102946
102946
102946
102946
102946
102946
102946
102946
102946
102946
102946
102946
102946
103292
103255
103225
103201
103182
103166
103153
103140
103127
103113
103099
103084
103067
103051
103033
103015
102997
102978
102959
102939
102919
102898
102877
102856
102834
102813
102791
102771
102751
102732
102714
102698
102684
102672
102661
102653
102646
102642
102639
102638
102639
102641
102644
102648
102653
102659
102670
102685
102702
102718
102734
102749
102762
102774
102786
102798
102814
102835
102861
102891
102924
102955
102978
102989
102991
102989
102985
102980
102978
102980
102988
103007
103037
103067
103078
103078
103069
103045
103009
102973
102953
102947
102946
102946
102946
102946
102946
102946
102946
102946
102946
102946
102946
102946
102946
102946
102946
102946
102946
102946
102946
102946
102946
102946
102946
102946
102946
102946
102946
102946
102946
102946
102946
102946
102946
102946
102946
102946
102946
102946
102946
102946
102946
102946
102946
102946
102946
102946
102946
102946
102946
102946
102946
102946
102946
102946
102946
102946
102946
102946
102946
102946
102946
102946
102946
103374
103330
103291
103257
103228
103204
103184
103166
103151
103137
103123
103110
103097
103083
103069
103055
103041
103026
103011
102995
102979
102963
102947
102931
102915
102899
102884
102868
102853
102839
102826
102813
102801
102791
102781
102773
102766
102760
102756
102752
102750
102749
102749
102750
102751
102753
102758
102766
102775
102785
102795
102805
102816
102827
102841
102858
102879
102904
102930
102956
102977
102989
102993
102993