/*--------------------------------*- C++ -*----------------------------------*\
| =========                 |                                                 |
| \\      /  F ield         | OpenFOAM: The Open Source CFD Toolbox           |
|  \\    /   O peration     | Version:  2406                                  |
|   \\  /    A nd           | Website:  www.openfoam.com                      |
|    \\/     M anipulation  |                                                 |
\*---------------------------------------------------------------------------*/
FoamFile
{
    version     2.0;
    format      ascii;
    arch        "LSB;label=32;scalar=64";
    class       volScalarField;
    location    "0.085";
    object      rho;
}
// * * * * * * * * * * * * * * * * * * * * * * * * * * * * * * * * * * * * * //

dimensions      [1 -3 0 0 0 0 0];

internalField   nonuniform List<scalar> 
13948
(
1.14017
1.20062
1.2142
1.21706
1.21815
1.21897
1.21978
1.2207
1.22155
1.22203
1.22216
1.22208
1.22163
1.22098
1.22037
1.2199
1.2195
1.21911
1.2187
1.21838
1.21822
1.21826
1.21857
1.21927
1.22026
1.22104
1.22128
1.2213
1.22126
1.2212
1.22121
1.22129
1.22153
1.22193
1.22231
1.22243
1.22243
1.22228
1.22197
1.22158
1.22132
1.22126
1.22125
1.22125
1.22125
1.22125
1.22125
1.22125
1.22125
1.22125
1.22125
1.22125
1.22125
1.22125
1.22125
1.22125
1.22125
1.22125
1.22125
1.22125
1.22125
1.22125
1.22125
1.22125
1.22125
1.22125
1.22125
1.22125
1.22125
1.22125
1.22125
1.22125
1.22125
1.22125
1.22125
1.22125
1.22125
1.22125
1.22125
1.22125
1.22125
1.22125
1.22125
1.22125
1.22125
1.22125
1.22125
1.22125
1.22125
1.22125
1.22125
1.22125
1.22125
1.22125
1.22125
1.22125
1.22125
1.22125
1.22125
1.15941
1.17631
1.20428
1.21464
1.2173
1.21829
1.21908
1.21985
1.2207
1.22148
1.22193
1.22204
1.22195
1.22151
1.2209
1.22031
1.21986
1.21949
1.21911
1.21873
1.21843
1.21828
1.21833
1.21864
1.21933
1.22029
1.22105
1.22128
1.22131
1.22127
1.22121
1.22123
1.22131
1.22154
1.22194
1.22231
1.22242
1.22241
1.22227
1.22195
1.22157
1.22132
1.22126
1.22125
1.22125
1.22125
1.22125
1.22125
1.22125
1.22125
1.22125
1.22125
1.22125
1.22125
1.22125
1.22125
1.22125
1.22125
1.22125
1.22125
1.22125
1.22125
1.22125
1.22125
1.22125
1.22125
1.22125
1.22125
1.22125
1.22125
1.22125
1.22125
1.22125
1.22125
1.22125
1.22125
1.22125
1.22125
1.22125
1.22125
1.22125
1.22125
1.22125
1.22125
1.22125
1.22125
1.22125
1.22125
1.22125
1.22125
1.22125
1.22125
1.22125
1.22125
1.22125
1.22125
1.22125
1.22125
1.22125
1.22125
1.09329
1.09438
1.09663
1.10288
1.11172
1.12419
1.14052
1.16039
1.17847
1.19532
1.19246
1.20746
1.21446
1.21725
1.21828
1.2191
1.21987
1.22073
1.22147
1.22187
1.22196
1.22186
1.22142
1.22083
1.22026
1.21982
1.21947
1.21911
1.21874
1.21846
1.21832
1.21838
1.2187
1.21938
1.22033
1.22107
1.22129
1.22131
1.22128
1.22122
1.22124
1.22132
1.22155
1.22195
1.22231
1.22241
1.2224
1.22226
1.22194
1.22156
1.22132
1.22126
1.22125
1.22125
1.22125
1.22125
1.22125
1.22125
1.22125
1.22125
1.22125
1.22125
1.22125
1.22125
1.22125
1.22125
1.22125
1.22125
1.22125
1.22125
1.22125
1.22125
1.22125
1.22125
1.22125
1.22125
1.22125
1.22125
1.22125
1.22125
1.22125
1.22125
1.22125
1.22125
1.22125
1.22125
1.22125
1.22125
1.22125
1.22125
1.22125
1.22125
1.22125
1.22125
1.22125
1.22125
1.22125
1.22125
1.22125
1.22125
1.22125
1.22125
1.22125
1.22125
1.22125
1.22125
1.22125
1.22125
1.22125
0.806313
0.902174
0.985037
1.0538
1.09867
1.12797
1.14743
1.1569
1.16056
1.16034
1.15836
1.15578
1.15365
1.15208
1.15264
1.15423
1.15687
1.16064
1.16461
1.16796
1.16937
1.17088
1.17123
1.16974
1.16673
1.16206
1.15645
1.15002
1.14396
1.13965
1.13834
1.13833
1.13845
1.13904
1.141
1.14411
1.15005
1.1581
1.16857
1.18077
1.19382
1.20225
1.20938
1.20728
1.21251
1.21519
1.21729
1.21831
1.21913
1.21989
1.22073
1.22145
1.22181
1.22188
1.22176
1.22132
1.22073
1.2202
1.21979
1.21944
1.2191
1.21875
1.21849
1.21836
1.21843
1.21876
1.21944
1.22037
1.22109
1.2213
1.22132
1.22128
1.22123
1.22125
1.22134
1.22157
1.22196
1.22231
1.2224
1.22239
1.22224
1.22192
1.22155
1.22132
1.22126
1.22125
1.22125
1.22125
1.22125
1.22125
1.22125
1.22125
1.22125
1.22125
1.22125
1.22125
1.22125
1.22125
1.22125
1.22125
1.22125
1.22125
1.22125
1.22125
1.22125
1.22125
1.22125
1.22125
1.22125
1.22125
1.22125
1.22125
1.22125
1.22125
1.22125
1.22125
1.22125
1.22125
1.22125
1.22125
1.22125
1.22125
1.22125
1.22125
1.22125
1.22125
1.22125
1.22125
1.22125
1.22125
1.22125
1.22125
1.22125
1.22125
1.22125
1.22125
1.22125
1.22125
1.22125
1.22125
1.22125
1.22125
0.586141
0.656483
0.761061
0.871497
0.964324
1.03552
1.08989
1.1268
1.1509
1.16588
1.17496
1.17951
1.18167
1.18258
1.18317
1.18335
1.18394
1.18574
1.18808
1.19097
1.19395
1.19622
1.19715
1.19752
1.19735
1.19614
1.19382
1.19048
1.18654
1.18239
1.17842
1.1753
1.17356
1.17267
1.1725
1.1732
1.17518
1.17812
1.18276
1.18846
1.19514
1.20128
1.20753
1.21081
1.21321
1.21247
1.21439
1.21589
1.21744
1.21833
1.21914
1.21991
1.22076
1.22143
1.22176
1.22181
1.22167
1.22122
1.22064
1.22013
1.21974
1.21941
1.21908
1.21875
1.21851
1.21841
1.21848
1.21882
1.21951
1.22042
1.22111
1.2213
1.22132
1.22129
1.22124
1.22126
1.22135
1.22159
1.22198
1.22231
1.22239
1.22238
1.22223
1.22191
1.22154
1.22131
1.22126
1.22125
1.22125
1.22125
1.22125
1.22125
1.22125
1.22125
1.22125
1.22125
1.22125
1.22125
1.22125
1.22125
1.22125
1.22125
1.22125
1.22125
1.22125
1.22125
1.22125
1.22125
1.22125
1.22125
1.22125
1.22125
1.22125
1.22125
1.22125
1.22125
1.22125
1.22125
1.22125
1.22125
1.22125
1.22125
1.22125
1.22125
1.22125
1.22125
1.22125
1.22125
1.22125
1.22125
1.22125
1.22125
1.22125
1.22125
1.22125
1.22125
1.22125
1.22125
1.22125
1.22125
1.22125
1.22125
1.22125
1.22125
0.575405
0.538381
0.611886
0.727591
0.846685
0.9478
1.02605
1.08294
1.12231
1.14949
1.16737
1.17888
1.18617
1.1911
1.19463
1.19807
1.20104
1.20363
1.20613
1.20847
1.2107
1.21277
1.21441
1.21521
1.21513
1.2147
1.21363
1.21196
1.20972
1.20692
1.204
1.20129
1.19929
1.1977
1.19632
1.1955
1.19542
1.19635
1.19791
1.20027
1.2031
1.20658
1.20945
1.21234
1.2139
1.21488
1.21478
1.21593
1.21686
1.21777
1.21843
1.21917
1.21994
1.22079
1.22143
1.2217
1.22173
1.22156
1.2211
1.22055
1.22006
1.21969
1.21938
1.21906
1.21876
1.21854
1.21845
1.21854
1.21889
1.21958
1.22048
1.22113
1.22131
1.22133
1.22129
1.22125
1.22127
1.22137
1.22161
1.22199
1.22231
1.22239
1.22237
1.22221
1.22189
1.22152
1.22131
1.22126
1.22125
1.22125
1.22125
1.22125
1.22125
1.22125
1.22125
1.22125
1.22125
1.22125
1.22125
1.22125
1.22125
1.22125
1.22125
1.22125
1.22125
1.22125
1.22125
1.22125
1.22125
1.22125
1.22125
1.22125
1.22125
1.22125
1.22125
1.22125
1.22125
1.22125
1.22125
1.22125
1.22125
1.22125
1.22125
1.22125
1.22125
1.22125
1.22125
1.22125
1.22125
1.22125
1.22125
1.22125
1.22125
1.22125
1.22125
1.22125
1.22125
1.22125
1.22125
1.22125
1.22125
1.22125
1.22125
1.22125
1.22125
0.59399
0.552905
0.623811
0.745446
0.859785
0.956661
1.03376
1.08573
1.12466
1.1517
1.1691
1.18036
1.18777
1.19304
1.19749
1.20221
1.20691
1.21087
1.21437
1.21752
1.22027
1.22256
1.22416
1.22484
1.22451
1.22334
1.22166
1.21985
1.21792
1.21592
1.21403
1.21236
1.21082
1.20947
1.20846
1.20786
1.20759
1.20764
1.20796
1.20874
1.20978
1.21118
1.2126
1.2139
1.21481
1.21545
1.21565
1.2166
1.21735
1.21802
1.21857
1.21925
1.22001
1.22083
1.22142
1.22164
1.22165
1.22145
1.22098
1.22044
1.21999
1.21964
1.21934
1.21904
1.21875
1.21856
1.21849
1.21859
1.21896
1.21966
1.22054
1.22116
1.22132
1.22133
1.2213
1.22126
1.22129
1.22138
1.22163
1.22202
1.22231
1.22238
1.22236
1.22219
1.22187
1.22151
1.2213
1.22125
1.22125
1.22125
1.22125
1.22125
1.22125
1.22125
1.22125
1.22125
1.22125
1.22125
1.22125
1.22125
1.22125
1.22125
1.22125
1.22125
1.22125
1.22125
1.22125
1.22125
1.22125
1.22125
1.22125
1.22125
1.22125
1.22125
1.22125
1.22125
1.22125
1.22125
1.22125
1.22125
1.22125
1.22125
1.22125
1.22125
1.22125
1.22125
1.22125
1.22125
1.22125
1.22125
1.22125
1.22125
1.22125
1.22125
1.22125
1.22125
1.22125
1.22125
1.22125
1.22125
1.22125
1.22125
1.22125
1.22125
1.22125
0.728028
0.680192
0.717801
0.813453
0.909299
0.991876
1.05771
1.10455
1.13648
1.15836
1.17292
1.18251
1.18877
1.19302
1.19675
1.20091
1.20554
1.20997
1.2141
1.21782
1.22112
1.22383
1.22572
1.22657
1.22648
1.22554
1.22398
1.22219
1.22041
1.21881
1.21739
1.21598
1.21483
1.21401
1.21329
1.21283
1.21253
1.21225
1.21218
1.2123
1.21258
1.21308
1.21375
1.21455
1.21524
1.21579
1.21623
1.21714
1.21782
1.21832
1.21874
1.21935
1.22011
1.22089
1.2214
1.22158
1.22156
1.22132
1.22084
1.22033
1.2199
1.21958
1.2193
1.21902
1.21875
1.21858
1.21853
1.21866
1.21904
1.21975
1.22061
1.22119
1.22132
1.22134
1.2213
1.22127
1.2213
1.2214
1.22166
1.22204
1.22232
1.22238
1.22234
1.22217
1.22184
1.22149
1.2213
1.22125
1.22125
1.22125
1.22125
1.22125
1.22125
1.22125
1.22125
1.22125
1.22125
1.22125
1.22125
1.22125
1.22125
1.22125
1.22125
1.22125
1.22125
1.22125
1.22125
1.22125
1.22125
1.22125
1.22125
1.22125
1.22125
1.22125
1.22125
1.22125
1.22125
1.22125
1.22125
1.22125
1.22125
1.22125
1.22125
1.22125
1.22125
1.22125
1.22125
1.22125
1.22125
1.22125
1.22125
1.22125
1.22125
1.22125
1.22125
1.22125
1.22125
1.22125
1.22125
1.22125
1.22125
1.22125
1.22125
1.22125
1.22125
0.875918
0.84982
0.859408
0.911293
0.982593
1.04232
1.09002
1.12482
1.14877
1.16543
1.17678
1.18446
1.18952
1.19305
1.19631
1.19994
1.20398
1.20804
1.212
1.21564
1.21889
1.22163
1.22369
1.22491
1.22529
1.22501
1.22415
1.22293
1.22162
1.22042
1.21932
1.21823
1.21718
1.21619
1.21532
1.21457
1.21394
1.21348
1.2133
1.2134
1.21368
1.21408
1.21458
1.21515
1.21571
1.21622
1.21677
1.2176
1.21816
1.21853
1.21892
1.2195
1.22024
1.22095
1.22138
1.22151
1.22146
1.22118
1.2207
1.22021
1.21982
1.21952
1.21926
1.219
1.21875
1.21861
1.21858
1.21872
1.21913
1.21985
1.22069
1.22121
1.22133
1.22134
1.22131
1.22128
1.22131
1.22142
1.22169
1.22207
1.22232
1.22237
1.22233
1.22215
1.22182
1.22147
1.22129
1.22125
1.22125
1.22125
1.22125
1.22125
1.22125
1.22125
1.22125
1.22125
1.22125
1.22125
1.22125
1.22125
1.22125
1.22125
1.22125
1.22125
1.22125
1.22125
1.22125
1.22125
1.22125
1.22125
1.22125
1.22125
1.22125
1.22125
1.22125
1.22125
1.22125
1.22125
1.22125
1.22125
1.22125
1.22125
1.22125
1.22125
1.22125
1.22125
1.22125
1.22125
1.22125
1.22125
1.22125
1.22125
1.22125
1.22125
1.22125
1.22125
1.22125
1.22125
1.22125
1.22125
1.22125
1.22125
1.22125
1.22125
1.22125
1.00902
0.982829
0.981643
1.00697
1.05193
1.08908
1.11918
1.1433
1.16073
1.17246
1.18036
1.18588
1.1898
1.19295
1.19603
1.19949
1.20325
1.20704
1.21066
1.21396
1.21688
1.21937
1.22136
1.22279
1.22357
1.2238
1.22368
1.22323
1.22256
1.22179
1.22095
1.22003
1.21905
1.21799
1.21684
1.21575
1.21491
1.21441
1.21425
1.21432
1.21459
1.21495
1.21537
1.21581
1.21628
1.21673
1.21729
1.21801
1.21846
1.21876
1.2191
1.21966
1.22037
1.22101
1.22135
1.22143
1.22134
1.22101
1.22054
1.22008
1.21973
1.21946
1.21921
1.21897
1.21875
1.21863
1.21863
1.21879
1.21923
1.21996
1.22077
1.22124
1.22134
1.22135
1.22131
1.22129
1.22133
1.22145
1.22172
1.22209
1.22232
1.22237
1.22232
1.22212
1.22179
1.22145
1.22129
1.22125
1.22125
1.22125
1.22125
1.22125
1.22125
1.22125
1.22125
1.22125
1.22125
1.22125
1.22125
1.22125
1.22125
1.22125
1.22125
1.22125
1.22125
1.22125
1.22125
1.22125
1.22125
1.22125
1.22125
1.22125
1.22125
1.22125
1.22125
1.22125
1.22125
1.22125
1.22125
1.22125
1.22125
1.22125
1.22125
1.22125
1.22125
1.22125
1.22125
1.22125
1.22125
1.22125
1.22125
1.22125
1.22125
1.22125
1.22125
1.22125
1.22125
1.22125
1.22125
1.22125
1.22125
1.22125
1.22125
1.22125
1.22125
1.09209
1.07332
1.06959
1.08103
1.10471
1.12517
1.14283
1.15838
1.1699
1.17777
1.18315
1.187
1.18997
1.19267
1.19556
1.19892
1.20258
1.20631
1.20983
1.21297
1.21566
1.21795
1.21985
1.22131
1.22231
1.22286
1.22308
1.22304
1.22277
1.22229
1.22173
1.22104
1.22021
1.21929
1.21829
1.21732
1.21652
1.21598
1.21573
1.21567
1.21576
1.21599
1.21629
1.21664
1.21703
1.21742
1.21789
1.21841
1.2187
1.21892
1.21926
1.21983
1.22052
1.22107
1.22131
1.22134
1.2212
1.22084
1.22038
1.21996
1.21964
1.21939
1.21917
1.21895
1.21876
1.21866
1.21868
1.21888
1.21935
1.22009
1.22085
1.22127
1.22135
1.22135
1.22132
1.2213
1.22134
1.22148
1.22176
1.22213
1.22233
1.22236
1.2223
1.22209
1.22175
1.22143
1.22128
1.22125
1.22125
1.22125
1.22125
1.22125
1.22125
1.22125
1.22125
1.22125
1.22125
1.22125
1.22125
1.22125
1.22125
1.22125
1.22125
1.22125
1.22125
1.22125
1.22125
1.22125
1.22125
1.22125
1.22125
1.22125
1.22125
1.22125
1.22125
1.22125
1.22125
1.22125
1.22125
1.22125
1.22125
1.22125
1.22125
1.22125
1.22125
1.22125
1.22125
1.22125
1.22125
1.22125
1.22125
1.22125
1.22125
1.22125
1.22125
1.22125
1.22125
1.22125
1.22125
1.22125
1.22125
1.22125
1.22125
1.22125
1.22125
1.13981
1.12922
1.12573
1.13019
1.14123
1.15221
1.16193
1.17094
1.17782
1.18268
1.18612
1.1886
1.19066
1.19279
1.19532
1.19828
1.2016
1.20516
1.2086
1.21169
1.21434
1.21663
1.21856
1.22009
1.22118
1.22185
1.2222
1.22232
1.2222
1.2218
1.22134
1.22078
1.22012
1.2195
1.21893
1.21845
1.21806
1.21773
1.21748
1.2173
1.21722
1.21727
1.21742
1.21764
1.21791
1.21817
1.21846
1.21873
1.21888
1.21906
1.21942
1.22001
1.22066
1.2211
1.22126
1.22123
1.22104
1.22065
1.2202
1.21983
1.21954
1.21933
1.21913
1.21892
1.21877
1.21869
1.21874
1.21897
1.21947
1.22022
1.22094
1.2213
1.22136
1.22136
1.22132
1.22131
1.22136
1.22151
1.2218
1.22216
1.22233
1.22236
1.22228
1.22206
1.22172
1.22141
1.22127
1.22125
1.22125
1.22125
1.22125
1.22125
1.22125
1.22125
1.22125
1.22125
1.22125
1.22125
1.22125
1.22125
1.22125
1.22125
1.22125
1.22125
1.22125
1.22125
1.22125
1.22125
1.22125
1.22125
1.22125
1.22125
1.22125
1.22125
1.22125
1.22125
1.22125
1.22125
1.22125
1.22125
1.22125
1.22125
1.22125
1.22125
1.22125
1.22125
1.22125
1.22125
1.22125
1.22125
1.22125
1.22125
1.22125
1.22125
1.22125
1.22125
1.22125
1.22125
1.22125
1.22125
1.22125
1.22125
1.22125
1.22125
1.22125
1.16554
1.15819
1.15528
1.157
1.16266
1.16929
1.1748
1.17983
1.18385
1.18683
1.18909
1.19072
1.19213
1.1936
1.19546
1.19777
1.20054
1.20367
1.2069
1.20992
1.21258
1.21493
1.21693
1.21853
1.2197
1.22045
1.22083
1.22097
1.22091
1.2206
1.22019
1.21973
1.21931
1.219
1.21874
1.21859
1.21851
1.21844
1.21836
1.21828
1.21824
1.21826
1.21835
1.21847
1.21861
1.21873
1.21883
1.21891
1.21898
1.21917
1.2196
1.2202
1.22078
1.2211
1.22118
1.22111
1.22084
1.22044
1.22003
1.21969
1.21945
1.21926
1.21908
1.21891
1.21878
1.21873
1.21881
1.21908
1.21961
1.22036
1.22103
1.22132
1.22137
1.22136
1.22132
1.22133
1.22138
1.22154
1.22185
1.22219
1.22233
1.22235
1.22226
1.22202
1.22167
1.22138
1.22127
1.22125
1.22125
1.22125
1.22125
1.22125
1.22125
1.22125
1.22125
1.22125
1.22125
1.22125
1.22125
1.22125
1.22125
1.22125
1.22125
1.22125
1.22125
1.22125
1.22125
1.22125
1.22125
1.22125
1.22125
1.22125
1.22125
1.22125
1.22125
1.22125
1.22125
1.22125
1.22125
1.22125
1.22125
1.22125
1.22125
1.22125
1.22125
1.22125
1.22125
1.22125
1.22125
1.22125
1.22125
1.22125
1.22125
1.22125
1.22125
1.22125
1.22125
1.22125
1.22125
1.22125
1.22125
1.22125
1.22125
1.22125
1.22125
1.18226
1.17631
1.17358
1.17329
1.17547
1.17926
1.18251
1.18552
1.18809
1.19003
1.19159
1.19273
1.19376
1.19482
1.19615
1.1979
1.20015
1.2028
1.20559
1.20828
1.21076
1.21303
1.21502
1.21667
1.21794
1.21881
1.21935
1.21961
1.21969
1.2196
1.21939
1.2191
1.21884
1.21862
1.21847
1.2184
1.21837
1.21837
1.2184
1.21845
1.21853
1.21864
1.21874
1.21883
1.21891
1.21895
1.21895
1.21897
1.21906
1.21933
1.21982
1.22041
1.22086
1.22107
1.22108
1.22094
1.22062
1.22022
1.21985
1.21957
1.21936
1.2192
1.21905
1.21889
1.2188
1.21878
1.21889
1.2192
1.21977
1.22051
1.22111
1.22134
1.22138
1.22136
1.22133
1.22134
1.22141
1.22159
1.2219
1.22222
1.22233
1.22234
1.22224
1.22198
1.22163
1.22136
1.22126
1.22125
1.22125
1.22125
1.22125
1.22125
1.22125
1.22125
1.22125
1.22125
1.22125
1.22125
1.22125
1.22125
1.22125
1.22125
1.22125
1.22125
1.22125
1.22125
1.22125
1.22125
1.22125
1.22125
1.22125
1.22125
1.22125
1.22125
1.22125
1.22125
1.22125
1.22125
1.22125
1.22125
1.22125
1.22125
1.22125
1.22125
1.22125
1.22125
1.22125
1.22125
1.22125
1.22125
1.22125
1.22125
1.22125
1.22125
1.22125
1.22125
1.22125
1.22125
1.22125
1.22125
1.22125
1.22125
1.22125
1.22125
1.22125
1.19417
1.18923
1.18637
1.18526
1.18563
1.18718
1.18874
1.19029
1.19181
1.19302
1.19405
1.1949
1.19575
1.19662
1.19764
1.19892
1.20063
1.20281
1.20519
1.20754
1.20975
1.21179
1.21365
1.21524
1.21655
1.21757
1.21831
1.21882
1.21911
1.21923
1.2192
1.21906
1.21883
1.21861
1.21842
1.2183
1.21825
1.21825
1.21831
1.21843
1.21856
1.2187
1.21882
1.21891
1.21896
1.21897
1.21896
1.21901
1.2192
1.21956
1.22008
1.22058
1.22089
1.22099
1.22094
1.22072
1.22038
1.21999
1.21967
1.21944
1.21928
1.21915
1.21901
1.21889
1.21882
1.21884
1.21898
1.21935
1.21995
1.22067
1.22119
1.22136
1.22139
1.22137
1.22134
1.22136
1.22144
1.22164
1.22196
1.22225
1.22234
1.22233
1.2222
1.22193
1.22158
1.22134
1.22126
1.22125
1.22125
1.22125
1.22125
1.22125
1.22125
1.22125
1.22125
1.22125
1.22125
1.22125
1.22125
1.22125
1.22125
1.22125
1.22125
1.22125
1.22125
1.22125
1.22125
1.22125
1.22125
1.22125
1.22125
1.22125
1.22125
1.22125
1.22125
1.22125
1.22125
1.22125
1.22125
1.22125
1.22125
1.22125
1.22125
1.22125
1.22125
1.22125
1.22125
1.22125
1.22125
1.22125
1.22125
1.22125
1.22125
1.22125
1.22125
1.22125
1.22125
1.22125
1.22125
1.22125
1.22125
1.22125
1.22125
1.22125
1.22125
1.20263
1.1987
1.19607
1.19468
1.19418
1.19448
1.19502
1.19543
1.19603
1.19658
1.19707
1.19755
1.19813
1.19879
1.19959
1.20057
1.20187
1.20354
1.20551
1.20756
1.20951
1.21132
1.21299
1.21448
1.21577
1.21684
1.2177
1.21834
1.21878
1.21903
1.21913
1.21911
1.21897
1.21879
1.21862
1.21849
1.21843
1.21841
1.21846
1.21856
1.21867
1.21879
1.21888
1.21894
1.21898
1.21899
1.21902
1.21917
1.21946
1.21987
1.22033
1.2207
1.22087
1.22088
1.22075
1.22047
1.22011
1.21977
1.21951
1.21933
1.21921
1.2191
1.21899
1.2189
1.21886
1.21891
1.2191
1.21952
1.22015
1.22083
1.22126
1.22138
1.2214
1.22137
1.22135
1.22138
1.22147
1.22169
1.22202
1.22228
1.22234
1.22231
1.22217
1.22187
1.22153
1.22132
1.22126
1.22125
1.22125
1.22125
1.22125
1.22125
1.22125
1.22125
1.22125
1.22125
1.22125
1.22125
1.22125
1.22125
1.22125
1.22125
1.22125
1.22125
1.22125
1.22125
1.22125
1.22125
1.22125
1.22125
1.22125
1.22125
1.22125
1.22125
1.22125
1.22125
1.22125
1.22125
1.22125
1.22125
1.22125
1.22125
1.22125
1.22125
1.22125
1.22125
1.22125
1.22125
1.22125
1.22125
1.22125
1.22125
1.22125
1.22125
1.22125
1.22125
1.22125
1.22125
1.22125
1.22125
1.22125
1.22125
1.22125
1.22125
1.22125
1.20834
1.20528
1.20306
1.20167
1.20094
1.20068
1.20072
1.20063
1.20059
1.20063
1.20065
1.20074
1.20095
1.2013
1.20182
1.20255
1.20352
1.20479
1.20631
1.20796
1.20963
1.21122
1.21271
1.21408
1.21531
1.21639
1.21728
1.21797
1.21846
1.21878
1.21897
1.21908
1.21912
1.21909
1.21904
1.21899
1.21897
1.21896
1.21896
1.219
1.21904
1.21908
1.2191
1.21911
1.21914
1.21917
1.21927
1.21951
1.21983
1.22018
1.22051
1.22071
1.22077
1.2207
1.2205
1.22018
1.21984
1.21955
1.21936
1.21923
1.21914
1.21906
1.21898
1.21891
1.21891
1.21899
1.21925
1.21972
1.22036
1.22098
1.22132
1.22139
1.2214
1.22138
1.22136
1.2214
1.22151
1.22176
1.22209
1.2223
1.22234
1.22229
1.22212
1.22181
1.22148
1.2213
1.22125
1.22125
1.22125
1.22125
1.22125
1.22125
1.22125
1.22125
1.22125
1.22125
1.22125
1.22125
1.22125
1.22125
1.22125
1.22125
1.22125
1.22125
1.22125
1.22125
1.22125
1.22125
1.22125
1.22125
1.22125
1.22125
1.22125
1.22125
1.22125
1.22125
1.22125
1.22125
1.22125
1.22125
1.22125
1.22125
1.22125
1.22125
1.22125
1.22125
1.22125
1.22125
1.22125
1.22125
1.22125
1.22125
1.22125
1.22125
1.22125
1.22125
1.22125
1.22125
1.22125
1.22125
1.22125
1.22125
1.22125
1.22125
1.22125
1.2121
1.20969
1.20782
1.20651
1.2057
1.20527
1.20504
1.20488
1.20465
1.20443
1.20424
1.20407
1.20401
1.20407
1.20428
1.20469
1.20532
1.2062
1.20732
1.20859
1.20993
1.21127
1.21256
1.21379
1.21496
1.21601
1.21691
1.21763
1.21817
1.21856
1.21884
1.21907
1.21927
1.21944
1.21957
1.21965
1.21969
1.2197
1.21968
1.21965
1.21961
1.21956
1.21951
1.2195
1.21952
1.21957
1.21971
1.21993
1.22015
1.22037
1.22055
1.22064
1.2206
1.22045
1.22019
1.21988
1.21958
1.21936
1.21923
1.21915
1.2191
1.21904
1.21898
1.21894
1.21897
1.21911
1.21942
1.21994
1.22058
1.22112
1.22137
1.22141
1.22141
1.22138
1.22138
1.22143
1.22157
1.22184
1.22216
1.22231
1.22234
1.22227
1.22206
1.22173
1.22143
1.22128
1.22125
1.22125
1.22125
1.22125
1.22125
1.22125
1.22125
1.22125
1.22125
1.22125
1.22125
1.22125
1.22125
1.22125
1.22125
1.22125
1.22125
1.22125
1.22125
1.22125
1.22125
1.22125
1.22125
1.22125
1.22125
1.22125
1.22125
1.22125
1.22125
1.22125
1.22125
1.22125
1.22125
1.22125
1.22125
1.22125
1.22125
1.22125
1.22125
1.22125
1.22125
1.22125
1.22125
1.22125
1.22125
1.22125
1.22125
1.22125
1.22125
1.22125
1.22125
1.22125
1.22125
1.22125
1.22125
1.22125
1.22125
1.22125
1.22125
1.21479
1.21286
1.21125
1.21
1.20912
1.20854
1.20818
1.20793
1.2077
1.20746
1.20722
1.20699
1.20683
1.20675
1.20676
1.2069
1.2072
1.20771
1.20844
1.20935
1.21038
1.21145
1.21253
1.2136
1.21463
1.21561
1.21649
1.21724
1.21787
1.21837
1.21878
1.21912
1.21942
1.21967
1.21987
1.22001
1.2201
1.22012
1.22011
1.22006
1.22001
1.21996
1.21993
1.21992
1.21994
1.21998
1.22007
1.22017
1.22028
1.2204
1.22047
1.22045
1.22034
1.22012
1.21985
1.21956
1.21933
1.21919
1.21912
1.2191
1.21907
1.21903
1.21899
1.21899
1.21906
1.21926
1.21964
1.22019
1.22081
1.22125
1.2214
1.22143
1.22141
1.22138
1.2214
1.22146
1.22163
1.22192
1.22222
1.22232
1.22233
1.22223
1.22199
1.22165
1.22138
1.22127
1.22125
1.22125
1.22125
1.22125
1.22125
1.22125
1.22125
1.22125
1.22125
1.22125
1.22125
1.22125
1.22125
1.22125
1.22125
1.22125
1.22125
1.22125
1.22125
1.22125
1.22125
1.22125
1.22125
1.22125
1.22125
1.22125
1.22125
1.22125
1.22125
1.22125
1.22125
1.22125
1.22125
1.22125
1.22125
1.22125
1.22125
1.22125
1.22125
1.22125
1.22125
1.22125
1.22125
1.22125
1.22125
1.22125
1.22125
1.22125
1.22125
1.22125
1.22125
1.22125
1.22125
1.22125
1.22125
1.22125
1.22125
1.22125
1.22125
1.21695
1.21543
1.21407
1.21292
1.21199
1.21127
1.21075
1.21036
1.21005
1.20976
1.20951
1.20927
1.20907
1.20894
1.20888
1.20889
1.20899
1.20923
1.20964
1.21024
1.21099
1.21181
1.21265
1.2135
1.21434
1.21516
1.21595
1.21669
1.21736
1.21796
1.21848
1.21891
1.21925
1.21952
1.21973
1.21987
1.21997
1.22003
1.22006
1.22007
1.22007
1.22007
1.22007
1.22008
1.2201
1.22012
1.22015
1.22018
1.22023
1.22027
1.22024
1.22015
1.21997
1.21975
1.21949
1.21926
1.21912
1.21906
1.21906
1.21907
1.21906
1.21904
1.21903
1.21906
1.21919
1.21945
1.21989
1.22046
1.22102
1.22134
1.22143
1.22144
1.22142
1.22139
1.22142
1.22151
1.22171
1.22202
1.22227
1.22233
1.22231
1.22218
1.22191
1.22157
1.22133
1.22126
1.22125
1.22125
1.22125
1.22125
1.22125
1.22125
1.22125
1.22125
1.22125
1.22125
1.22125
1.22125
1.22125
1.22125
1.22125
1.22125
1.22125
1.22125
1.22125
1.22125
1.22125
1.22125
1.22125
1.22125
1.22125
1.22125
1.22125
1.22125
1.22125
1.22125
1.22125
1.22125
1.22125
1.22125
1.22125
1.22125
1.22125
1.22125
1.22125
1.22125
1.22125
1.22125
1.22125
1.22125
1.22125
1.22125
1.22125
1.22125
1.22125
1.22125
1.22125
1.22125
1.22125
1.22125
1.22125
1.22125
1.22125
1.22125
1.22125
1.21879
1.21763
1.21654
1.21555
1.21467
1.2139
1.21324
1.21269
1.21222
1.21181
1.21144
1.21113
1.21085
1.21063
1.21049
1.21042
1.21042
1.21049
1.21069
1.21103
1.21153
1.21212
1.21275
1.21339
1.21403
1.21466
1.2153
1.21593
1.21656
1.21716
1.21771
1.21819
1.21859
1.21891
1.21915
1.21932
1.21945
1.21953
1.21958
1.21962
1.21967
1.21972
1.21978
1.21983
1.21987
1.2199
1.21992
1.21992
1.21993
1.21992
1.21985
1.21974
1.21957
1.21935
1.21915
1.21902
1.21897
1.21899
1.21903
1.21906
1.21907
1.21907
1.21909
1.21917
1.21936
1.2197
1.22018
1.22074
1.2212
1.22141
1.22145
1.22145
1.22142
1.22141
1.22145
1.22157
1.22181
1.22211
1.2223
1.22234
1.22229
1.22211
1.22181
1.22148
1.2213
1.22126
1.22125
1.22125
1.22125
1.22125
1.22125
1.22125
1.22125
1.22125
1.22125
1.22125
1.22125
1.22125
1.22125
1.22125
1.22125
1.22125
1.22125
1.22125
1.22125
1.22125
1.22125
1.22125
1.22125
1.22125
1.22125
1.22125
1.22125
1.22125
1.22125
1.22125
1.22125
1.22125
1.22125
1.22125
1.22125
1.22125
1.22125
1.22125
1.22125
1.22125
1.22125
1.22125
1.22125
1.22125
1.22125
1.22125
1.22125
1.22125
1.22125
1.22125
1.22125
1.22125
1.22125
1.22125
1.22125
1.22125
1.22125
1.22125
1.22125
1.22047
1.21957
1.21871
1.2179
1.21715
1.21643
1.21575
1.21511
1.21451
1.21394
1.21342
1.21294
1.21253
1.21217
1.21187
1.21165
1.21151
1.21145
1.21147
1.21159
1.21184
1.21222
1.21267
1.21315
1.21363
1.21413
1.21462
1.21512
1.21561
1.2161
1.21656
1.21698
1.21736
1.21769
1.21797
1.21821
1.21841
1.21859
1.21874
1.21888
1.21901
1.21913
1.21923
1.2193
1.21935
1.21939
1.21941
1.21945
1.21948
1.21947
1.21941
1.21929
1.21913
1.21898
1.21888
1.21886
1.21889
1.21897
1.21904
1.21909
1.21911
1.21913
1.21919
1.21933
1.21959
1.21999
1.2205
1.22101
1.22134
1.22145
1.22147
1.22145
1.22142
1.22143
1.22149
1.22165
1.22192
1.22221
1.22232
1.22233
1.22225
1.22202
1.22169
1.22141
1.22128
1.22125
1.22125
1.22125
1.22125
1.22125
1.22125
1.22125
1.22125
1.22125
1.22125
1.22125
1.22125
1.22125
1.22125
1.22125
1.22125
1.22125
1.22125
1.22125
1.22125
1.22125
1.22125
1.22125
1.22125
1.22125
1.22125
1.22125
1.22125
1.22125
1.22125
1.22125
1.22125
1.22125
1.22125
1.22125
1.22125
1.22125
1.22125
1.22125
1.22125
1.22125
1.22125
1.22125
1.22125
1.22125
1.22125
1.22125
1.22125
1.22125
1.22125
1.22125
1.22125
1.22125
1.22125
1.22125
1.22125
1.22125
1.22125
1.22125
1.22125
1.22207
1.22134
1.22064
1.21998
1.21935
1.21874
1.21814
1.21753
1.21691
1.21628
1.21565
1.21503
1.21445
1.21392
1.21344
1.21304
1.2127
1.21245
1.21227
1.2122
1.21222
1.21235
1.2126
1.21292
1.21329
1.21369
1.21409
1.21446
1.21482
1.21517
1.21551
1.21584
1.21615
1.21645
1.21674
1.21701
1.21727
1.21752
1.21775
1.21797
1.21816
1.21833
1.21847
1.21858
1.21866
1.21873
1.21881
1.21891
1.21897
1.21898
1.21893
1.21884
1.21876
1.21872
1.21872
1.21879
1.21889
1.219
1.21909
1.21914
1.21918
1.21923
1.21935
1.21955
1.21988
1.22032
1.22082
1.22123
1.22144
1.22148
1.22148
1.22145
1.22143
1.22146
1.22155
1.22175
1.22205
1.22228
1.22234
1.22232
1.22218
1.22191
1.22157
1.22134
1.22126
1.22125
1.22125
1.22125
1.22125
1.22125
1.22125
1.22125
1.22125
1.22125
1.22125
1.22125
1.22125
1.22125
1.22125
1.22125
1.22125
1.22125
1.22125
1.22125
1.22125
1.22125
1.22125
1.22125
1.22125
1.22125
1.22125
1.22125
1.22125
1.22125
1.22125
1.22125
1.22125
1.22125
1.22125
1.22125
1.22125
1.22125
1.22125
1.22125
1.22125
1.22125
1.22125
1.22125
1.22125
1.22125
1.22125
1.22125
1.22125
1.22125
1.22125
1.22125
1.22125
1.22125
1.22125
1.22125
1.22125
1.22125
1.22125
1.22125
1.22125
1.2234
1.22283
1.22226
1.22172
1.2212
1.22071
1.22022
1.21972
1.2192
1.21864
1.21804
1.21741
1.21676
1.21612
1.21551
1.21493
1.21441
1.21396
1.21357
1.21327
1.21305
1.21295
1.21296
1.21307
1.21326
1.2135
1.21377
1.21407
1.21439
1.21471
1.21501
1.2153
1.21558
1.21585
1.21611
1.21637
1.21661
1.21685
1.21708
1.21729
1.21749
1.21765
1.2178
1.21792
1.21803
1.21813
1.21826
1.2184
1.21847
1.21851
1.21851
1.21852
1.21853
1.21858
1.21869
1.21882
1.21897
1.21909
1.21917
1.21923
1.21929
1.21939
1.21956
1.21984
1.22023
1.22069
1.22112
1.2214
1.22149
1.22151
1.22148
1.22145
1.22145
1.2215
1.22164
1.22189
1.22218
1.22232
1.22234
1.22228
1.22208
1.22177
1.22146
1.22129
1.22125
1.22125
1.22125
1.22125
1.22125
1.22125
1.22125
1.22125
1.22125
1.22125
1.22125
1.22125
1.22125
1.22125
1.22125
1.22125
1.22125
1.22125
1.22125
1.22125
1.22125
1.22125
1.22125
1.22125
1.22125
1.22125
1.22125
1.22125
1.22125
1.22125
1.22125
1.22125
1.22125
1.22125
1.22125
1.22125
1.22125
1.22125
1.22125
1.22125
1.22125
1.22125
1.22125
1.22125
1.22125
1.22125
1.22125
1.22125
1.22125
1.22125
1.22125
1.22125
1.22125
1.22125
1.22125
1.22125
1.22125
1.22125
1.22125
1.22125
1.22125
1.2241
1.22374
1.22336
1.22296
1.22256
1.22216
1.22177
1.22139
1.221
1.22059
1.22015
1.21965
1.21912
1.21854
1.21794
1.21733
1.21673
1.21616
1.21563
1.21515
1.21473
1.21439
1.21414
1.21399
1.21395
1.21399
1.21409
1.21425
1.21445
1.21466
1.21489
1.21513
1.21538
1.21562
1.21586
1.2161
1.21633
1.21655
1.21676
1.21695
1.21712
1.21727
1.2174
1.21752
1.21763
1.21774
1.21787
1.21803
1.21813
1.21821
1.21827
1.21835
1.21847
1.21861
1.21878
1.21896
1.21911
1.21922
1.21929
1.21936
1.21946
1.21962
1.21986
1.2202
1.22062
1.22104
1.22136
1.2215
1.22153
1.22152
1.22148
1.22145
1.22148
1.22157
1.22176
1.22205
1.22228
1.22234
1.22233
1.22221
1.22195
1.22162
1.22136
1.22127
1.22125
1.22125
1.22125
1.22125
1.22125
1.22125
1.22125
1.22125
1.22125
1.22125
1.22125
1.22125
1.22125
1.22125
1.22125
1.22125
1.22125
1.22125
1.22125
1.22125
1.22125
1.22125
1.22125
1.22125
1.22125
1.22125
1.22125
1.22125
1.22125
1.22125
1.22125
1.22125
1.22125
1.22125
1.22125
1.22125
1.22125
1.22125
1.22125
1.22125
1.22125
1.22125
1.22125
1.22125
1.22125
1.22125
1.22125
1.22125
1.22125
1.22125
1.22125
1.22125
1.22125
1.22125
1.22125
1.22125
1.22125
1.22125
1.22125
1.22125
1.22125
1.22423
1.22402
1.22379
1.22354
1.22327
1.22299
1.22271
1.22242
1.22212
1.22182
1.22151
1.22119
1.22083
1.22044
1.22002
1.21956
1.21907
1.21856
1.21805
1.21755
1.21707
1.21662
1.21622
1.21587
1.2156
1.2154
1.21528
1.21524
1.21525
1.21531
1.21541
1.21555
1.2157
1.21587
1.21604
1.21622
1.21639
1.21655
1.2167
1.21683
1.21696
1.21708
1.2172
1.21731
1.21741
1.21751
1.21765
1.21781
1.21796
1.2181
1.21826
1.21842
1.2186
1.2188
1.21899
1.21916
1.21929
1.21938
1.21945
1.21956
1.21971
1.21994
1.22024
1.22062
1.22101
1.22134
1.22151
1.22155
1.22155
1.22151
1.22147
1.22148
1.22153
1.22168
1.22193
1.22221
1.22234
1.22235
1.22228
1.22209
1.22177
1.22147
1.2213
1.22126
1.22125
1.22125
1.22125
1.22125
1.22125
1.22125
1.22125
1.22125
1.22125
1.22125
1.22125
1.22125
1.22125
1.22125
1.22125
1.22125
1.22125
1.22125
1.22125
1.22125
1.22125
1.22125
1.22125
1.22125
1.22125
1.22125
1.22125
1.22125
1.22125
1.22125
1.22125
1.22125
1.22125
1.22125
1.22125
1.22125
1.22125
1.22125
1.22125
1.22125
1.22125
1.22125
1.22125
1.22125
1.22125
1.22125
1.22125
1.22125
1.22125
1.22125
1.22125
1.22125
1.22125
1.22125
1.22125
1.22125
1.22125
1.22125
1.22125
1.22125
1.22125
1.22406
1.22389
1.22373
1.22358
1.22342
1.22326
1.22307
1.22287
1.22266
1.22244
1.22221
1.22198
1.22173
1.22148
1.2212
1.22091
1.2206
1.22027
1.21992