/*--------------------------------*- C++ -*----------------------------------*\
| =========                 |                                                 |
| \\      /  F ield         | OpenFOAM: The Open Source CFD Toolbox           |
|  \\    /   O peration     | Version:  2406                                  |
|   \\  /    A nd           | Website:  www.openfoam.com                      |
|    \\/     M anipulation  |                                                 |
\*---------------------------------------------------------------------------*/
FoamFile
{
    version     2.0;
    format      ascii;
    arch        "LSB;label=32;scalar=64";
    class       volVectorField;
    location    "0.085";
    object      U;
}
// * * * * * * * * * * * * * * * * * * * * * * * * * * * * * * * * * * * * * //

dimensions      [0 1 -1 0 0 0 0];

internalField   nonuniform List<vector> 
13948
(
(44.2453 -30.652 2.33973)
(26.2713 -25.9847 1.20525)
(16.2587 -16.3019 0.867958)
(10.4709 -8.95404 0.466388)
(7.02112 -4.88557 0.261223)
(5.00169 -2.83549 0.162908)
(3.59201 -1.86007 0.114551)
(2.54015 -1.31036 0.0826073)
(1.75144 -0.980078 0.061384)
(1.23087 -0.776629 0.0461931)
(0.923813 -0.65455 0.0350894)
(0.735383 -0.582521 0.0280132)
(0.669946 -0.526175 0.02251)
(0.702623 -0.487527 0.0192121)
(0.735342 -0.44125 0.0160027)
(0.74163 -0.396597 0.0132963)
(0.744417 -0.352472 0.0108634)
(0.763841 -0.309328 0.00866663)
(0.797706 -0.263315 0.00642428)
(0.821069 -0.210143 0.00406909)
(0.7985 -0.154976 0.00191864)
(0.737967 -0.0981089 -2.53427e-05)
(0.618547 -0.0497228 -0.00145319)
(0.403357 -0.0104596 -0.00239575)
(0.123678 0.0138371 -0.00292713)
(-0.089785 0.0236197 -0.00307056)
(-0.149902 0.0260252 -0.00292269)
(-0.143349 0.0272402 -0.00278122)
(-0.123556 0.0298017 -0.00270742)
(-0.0992528 0.0345573 -0.00275045)
(-0.0919183 0.041196 -0.00287803)
(-0.106312 0.0482664 -0.0030286)
(-0.161309 0.0542609 -0.00312608)
(-0.262157 0.055821 -0.00305039)
(-0.350666 0.0516048 -0.00276932)
(-0.37144 0.0418211 -0.00222763)
(-0.352877 0.030102 -0.00159785)
(-0.302729 0.0182748 -0.000970262)
(-0.20582 0.00868731 -0.000465279)
(-0.0924435 0.00274877 -0.000150485)
(-0.0206439 0.000457009 -2.59214e-05)
(-0.00156518 2.74423e-05 -1.62637e-06)
(-2.65491e-05 3.83451e-07 -2.37929e-08)
(-6.85423e-08 8.66444e-10 -6.03288e-11)
(-1.86872e-11 4.6967e-11 -4.09565e-12)
(-4.57717e-12 4.54119e-11 -1.27261e-12)
(-2.03885e-12 4.24524e-11 1.05121e-12)
(2.38929e-12 4.75708e-11 1.53761e-12)
(-3.20394e-13 5.38025e-11 2.22338e-12)
(-5.61241e-12 5.58633e-11 -5.20553e-12)
(-6.34167e-12 4.8598e-11 -1.33659e-11)
(-8.11298e-12 5.29174e-11 -8.09962e-12)
(-1.49653e-11 4.98627e-11 -5.39919e-12)
(-1.18427e-11 3.8611e-11 -2.26801e-12)
(-8.1145e-12 3.19319e-11 -9.91497e-13)
(-1.50156e-11 3.04855e-11 -1.43983e-12)
(-1.38189e-11 1.98102e-11 -1.60879e-12)
(-1.19925e-11 2.05624e-11 -5.35108e-13)
(-1.34611e-11 1.72238e-11 8.78509e-15)
(-1.4592e-11 1.84715e-11 5.8404e-12)
(-2.31272e-11 8.73923e-12 9.0785e-12)
(-1.65228e-11 -4.8322e-12 9.14812e-12)
(-5.451e-12 -4.95277e-12 3.74507e-11)
(-8.48707e-12 2.80495e-12 4.84687e-11)
(-2.2859e-12 -1.56325e-12 3.62331e-11)
(-5.25495e-13 1.15547e-11 2.93409e-11)
(-3.73638e-12 8.49797e-12 2.19707e-11)
(-2.10879e-12 1.75468e-11 1.75176e-11)
(-1.51513e-12 1.48646e-11 1.63429e-11)
(1.91797e-12 1.65933e-11 1.63369e-11)
(-6.31152e-12 1.5614e-11 1.62591e-11)
(-2.49182e-12 7.25162e-13 1.91144e-11)
(6.57084e-12 2.50215e-12 2.47846e-11)
(-1.34906e-12 1.05894e-12 2.36715e-11)
(6.16342e-13 -1.30256e-11 1.97379e-11)
(2.01878e-11 -1.45228e-11 1.81894e-11)
(3.42404e-11 8.39876e-12 2.21517e-11)
(2.13878e-11 3.07338e-11 4.331e-11)
(1.37602e-11 2.83622e-11 7.45118e-11)
(1.59145e-11 3.21469e-11 7.45387e-11)
(1.13673e-11 4.01551e-11 6.68485e-11)
(6.85747e-12 3.62255e-11 6.30986e-11)
(6.53231e-12 4.12243e-11 5.3668e-11)
(2.75898e-12 4.15504e-11 5.45505e-11)
(5.44507e-13 3.81496e-11 4.84085e-11)
(7.45609e-13 3.19268e-11 5.40431e-11)
(-2.72676e-12 2.87569e-11 4.54375e-11)
(-4.16924e-12 1.24572e-11 4.78576e-11)
(-6.53132e-12 3.26096e-12 2.48732e-11)
(2.55245e-12 -1.42699e-11 9.65261e-12)
(1.75239e-11 -9.1754e-12 2.15468e-12)
(2.12189e-11 4.56926e-13 -6.51037e-12)
(2.19856e-11 7.86799e-12 -1.05895e-11)
(1.50887e-11 2.53719e-12 -1.72614e-11)
(8.82007e-12 -1.48435e-11 -3.5781e-11)
(2.36538e-11 -3.73448e-11 -5.83667e-11)
(3.94131e-11 -4.41906e-11 -7.68372e-11)
(5.08568e-11 -4.55195e-11 -6.48982e-11)
(7.0047e-11 -4.69291e-11 -6.07345e-11)
(37.9793 -23.057 1.96296)
(28.9838 -34.985 2.20924)
(22.9937 -26.7148 1.4533)
(15.4005 -16.4642 0.901387)
(10.2475 -9.05876 0.475009)
(6.95381 -4.96805 0.26463)
(4.95797 -2.9003 0.165109)
(3.55061 -1.8983 0.115823)
(2.51053 -1.31359 0.0825053)
(1.74105 -0.964888 0.0605838)
(1.22781 -0.75018 0.0452181)
(0.923611 -0.623507 0.0340638)
(0.737604 -0.548008 0.0268383)
(0.675749 -0.49596 0.0215124)
(0.706908 -0.465735 0.0185509)
(0.738069 -0.427127 0.0155942)
(0.743541 -0.388798 0.0131472)
(0.746137 -0.350189 0.010859)
(0.7664 -0.312816 0.00886646)
(0.800058 -0.274001 0.00688846)
(0.822002 -0.227597 0.00474532)
(0.797737 -0.177119 0.00274168)
(0.736685 -0.122361 0.000839732)
(0.615123 -0.0738456 -0.000639315)
(0.39856 -0.0298238 -0.00180557)
(0.119684 0.00281603 -0.00252995)
(-0.0911129 0.019664 -0.0029301)
(-0.149871 0.0240927 -0.00285198)
(-0.143168 0.0252002 -0.00270739)
(-0.12312 0.0268078 -0.00259908)
(-0.0993352 0.0301538 -0.00259183)
(-0.0921466 0.0360192 -0.00269486)
(-0.107249 0.0427304 -0.00283615)
(-0.163265 0.0496278 -0.00297494)
(-0.264557 0.0547018 -0.00302847)
(-0.351701 0.0538304 -0.00285194)
(-0.371436 0.0461978 -0.00238457)
(-0.352812 0.0354367 -0.00178929)
(-0.301931 0.0239876 -0.00117618)
(-0.204516 0.0132444 -0.00062853)
(-0.0913806 0.00505064 -0.000232199)
(-0.0202665 0.0010227 -4.58187e-05)
(-0.0015234 7.3877e-05 -3.24729e-06)
(-2.55827e-05 1.21614e-06 -5.26978e-08)
(-6.53333e-08 3.07491e-09 -1.36306e-10)
(-1.79091e-11 4.23385e-11 -4.95724e-12)
(-3.60691e-12 4.18623e-11 -1.08189e-12)
(-2.39532e-12 3.60025e-11 1.67648e-12)
(6.20887e-13 4.03535e-11 2.27703e-12)
(-8.94092e-13 4.83196e-11 1.79396e-12)
(-3.3623e-12 4.8973e-11 -2.58693e-12)
(-5.9937e-12 4.48852e-11 -4.06252e-12)
(-9.4465e-12 4.67148e-11 -4.4523e-12)
(-1.36427e-11 4.27211e-11 -3.92487e-12)
(-9.79196e-12 3.29138e-11 -1.00754e-12)
(-8.22977e-12 2.69575e-11 4.33191e-13)
(-1.40277e-11 2.54322e-11 3.69018e-14)
(-1.33469e-11 1.38046e-11 -6.02012e-13)
(-1.25885e-11 1.81739e-11 2.54081e-12)
(-1.42817e-11 1.38519e-11 1.0665e-12)
(-1.48808e-11 1.63046e-11 1.74889e-12)
(-2.14304e-11 6.42472e-12 5.45599e-12)
(-1.63866e-11 -7.60434e-12 1.1009e-11)
(-7.49304e-12 -6.66798e-12 3.06943e-11)
(-7.41495e-12 5.10019e-13 4.04235e-11)
(-2.97695e-12 -6.48961e-12 3.48945e-11)
(-1.37586e-12 7.46134e-12 2.91806e-11)
(-3.54734e-12 4.95031e-12 2.13907e-11)
(-2.20627e-12 1.44345e-11 1.67472e-11)
(-5.83686e-13 1.16463e-11 1.5859e-11)
(8.07829e-13 1.40795e-11 1.64057e-11)
(-4.3432e-12 1.33786e-11 1.4224e-11)
(-1.09799e-12 -3.95381e-12 1.6923e-11)
(4.84908e-12 -1.16619e-12 2.04622e-11)
(7.37728e-13 -1.11432e-12 2.02869e-11)
(2.68736e-12 -1.73867e-11 1.79805e-11)
(1.95591e-11 -1.74174e-11 1.69869e-11)
(2.99979e-11 5.69375e-12 2.03803e-11)
(2.2305e-11 2.64747e-11 3.6164e-11)
(1.51274e-11 2.35497e-11 5.76061e-11)
(1.48022e-11 2.87436e-11 6.11968e-11)
(1.09163e-11 3.6483e-11 5.41112e-11)
(7.34438e-12 3.24987e-11 5.1197e-11)
(5.66943e-12 3.94644e-11 4.79961e-11)
(3.16114e-12 3.81798e-11 4.52624e-11)
(1.30609e-12 3.55404e-11 4.18458e-11)
(3.23696e-13 2.62119e-11 4.47142e-11)
(-2.46522e-12 2.30014e-11 3.89461e-11)
(-3.12203e-12 7.33036e-12 3.86679e-11)
(-5.24051e-12 8.34314e-13 1.9605e-11)
(3.39833e-12 -1.57899e-11 8.14976e-12)
(1.70934e-11 -1.14032e-11 1.69663e-12)
(1.99891e-11 -3.05577e-12 -6.73515e-12)
(2.11314e-11 4.31387e-12 -9.70106e-12)
(1.65496e-11 -1.36398e-12 -1.49181e-11)
(1.17488e-11 -1.73289e-11 -3.36814e-11)
(2.43815e-11 -3.95287e-11 -5.32916e-11)
(3.85685e-11 -4.68357e-11 -7.01083e-11)
(4.99713e-11 -4.69531e-11 -6.1917e-11)
(6.83511e-11 -4.7893e-11 -5.91539e-11)
(92.8073 -5.15778 1.10084)
(90.1721 -3.33232 1.22802)
(83.7592 -3.69731 1.4096)
(74.9359 -3.44288 1.47596)
(63.957 -4.58834 1.35306)
(52.0097 -6.68383 1.35221)
(39.7654 -8.78259 1.09695)
(27.6452 -11.4619 1.36282)
(18.1886 -17.0296 1.15666)
(11.3571 -22.2596 1.44627)
(13.6553 -26.6784 1.63881)
(16.058 -23.4724 1.34725)
(12.9131 -15.9753 0.903537)
(9.55432 -9.03366 0.487056)
(6.68952 -5.02448 0.26724)
(4.80157 -2.95536 0.165632)
(3.441 -1.93645 0.116115)
(2.43972 -1.34521 0.082572)
(1.69987 -0.97522 0.0595605)
(1.20941 -0.749525 0.0430046)
(0.921397 -0.615336 0.0331716)
(0.743043 -0.53846 0.0264011)
(0.68484 -0.488489 0.0213676)
(0.712962 -0.460426 0.018558)
(0.741032 -0.424985 0.0157438)
(0.744661 -0.388892 0.0133463)
(0.745495 -0.352928 0.0113098)
(0.761921 -0.317773 0.00950875)
(0.790803 -0.280486 0.00770182)
(0.807586 -0.235216 0.00556499)
(0.779453 -0.186162 0.0034691)
(0.717244 -0.131888 0.00146731)
(0.594629 -0.0828218 -0.000126557)
(0.380583 -0.0368645 -0.00142942)
(0.1083 -0.00107733 -0.00225858)
(-0.0949911 0.018441 -0.00280715)
(-0.150755 0.023636 -0.00277431)
(-0.143937 0.0248635 -0.00264305)
(-0.124257 0.026108 -0.00252504)
(-0.10199 0.0289673 -0.00250865)
(-0.095521 0.0346576 -0.00261603)
(-0.111581 0.0412969 -0.00277319)
(-0.167681 0.0484767 -0.00294862)
(-0.267372 0.0538741 -0.00304434)
(-0.350986 0.0554212 -0.00296181)
(-0.368072 0.0481167 -0.00251133)
(-0.348862 0.0377135 -0.00192897)
(-0.297097 0.0262783 -0.00130832)
(-0.200076 0.0150063 -0.000723456)
(-0.0887002 0.0059477 -0.000277214)
(-0.0194522 0.00124943 -5.65367e-05)
(-0.0014398 9.30046e-05 -4.1114e-06)
(-2.37141e-05 1.56514e-06 -6.79134e-08)
(-5.92122e-08 4.02087e-09 -1.74621e-10)
(-1.61497e-11 3.53447e-11 -5.54034e-12)
(-1.56754e-12 3.47091e-11 -8.81742e-13)
(-1.63022e-12 2.82538e-11 3.0933e-12)
(-7.79674e-13 3.05483e-11 3.42629e-12)
(-4.90977e-13 3.57178e-11 4.01673e-12)
(-1.67483e-12 3.73425e-11 2.98821e-12)
(-5.85165e-12 3.43179e-11 1.8907e-12)
(-8.8492e-12 3.43395e-11 -2.14609e-12)
(-1.26514e-11 2.98173e-11 -1.09802e-12)
(-8.97661e-12 2.32916e-11 9.41369e-13)
(-8.00807e-12 1.90961e-11 1.39958e-12)
(-1.25354e-11 1.81114e-11 9.1951e-13)
(-1.35525e-11 1.03132e-11 3.59557e-14)
(-1.29234e-11 1.19931e-11 1.32905e-12)
(-1.38861e-11 7.67301e-12 1.34776e-12)
(-1.54547e-11 8.2096e-12 1.85422e-12)
(-1.84916e-11 2.50652e-12 2.50331e-12)
(-1.63001e-11 -9.84927e-12 1.08949e-11)
(-9.48116e-12 -7.71013e-12 2.33766e-11)
(-6.85788e-12 -4.48493e-12 3.02239e-11)
(-3.03079e-12 -8.28684e-12 3.09593e-11)
(-2.65236e-12 -1.97125e-13 2.6764e-11)
(-6.31783e-12 5.15334e-12 1.90621e-11)
(-4.0643e-12 1.09463e-11 1.08396e-11)
(-1.90634e-13 9.74261e-12 7.50547e-12)
(1.71421e-12 1.19197e-11 7.51214e-12)
(-2.27444e-12 7.9608e-12 5.82217e-12)
(1.97601e-12 -2.72232e-12 8.31164e-12)
(5.35226e-12 -4.32387e-12 1.13047e-11)
(2.88745e-12 -4.70535e-12 1.07193e-11)
(5.874e-12 -1.52026e-11 1.09948e-11)
(1.80833e-11 -1.44559e-11 1.2519e-11)
(2.54311e-11 3.05868e-12 1.60503e-11)
(2.34189e-11 1.29908e-11 2.8002e-11)
(1.55161e-11 1.50761e-11 3.67389e-11)
(1.43016e-11 2.18399e-11 4.10927e-11)
(1.05717e-11 2.31132e-11 3.85953e-11)
(5.80732e-12 2.07987e-11 3.62651e-11)
(4.45274e-12 2.57612e-11 3.53491e-11)
(4.09216e-12 2.55691e-11 3.14879e-11)
(2.93123e-12 2.50781e-11 3.06455e-11)
(2.55799e-12 1.71193e-11 3.00313e-11)
(-2.48946e-12 1.53865e-11 2.58289e-11)
(-4.04209e-12 5.19641e-12 2.52218e-11)
(-4.54402e-12 -4.09235e-12 1.124e-11)
(5.06566e-12 -1.4227e-11 5.07894e-12)
(1.59344e-11 -1.003e-11 3.53927e-13)
(1.93675e-11 -5.65601e-12 -4.28557e-12)
(2.09104e-11 -1.79326e-12 -6.13717e-12)
(1.72337e-11 -8.5986e-12 -1.09447e-11)
(1.51098e-11 -1.50024e-11 -2.89671e-11)
(2.48782e-11 -3.24839e-11 -4.58068e-11)
(3.61473e-11 -3.94767e-11 -6.2029e-11)
(4.86056e-11 -4.16078e-11 -5.67793e-11)
(6.62688e-11 -4.36399e-11 -5.53238e-11)
(339.248 -49.3291 7.13448)
(284.504 -59.9118 6.75796)
(235.426 -64.9838 7.33313)
(193.387 -64.6923 7.45268)
(158.139 -59.2485 7.90815)
(127.648 -47.4422 7.90986)
(102.414 -36.3818 7.61078)
(82.9681 -27.2123 7.7476)
(68.1724 -19.7921 8.01235)
(57.8102 -13.463 7.99312)
(51.0312 -8.65557 7.44)
(47.4749 -5.23281 6.47816)
(46.2346 -2.96102 5.62306)
(46.834 -1.60782 4.91582)
(48.5708 -0.893146 4.14755)
(51.0835 -0.117057 3.51601)
(53.6725 0.457662 2.78572)
(55.7337 1.3925 2.14696)
(56.8911 2.74593 1.49691)
(56.7478 4.38359 1.12833)
(55.0131 5.61533 0.68863)
(52.4693 6.62546 0.270968)
(49.2861 6.84612 0.138973)
(45.8605 6.28448 0.123615)
(42.8607 5.53766 0.398742)
(40.5115 4.81754 0.655395)
(38.6078 4.37948 0.632235)
(37.612 3.34754 0.45519)
(37.4605 1.91976 0.412805)
(37.7316 0.265049 0.387762)
(38.0116 -1.24856 0.419249)
(38.1747 -2.66848 0.232507)
(38.0383 -3.77962 0.303899)
(36.9264 -4.33013 0.458925)
(34.6175 -5.17684 0.67069)
(31.2132 -6.96459 0.864323)
(26.8375 -8.01382 0.966597)
(21.7016 -9.20819 0.981329)
(16.454 -10.977 1.14387)
(11.6311 -13.0145 1.09071)
(6.91568 -14.9401 1.17871)
(4.87194 -18.3889 1.16394)
(2.83668 -20.1988 1.22619)
(4.58507 -23.0156 1.33025)
(8.72056 -20.5801 1.18427)
(9.48928 -14.5369 0.812281)
(8.317 -8.67216 0.466202)
(6.17455 -5.03907 0.265663)
(4.52624 -3.01237 0.164748)
(3.25259 -1.97026 0.115013)
(2.31161 -1.35841 0.0814824)
(1.62114 -0.985669 0.0592726)
(1.1697 -0.752792 0.0434094)
(0.903229 -0.612427 0.0330389)
(0.735243 -0.53126 0.0263292)
(0.684205 -0.483775 0.0214683)
(0.711513 -0.457936 0.0188324)
(0.736629 -0.426872 0.016179)
(0.737335 -0.392618 0.0139277)
(0.734462 -0.35702 0.0119325)
(0.748249 -0.323947 0.0102069)
(0.773957 -0.289413 0.00849258)
(0.787294 -0.246384 0.00639582)
(0.757128 -0.199036 0.00421899)
(0.695516 -0.145708 0.00214825)
(0.572951 -0.0957932 0.00043884)
(0.361276 -0.0464088 -0.0010516)
(0.0952863 -0.00567801 -0.00209972)
(-0.0997471 0.0174383 -0.00274632)
(-0.151898 0.0235807 -0.00275906)
(-0.144858 0.0247419 -0.00263178)
(-0.125448 0.0255774 -0.00250219)
(-0.104522 0.0277487 -0.00246679)
(-0.098557 0.0329362 -0.0025627)
(-0.115122 0.0391814 -0.00272281)
(-0.171227 0.0471168 -0.00294781)
(-0.269508 0.0546798 -0.00311951)
(-0.34967 0.0575145 -0.00307954)
(-0.364265 0.0511202 -0.00267141)
(-0.344733 0.0412294 -0.00210416)
(-0.292159 0.0298051 -0.00147311)
(-0.195338 0.0175769 -0.000836638)
(-0.0856294 0.00712788 -0.000326762)
(-0.0184605 0.00151029 -6.71406e-05)
(-0.00133421 0.000111739 -4.85691e-06)
(-2.13214e-05 1.84632e-06 -7.89081e-08)
(-5.13847e-08 4.6123e-09 -1.94907e-10)
(-1.46867e-11 3.21966e-11 -6.0044e-12)
(-1.66842e-13 2.98784e-11 -2.21151e-13)
(-7.51527e-14 2.73867e-11 2.48574e-12)
(-9.25089e-13 3.09381e-11 4.52669e-12)
(-1.64541e-12 3.01378e-11 6.77897e-12)
(-1.10584e-12 3.0957e-11 7.39159e-12)
(-4.0191e-12 2.97854e-11 6.77848e-12)
(-8.54866e-12 3.07414e-11 4.32297e-12)
(-1.06827e-11 2.56119e-11 3.82188e-12)
(-7.10595e-12 2.20448e-11 3.79055e-12)
(-9.14965e-12 1.86218e-11 4.69718e-12)
(-1.34281e-11 1.5765e-11 3.01392e-12)
(-1.30879e-11 9.8091e-12 2.40598e-12)
(-1.20703e-11 8.51668e-12 3.38035e-12)
(-1.32322e-11 3.61991e-12 2.95102e-12)
(-1.64893e-11 2.29137e-12 2.81182e-12)
(-1.71648e-11 -2.55389e-12 1.87566e-12)
(-1.57291e-11 -7.19147e-12 1.09855e-11)
(-1.26115e-11 -8.9367e-12 2.21382e-11)
(-8.15095e-12 -9.78068e-12 2.47571e-11)
(-5.30829e-12 -5.60214e-12 2.80969e-11)
(-7.78696e-12 -6.65832e-13 2.34558e-11)
(-8.50432e-12 -6.21849e-13 1.26655e-11)
(-3.37546e-12 3.87979e-12 4.24749e-12)
(-1.46225e-13 5.93664e-13 -1.34508e-13)
(2.06166e-12 2.98275e-12 -1.63614e-12)
(6.99752e-13 -2.61396e-12 -1.50008e-12)
(4.25694e-12 -8.21378e-12 -1.40333e-12)
(5.62808e-12 -7.95034e-12 7.03923e-13)
(6.76549e-12 -9.60324e-12 6.99065e-13)
(9.37902e-12 -1.69306e-11 2.16282e-12)
(1.53248e-11 -1.14992e-11 4.98877e-12)
(2.31458e-11 8.88021e-13 1.09566e-11)
(2.35199e-11 9.69641e-12 1.82444e-11)
(1.45013e-11 1.11217e-11 2.20947e-11)
(1.29346e-11 1.47512e-11 2.5323e-11)
(1.23351e-11 2.14817e-11 2.34755e-11)
(6.38512e-12 2.05364e-11 2.13192e-11)
(3.07588e-12 2.07376e-11 2.00708e-11)
(3.58889e-12 1.98322e-11 1.80189e-11)
(3.07049e-12 1.8787e-11 1.63518e-11)
(1.33416e-12 1.18055e-11 1.65018e-11)
(-3.99621e-12 7.32724e-12 1.52607e-11)
(-1.75613e-12 6.20281e-13 1.41638e-11)
(-2.2548e-12 -8.38912e-12 7.05507e-12)
(5.56653e-12 -1.518e-11 2.93802e-12)
(1.47766e-11 -9.80852e-12 -1.48374e-12)
(1.90835e-11 -9.64285e-12 -3.04639e-12)
(2.0655e-11 -8.81532e-12 -3.20309e-12)
(1.83365e-11 -1.07979e-11 -6.11953e-12)
(1.58332e-11 -1.59158e-11 -2.45959e-11)
(2.56564e-11 -3.02457e-11 -3.78139e-11)
(3.56203e-11 -3.3019e-11 -5.13274e-11)
(4.65605e-11 -4.22651e-11 -4.77979e-11)
(6.29622e-11 -4.19331e-11 -4.6887e-11)
(367.892 10.5977 0.36723)
(335.599 -40.4922 4.67592)
(284.891 -74.8958 5.34189)
(233.838 -90.0459 5.60658)
(189.061 -91.1573 6.01458)
(152.442 -81.6781 6.22765)
(122.657 -68.822 6.13616)
(98.5967 -58.193 6.06661)
(78.9379 -47.2787 6.18387)
(62.993 -36.4983 5.93835)
(49.9208 -27.4613 5.54629)
(40.1305 -19.5725 5.18869)
(32.6887 -13.3627 4.98011)
(27.6446 -8.52207 4.95073)
(24.6058 -5.3344 4.61909)
(23.0488 -3.73899 4.19384)
(22.7515 -2.71838 3.75384)
(23.4299 -1.85723 3.37266)
(24.4495 -1.0552 2.93968)
(25.4174 -0.0897648 2.39494)
(25.9639 1.08441 1.70032)
(25.9899 2.45017 1.11512)
(25.0852 3.61504 0.697185)
(23.597 4.45895 0.379442)
(21.8269 4.88409 0.144291)
(19.9054 4.81759 -0.0221516)
(18.0969 4.35025 0.154514)
(16.4802 3.76606 0.32469)
(14.9932 3.26324 0.387518)
(13.7297 2.38818 0.391139)
(12.8087 0.960909 0.447881)
(12.1636 -0.840407 0.492312)
(11.6917 -2.59589 0.474631)
(11.6552 -4.11789 0.3553)
(11.4963 -5.29084 0.526107)
(10.8587 -6.1851 0.627108)
(9.67255 -7.00886 0.696102)
(8.47322 -8.46676 0.777462)
(6.92983 -9.75102 0.848368)
(5.1724 -11.0428 0.906135)
(3.2291 -12.3663 1.0453)
(2.04341 -14.0751 1.08507)
(0.435901 -14.9509 1.10366)
(0.123026 -16.4487 1.12519)
(-0.198066 -17.3828 1.07963)
(1.59144 -18.6033 1.10439)
(5.15421 -16.5187 0.962635)
(6.94108 -12.2767 0.67108)
(6.82927 -7.96714 0.419192)
(5.44383 -4.92653 0.256492)
(4.13695 -3.04459 0.164075)
(2.99784 -2.0096 0.1148)
(2.13736 -1.37658 0.0810924)
(1.50937 -0.989335 0.0588892)
(1.10523 -0.753204 0.043476)
(0.863251 -0.616814 0.0334695)
(0.712688 -0.534324 0.0267869)
(0.672909 -0.48565 0.0219392)
(0.699995 -0.461007 0.0193545)
(0.720927 -0.430788 0.016826)
(0.71962 -0.398152 0.0146396)
(0.716174 -0.363721 0.0126414)
(0.729433 -0.331125 0.0108869)
(0.753269 -0.297122 0.0091648)
(0.764166 -0.254933 0.00706044)
(0.732752 -0.208065 0.00480675)
(0.672162 -0.15521 0.0026166)
(0.549907 -0.104258 0.000776291)
(0.340406 -0.05225 -0.000864723)
(0.0808198 -0.00822287 -0.00205165)
(-0.10507 0.0171163 -0.00273969)
(-0.152993 0.0238973 -0.00277612)
(-0.145513 0.0249162 -0.00264452)
(-0.126102 0.025382 -0.00250792)
(-0.106447 0.0273293 -0.00247487)
(-0.100975 0.0321505 -0.00256624)
(-0.117997 0.0383431 -0.00273803)
(-0.17437 0.0471339 -0.00300394)
(-0.271546 0.0560952 -0.00322217)
(-0.347891 0.0595466 -0.0031903)
(-0.359942 0.0536005 -0.00280159)
(-0.340121 0.0439579 -0.00223849)
(-0.28676 0.0323828 -0.00159232)
(-0.190071 0.0193574 -0.000914378)
(-0.0821157 0.00790754 -0.000359395)
(-0.0173033 0.00166992 -7.36219e-05)
(-0.00121084 0.000121453 -5.23921e-06)
(-1.85695e-05 1.94721e-06 -8.26313e-08)
(-4.2635e-08 4.66435e-09 -1.94987e-10)
(-1.13006e-11 3.47336e-11 -5.68905e-12)
(5.56136e-13 2.96753e-11 -1.28643e-13)
(-5.86365e-13 3.01337e-11 1.33524e-12)
(-1.19288e-12 3.63471e-11 4.85567e-12)
(1.48634e-13 3.44621e-11 8.07415e-12)
(-7.0563e-13 3.39459e-11 1.04433e-11)
(-4.84079e-12 3.44142e-11 1.08915e-11)
(-7.66708e-12 3.40461e-11 9.92061e-12)
(-8.95612e-12 2.76578e-11 7.63692e-12)
(-7.32999e-12 2.45055e-11 5.79683e-12)
(-8.48418e-12 2.26171e-11 7.38457e-12)
(-1.16131e-11 1.77877e-11 5.33993e-12)
(-1.19257e-11 1.34001e-11 5.04234e-12)
(-1.10481e-11 1.1318e-11 6.84628e-12)
(-1.2504e-11 7.18622e-12 5.03233e-12)
(-1.57712e-11 6.23352e-12 3.92047e-12)
(-1.73004e-11 8.72583e-13 5.84821e-12)
(-1.61626e-11 -4.52571e-14 1.19494e-11)
(-1.2991e-11 -4.82233e-12 1.77046e-11)
(-1.14158e-11 -6.24143e-12 1.70532e-11)
(-7.95074e-12 -3.88035e-12 1.62173e-11)
(-7.15374e-12 2.72307e-12 1.25231e-11)
(-7.4082e-12 6.20089e-13 2.04612e-12)
(-3.01167e-12 3.54242e-12 -4.77486e-12)
(2.01516e-13 1.43874e-12 -9.45773e-12)
(2.95837e-12 3.08476e-12 -1.12449e-11)
(2.83361e-12 -2.43044e-12 -1.0257e-11)
(3.85218e-12 -5.49357e-12 -1.22728e-11)
(5.87927e-12 -5.51792e-12 -1.23302e-11)
(8.37445e-12 -7.62521e-12 -9.62064e-12)
(1.04916e-11 -1.26711e-11 -5.88855e-12)
(1.23873e-11 -7.0779e-12 -1.07922e-12)
(2.11351e-11 9.11573e-13 6.19478e-12)
(2.15118e-11 1.30034e-11 1.22777e-11)
(1.47802e-11 1.68827e-11 1.61867e-11)
(1.11393e-11 1.41739e-11 1.62698e-11)
(9.19463e-12 2.1294e-11 1.53084e-11)
(5.78433e-12 2.32228e-11 1.41169e-11)
(4.11273e-12 2.57935e-11 1.2258e-11)
(4.07298e-12 2.02554e-11 9.77541e-12)
(5.5232e-12 1.83967e-11 6.87143e-12)
(4.84952e-12 1.27247e-11 7.79481e-12)
(-1.1644e-12 4.55304e-12 6.95517e-12)
(2.9493e-13 2.57308e-12 5.41858e-12)
(-1.64598e-13 -4.95003e-12 4.48182e-12)
(6.19536e-12 -1.14682e-11 1.9782e-12)
(1.57273e-11 -9.99911e-12 -2.97107e-12)
(1.96068e-11 -9.26698e-12 -7.11097e-13)
(1.92192e-11 -9.1483e-12 4.42575e-13)
(1.78593e-11 -7.07228e-12 -7.83792e-12)
(1.84674e-11 -1.30443e-11 -2.24342e-11)
(2.27938e-11 -2.27625e-11 -3.36993e-11)
(3.41813e-11 -2.6626e-11 -4.28589e-11)
(4.35392e-11 -3.45525e-11 -3.81785e-11)
(5.75435e-11 -3.68241e-11 -3.78626e-11)
(223.894 60.6582 4.80699)
(225.041 -18.2284 4.28795)
(206.417 -69.6805 5.78884)
(184.534 -94.5473 6.29813)
(151.435 -101.877 6.18221)
(125.327 -99.2356 5.66656)
(104.068 -92.8897 5.1844)
(85.4733 -82.0813 5.01612)
(69.9422 -67.3872 4.80813)
(56.7062 -53.9259 4.47526)
(45.4338 -42.7739 4.29811)
(35.9449 -33.2152 4.0979)
(28.6332 -24.7952 3.78571)
(22.6808 -17.9862 3.42198)
(18.3565 -12.2689 3.04791)
(15.0436 -7.97333 2.83592)
(13.0412 -4.94418 2.61707)
(12.0189 -3.01605 2.40499)
(11.7167 -1.69106 2.32279)
(11.7741 -0.752813 2.14831)
(11.9861 0.0571725 1.96445)
(12.0587 0.918804 1.65557)
(11.8605 1.82185 1.19934)
(11.254 2.64664 0.817088)
(10.2936 3.14407 0.523934)
(9.12991 3.39567 0.330685)
(7.93095 3.40843 0.124613)
(6.72271 3.4082 0.119115)
(5.51326 3.23155 0.158241)
(4.32662 2.87379 0.223392)
(3.16307 2.22235 0.294737)
(2.16067 1.14179 0.386228)
(1.4435 -0.0661561 0.488226)
(0.964102 -1.37055 0.486682)
(0.861232 -2.80527 0.50052)
(0.728317 -4.19323 0.599547)
(0.519106 -5.50339 0.676139)
(0.092319 -6.73138 0.682337)
(-0.18429 -8.1378 0.747886)
(-0.541215 -9.53897 0.832555)
(-0.815016 -10.8251 0.883087)
(-1.32761 -11.8084 0.979115)
(-1.3606 -12.744 1.01979)
(-1.61591 -13.3163 0.977121)
(-1.38594 -14.046 0.995372)
(-0.955376 -14.6988 0.875478)
(0.794368 -15.1573 0.86029)
(3.46053 -13.437 0.742838)
(5.03292 -10.3907 0.546419)
(5.38101 -7.17505 0.368726)
(4.62151 -4.6813 0.240066)
(3.66006 -3.00156 0.160253)
(2.69623 -2.00897 0.113064)
(1.93693 -1.38073 0.0804549)
(1.37771 -0.993445 0.058569)
(1.02201 -0.755389 0.0434797)
(0.807015 -0.616105 0.0336891)
(0.677559 -0.533908 0.0272007)
(0.651897 -0.489067 0.0225945)
(0.6807 -0.466335 0.0200575)
(0.70047 -0.437714 0.0175607)
(0.699628 -0.40586 0.0153575)
(0.698063 -0.372269 0.0133353)
(0.71235 -0.34086 0.0115741)
(0.735101 -0.307526 0.00983747)
(0.743735 -0.266067 0.00772142)
(0.711027 -0.219088 0.00539392)
(0.650695 -0.166086 0.00308165)
(0.527156 -0.113119 0.00109112)
(0.318302 -0.0576927 -0.000718228)
(0.0649162 -0.0101151 -0.00203811)
(-0.110789 0.017337 -0.00277535)
(-0.153817 0.0245976 -0.00282554)
(-0.145719 0.0255041 -0.0026894)
(-0.126187 0.025599 -0.00254633)
(-0.107658 0.0270323 -0.00249519)
(-0.102749 0.0316213 -0.00258527)
(-0.120668 0.0380828 -0.00277488)
(-0.178083 0.0477052 -0.00307673)
(-0.274631 0.0578152 -0.00333645)
(-0.347055 0.0622433 -0.00333665)
(-0.356397 0.0568138 -0.00296651)
(-0.336069 0.0472512 -0.00239589)
(-0.28138 0.035262 -0.00172173)
(-0.184337 0.0211931 -0.000992216)
(-0.0781246 0.00862967 -0.000388613)
(-0.0159817 0.00179227 -7.83511e-05)
(-0.00107277 0.000126148 -5.40121e-06)
(-1.56039e-05 1.92896e-06 -8.12876e-08)
(-3.3669e-08 4.34895e-09 -1.7967e-10)
(-7.47128e-12 3.42542e-11 -8.15773e-12)
(1.12196e-12 3.25234e-11 1.4899e-12)
(-2.27641e-12 3.07814e-11 2.24712e-12)
(-2.07617e-12 3.69521e-11 5.79729e-12)
(9.27682e-13 3.71032e-11 1.01056e-11)
(-7.46024e-13 3.34502e-11 1.46387e-11)
(-3.45957e-12 3.67408e-11 1.8835e-11)
(-5.59562e-12 3.6311e-11 1.48875e-11)
(-6.03707e-12 2.97316e-11 1.2081e-11)
(-7.31295e-12 2.5848e-11 7.95656e-12)
(-7.64476e-12 2.15296e-11 1.24797e-11)
(-1.0201e-11 1.68127e-11 1.00801e-11)
(-1.15712e-11 1.68811e-11 7.32305e-12)
(-1.10369e-11 1.63388e-11 8.1809e-12)
(-1.28889e-11 1.15756e-11 7.09181e-12)
(-1.49329e-11 1.09621e-11 5.52677e-12)
(-1.63809e-11 6.5838e-12 1.05801e-11)
(-1.51321e-11 2.8759e-12 1.44077e-11)
(-1.20936e-11 2.50368e-13 1.40911e-11)
(-1.08881e-11 2.27362e-12 1.04374e-11)
(-1.07714e-11 -1.34219e-12 6.89111e-12)
(-1.06405e-11 8.65154e-12 1.49881e-12)
(-7.16392e-12 7.34237e-12 -4.94581e-12)
(-3.46497e-12 9.65263e-12 -9.21054e-12)
(6.07245e-14 1.06576e-11 -1.30486e-11)
(4.06567e-12 9.61762e-12 -1.52613e-11)
(4.39874e-12 4.29547e-12 -1.36314e-11)
(4.5331e-12 1.80421e-12 -1.90353e-11)
(7.59045e-12 1.68879e-12 -2.40757e-11)
(1.0065e-11 -2.03983e-12 -1.6545e-11)
(1.12406e-11 -3.82429e-12 -9.582e-12)
(1.19596e-11 -2.03574e-13 -2.17465e-12)
(1.92078e-11 5.2177e-12 4.22545e-12)
(1.8494e-11 1.47148e-11 1.02804e-11)
(1.41421e-11 1.80413e-11 1.33799e-11)
(9.85281e-12 1.58342e-11 1.30319e-11)
(8.36794e-12 2.33668e-11 1.26723e-11)
(5.43512e-12 1.97505e-11 1.24745e-11)
(4.39206e-12 2.56762e-11 8.97645e-12)
(6.02814e-12 2.18281e-11 6.49492e-12)
(6.07051e-12 2.14611e-11 3.19602e-12)
(6.77707e-12 1.21285e-11 2.19898e-12)
(-1.68454e-13 9.43102e-12 1.60416e-12)
(1.92714e-13 8.02655e-12 2.08894e-12)
(1.75274e-12 -4.75389e-13 3.32032e-12)
(7.14463e-12 -4.20284e-12 8.37139e-13)
(1.55527e-11 -3.3018e-12 -2.48427e-12)
(1.88571e-11 -1.27503e-12 -4.64029e-13)
(1.89686e-11 -3.5668e-12 1.24143e-12)
(1.85026e-11 -1.25494e-12 -8.48468e-12)
(1.93119e-11 -5.12106e-12 -2.26025e-11)
(2.30949e-11 -1.17492e-11 -2.98966e-11)
(3.29856e-11 -1.69395e-11 -3.47712e-11)
(4.24495e-11 -2.08939e-11 -3.10915e-11)
(5.42587e-11 -2.8325e-11 -3.00878e-11)
(29.819 101.267 1.74298)
(35.8823 22.9446 4.24461)
(39.7261 -46.3009 4.74915)
(59.0894 -90.3659 5.18976)
(59.6681 -106.895 5.11197)
(58.1117 -101.132 4.6047)
(53.9735 -90.4659 4.16962)
(48.1724 -77.9184 3.85437)
(41.7841 -65.6189 3.60116)
(35.1228 -54.4222 3.37614)
(29.0303 -44.0614 3.10869)
(23.5901 -34.9682 2.8348)
(19.2563 -27.095 2.54773)
(15.5244 -20.663 2.26068)
(12.8828 -15.2315 1.97236)
(10.5768 -10.9957 1.73749)
(9.12315 -7.51794 1.47565)
(8.00976 -4.8632 1.24732)
(7.39332 -2.83813 1.13769)
(7.05919 -1.30375 1.14783)
(6.90954 -0.111896 1.21238)
(6.70685 0.897846 1.17882)
(6.33776 1.76557 1.04501)
(5.71993 2.40905 0.856247)
(4.97919 2.75693 0.648449)
(4.03838 2.77762 0.509388)
(3.12549 2.61542 0.356333)
(2.20701 2.47818 0.26295)
(1.28389 2.25039 0.243175)
(0.357945 1.90998 0.292582)
(-0.601065 1.43602 0.327114)
(-1.49367 0.743289 0.39557)
(-2.12782 -0.267962 0.489711)
(-2.51923 -1.42735 0.522963)
(-2.67266 -2.55302 0.547389)
(-2.81105 -3.62622 0.57593)
(-2.86118 -4.74268 0.616538)
(-2.9735 -5.90835 0.636394)
(-3.01646 -7.14998 0.695826)
(-2.99791 -8.35558 0.768664)
(-2.86159 -9.41043 0.811948)
(-2.71863 -10.2331 0.850509)
(-2.4326 -10.9239 0.883308)
(-1.93254 -11.4133 0.846694)
(-1.33837 -11.9016 0.814322)
(-0.652337 -12.3465 0.744638)
(0.857638 -12.4373 0.713718)
(2.7885 -10.9782 0.610598)
(3.90865 -8.66883 0.453813)
(4.24932 -6.28954 0.31924)
(3.83485 -4.34415 0.221176)
(3.15258 -2.91827 0.154809)
(2.3777 -1.98761 0.110071)
(1.72871 -1.36786 0.0786197)
(1.24158 -0.985323 0.057418)
(0.936193 -0.753472 0.0431876)
(0.748097 -0.619108 0.0338934)
(0.641783 -0.53793 0.0276328)
(0.631935 -0.495795 0.0232584)
(0.662983 -0.473194 0.0206814)
(0.682238 -0.445286 0.0181815)
(0.681858 -0.413621 0.01596)
(0.681602 -0.380063 0.0139187)
(0.696236 -0.348715 0.0121422)
(0.71749 -0.315621 0.0103838)
(0.723236 -0.274295 0.00824895)
(0.689145 -0.226977 0.00585106)
(0.628287 -0.174089 0.00343754)
(0.502673 -0.119385 0.00131557)
(0.294014 -0.0611518 -0.000633065)
(0.0474088 -0.0107638 -0.00204453)
(-0.116786 0.0182175 -0.0028278)
(-0.15436 0.0255439 -0.00287782)
(-0.145595 0.0263034 -0.00273392)
(-0.12588 0.0261395 -0.0025781)
(-0.108655 0.0273364 -0.0025306)
(-0.104539 0.0318559 -0.0026264)
(-0.123778 0.0384877 -0.00283458)
(-0.182735 0.0488136 -0.00317235)
(-0.278483 0.059988 -0.00347014)
(-0.346254 0.0649385 -0.00347682)
(-0.352724 0.0596846 -0.00311239)
(-0.33171 0.0500872 -0.00252972)
(-0.27542 0.0376964 -0.00182935)
(-0.177854 0.0226755 -0.00105377)
(-0.0736006 0.00914853 -0.000408971)
(-0.0145109 0.00185268 -8.04708e-05)
(-0.00092489 0.000124763 -5.31125e-06)
(-1.25968e-05 1.79432e-06 -7.51809e-08)
(-2.51698e-08 3.7493e-09 -1.53018e-10)
(-4.63569e-12 3.20329e-11 -8.75204e-12)
(2.45911e-12 3.35322e-11 -3.91829e-13)
(-2.85532e-12 3.18344e-11 3.41351e-12)
(-3.48324e-12 3.21306e-11 7.5045e-12)
(2.3034e-12 3.50582e-11 1.0102e-11)
(-5.66358e-13 3.63029e-11 1.61239e-11)
(-4.92671e-12 3.66453e-11 2.53115e-11)
(-5.01072e-12 3.14905e-11 1.88732e-11)
(-5.53054e-12 2.87171e-11 1.64095e-11)
(-5.85241e-12 2.53295e-11 6.88257e-12)
(-4.92274e-12 2.21237e-11 1.37459e-11)
(-1.03491e-11 2.08038e-11 1.26507e-11)
(-1.31593e-11 1.74062e-11 8.50902e-12)
(-1.0435e-11 1.61015e-11 1.07153e-11)
(-1.13833e-11 1.48275e-11 7.67465e-12)
(-1.43711e-11 1.17666e-11 6.51515e-12)
(-1.46104e-11 8.14359e-12 1.35704e-11)
(-1.45529e-11 2.95968e-12 1.47657e-11)
(-1.36898e-11 1.28649e-12 8.04806e-12)
(-1.10815e-11 5.48422e-12 2.9233e-12)
(-1.34044e-11 3.89914e-12 -1.11427e-12)
(-1.44192e-11 4.53925e-12 -1.00088e-11)
(-9.00396e-12 8.77206e-13 -1.18858e-11)
(-5.55122e-12 5.1698e-12 -1.51555e-11)
(3.47433e-13 5.31714e-12 -1.77519e-11)
(6.44203e-12 6.13073e-12 -2.02276e-11)
(7.05625e-12 5.49306e-12 -1.33894e-11)
(5.853e-12 3.82525e-12 -2.23096e-11)
(8.67102e-12 3.34765e-12 -3.09234e-11)
(1.15338e-11 9.12855e-13 -1.87314e-11)