/*--------------------------------*- C++ -*----------------------------------*\
| =========                 |                                                 |
| \\      /  F ield         | OpenFOAM: The Open Source CFD Toolbox           |
|  \\    /   O peration     | Version:  2406                                  |
|   \\  /    A nd           | Website:  www.openfoam.com                      |
|    \\/     M anipulation  |                                                 |
\*---------------------------------------------------------------------------*/
FoamFile
{
    version     2.0;
    format      ascii;
    arch        "LSB;label=32;scalar=64";
    class       volScalarField;
    location    "0.06";
    object      Ma;
}
// * * * * * * * * * * * * * * * * * * * * * * * * * * * * * * * * * * * * * //

dimensions      [0 0 0 0 0 0 0];

internalField   nonuniform List<scalar> 
14020
(
0.766724
0.766707
0.766651
0.766551
0.766429
0.766323
0.766284
0.766287
0.766316
0.766373
0.766436
0.766456
0.766452
0.766429
0.766375
0.766303
0.766263
0.766259
0.766269
0.766301
0.766354
0.766401
0.766411
0.766408
0.76639
0.76635
0.766297
0.766254
0.766242
0.766245
0.76626
0.766292
0.766333
0.766357
0.766363
0.766361
0.76635
0.766327
0.766302
0.766291
0.766291
0.766296
0.766309
0.766324
0.76633
0.766329
0.766324
0.76631
0.766288
0.766267
0.766262
0.766267
0.766277
0.766296
0.766322
0.766348
0.766366
0.766373
0.766373
0.766368
0.766366
0.766368
0.766376
0.766393
0.766419
0.766457
0.766504
0.766552
0.766598
0.766633
0.766638
0.766631
0.766622
0.766617
0.766614
0.766609
0.766601
0.766588
0.766568
0.766539
0.766504
0.766464
0.766424
0.766389
0.766359
0.766345
0.766344
0.766345
0.766348
0.766349
0.766348
0.766345
0.766337
0.766325
0.766313
0.766308
0.766308
0.76631
0.766313
0.766319
0.766322
0.766323
0.766322
0.766318
0.76631
0.7663
0.76629
0.766286
0.766286
0.766286
0.766286
0.766286
0.766286
0.766285
0.766282
0.766278
0.766275
0.766275
0.766275
0.766278
0.766282
0.766288
0.766296
0.7663
0.766301
0.7663
0.766299
0.766296
0.766292
0.766288
0.766284
0.766281
0.766279
0.766277
0.766276
0.766273
0.766269
0.766264
0.766256
0.766248
0.766242
0.76624
0.76624
0.76624
0.766241
0.766241
0.76624
0.766239
0.766237
0.766233
0.766228
0.766223
0.766218
0.766215
0.766213
0.766211
0.76621
0.766208
0.766205
0.766201
0.766194
0.766186
0.766176
0.766165
0.766156
0.766148
0.766142
0.766137
0.766133
0.766129
0.766124
0.766118
0.766112
0.766106
0.766102
0.766101
0.7661
0.766099
0.766099
0.766098
0.766097
0.766095
0.766093
0.766089
0.766084
0.766079
0.766073
0.766068
0.766064
0.76606
0.766056
0.766051
0.766046
0.76604
0.766033
0.766024
0.766015
0.766006
0.765997
0.765991
0.765986
0.765984
0.765982
0.765977
0.765965
0.765947
0.765917
0.765885
0.765863
0.765944
0.766785
0.769979
0.776299
0.784923
0.794888
0.805511
0.816626
0.827962
0.83961
0.85136
0.863366
0.875415
0.88769
0.899952
0.912426
0.924836
0.937457
0.949978
0.962858
0.976711
0.999736
0.766723
0.766706
0.76665
0.76655
0.766429
0.766323
0.766284
0.766287
0.766315
0.766372
0.766436
0.766455
0.766451
0.766429
0.766375
0.766302
0.766263
0.766259
0.766268
0.7663
0.766354
0.766401
0.766411
0.766408
0.766389
0.76635
0.766297
0.766254
0.766241
0.766244
0.766259
0.766292
0.766333
0.766357
0.766362
0.76636
0.76635
0.766327
0.766302
0.766291
0.766291
0.766295
0.766308
0.766324
0.76633
0.766329
0.766323
0.766309
0.766287
0.766266
0.766262
0.766267
0.766278
0.766298
0.766324
0.76635
0.766369
0.766376
0.766376
0.766371
0.766369
0.76637
0.766378
0.766393
0.766419
0.766456
0.766502
0.76655
0.766596
0.766632
0.766636
0.76663
0.766621
0.766616
0.766613
0.766609
0.766601
0.766588
0.766568
0.76654
0.766504
0.766464
0.766425
0.766389
0.76636
0.766345
0.766344
0.766345
0.766348
0.76635
0.766349
0.766345
0.766337
0.766325
0.766313
0.766308
0.766308
0.76631
0.766313
0.766319
0.766322
0.766323
0.766322
0.766318
0.76631
0.7663
0.76629
0.766286
0.766286
0.766286
0.766286
0.766286
0.766286
0.766285
0.766282
0.766278
0.766275
0.766275
0.766275
0.766278
0.766282
0.766288
0.766296
0.7663
0.766301
0.766301
0.766299
0.766296
0.766292
0.766288
0.766284
0.766281
0.766279
0.766277
0.766276
0.766273
0.766269
0.766264
0.766256
0.766248
0.766242
0.76624
0.76624
0.76624
0.766241
0.766241
0.76624
0.766239
0.766237
0.766233
0.766228
0.766223
0.766218
0.766215
0.766213
0.766211
0.76621
0.766208
0.766205
0.766201
0.766194
0.766186
0.766176
0.766165
0.766156
0.766148
0.766142
0.766137
0.766133
0.766129
0.766124
0.766118
0.766112
0.766106
0.766103
0.766101
0.7661
0.766099
0.766099
0.766098
0.766097
0.766096
0.766093
0.766089
0.766084
0.766079
0.766073
0.766068
0.766064
0.76606
0.766056
0.766052
0.766047
0.76604
0.766033
0.766024
0.766015
0.766006
0.765997
0.765991
0.765986
0.765984
0.765982
0.765977
0.765965
0.765947
0.765917
0.765885
0.765863
0.765944
0.766785
0.769979
0.776298
0.78492
0.794887
0.805507
0.816627
0.827962
0.839617
0.851362
0.86337
0.875412
0.887689
0.899946
0.91242
0.924827
0.937456
0.949977
0.962882
0.976777
0.999692
0.766721
0.766704
0.766648
0.766549
0.766428
0.766322
0.766283
0.766286
0.766315
0.766372
0.766435
0.766454
0.766451
0.766428
0.766374
0.766301
0.766262
0.766258
0.766267
0.766299
0.766353
0.7664
0.76641
0.766407
0.766389
0.766349
0.766296
0.766253
0.766241
0.766244
0.766258
0.766291
0.766332
0.766356
0.766362
0.76636
0.766349
0.766326
0.766301
0.76629
0.76629
0.766294
0.766306
0.766321
0.766327
0.766326
0.766321
0.766307
0.766285
0.766265
0.766262
0.766268
0.766281
0.766302
0.766329
0.766357
0.766377
0.766386
0.766386
0.76638
0.766376
0.766377
0.766382
0.766396
0.766421
0.766455
0.7665
0.766547
0.766593
0.766629
0.766633
0.766627
0.766618
0.766614
0.766611
0.766607
0.7666
0.766587
0.766568
0.76654
0.766505
0.766465
0.766425
0.76639
0.76636
0.766346
0.766345
0.766346
0.766349
0.76635
0.766349
0.766345
0.766337
0.766325
0.766313
0.766308
0.766308
0.76631
0.766313
0.766319
0.766322
0.766323
0.766322
0.766318
0.76631
0.7663
0.76629
0.766286
0.766286
0.766286
0.766286
0.766286
0.766286
0.766285
0.766282
0.766278
0.766275
0.766275
0.766275
0.766278
0.766282
0.766288
0.766296
0.7663
0.766301
0.766301
0.766299
0.766296
0.766292
0.766288
0.766284
0.766281
0.766279
0.766277
0.766276
0.766273
0.766269
0.766264
0.766257
0.766248
0.766242
0.76624
0.76624
0.76624
0.766241
0.766241
0.76624
0.766239
0.766237
0.766233
0.766228
0.766223
0.766218
0.766215
0.766213
0.766211
0.76621
0.766208
0.766205
0.766201
0.766194
0.766186
0.766176
0.766165
0.766156
0.766148
0.766142
0.766137
0.766133
0.766129
0.766124
0.766118
0.766112
0.766106
0.766103
0.766101
0.7661
0.766099
0.766099
0.766098
0.766097
0.766096
0.766093
0.766089
0.766084
0.766079
0.766074
0.766068
0.766064
0.76606
0.766056
0.766052
0.766047
0.76604
0.766033
0.766024
0.766015
0.766006
0.765998
0.765991
0.765986
0.765984
0.765982
0.765977
0.765965
0.765947
0.765917
0.765885
0.765863
0.765945
0.766785
0.769979
0.776297
0.784916
0.794884
0.805501
0.816629
0.827963
0.839625
0.851367
0.863375
0.87541
0.887687
0.89994
0.912413
0.924817
0.937457
0.949981
0.962927
0.976889
0.999594
0.766718
0.766701
0.766645
0.766546
0.766425
0.76632
0.766281
0.766285
0.766313
0.76637
0.766433
0.766453
0.766449
0.766427
0.766372
0.7663
0.76626
0.766256
0.766266
0.766298
0.766351
0.766398
0.766409
0.766405
0.766387
0.766348
0.766295
0.766252
0.766239
0.766243
0.766257
0.76629
0.766331
0.766355
0.766361
0.766359
0.766348
0.766325
0.766299
0.766288
0.766288
0.766292
0.766303
0.766318
0.766323
0.766321
0.766316
0.766302
0.766281
0.766262
0.766262
0.76627
0.766286
0.76631
0.766341
0.766371
0.766394
0.766405
0.766406
0.7664
0.766393
0.766391
0.766394
0.766404
0.766425
0.766456
0.766497
0.766542
0.766588
0.766623
0.766627
0.766621
0.766613
0.766609
0.766607
0.766604
0.766598
0.766586
0.766567
0.76654
0.766505
0.766466
0.766427
0.766391
0.766362
0.766348
0.766346
0.766347
0.76635
0.766351
0.76635
0.766346
0.766337
0.766325
0.766313
0.766308
0.766308
0.766309
0.766313
0.766318
0.766322
0.766323
0.766322
0.766318
0.76631
0.7663
0.76629
0.766286
0.766286
0.766286
0.766286
0.766286
0.766286
0.766285
0.766282
0.766278
0.766275
0.766275
0.766275
0.766278
0.766282
0.766288
0.766296
0.7663
0.766301
0.766301
0.766299
0.766296
0.766292
0.766288
0.766284
0.766281
0.766279
0.766277
0.766276
0.766273
0.766269
0.766264
0.766257
0.766248
0.766242
0.76624
0.76624
0.76624
0.766241
0.766241
0.76624
0.766239
0.766237
0.766233
0.766228
0.766223
0.766218
0.766215
0.766213
0.766211
0.76621
0.766208
0.766205
0.766201
0.766194
0.766186
0.766176
0.766166
0.766156
0.766148
0.766142
0.766138
0.766133
0.766129
0.766124
0.766118
0.766112
0.766106
0.766103
0.766101
0.7661
0.766099
0.766099
0.766098
0.766097
0.766096
0.766093
0.766089
0.766084
0.766079
0.766074
0.766068
0.766064
0.76606
0.766056
0.766052
0.766047
0.76604
0.766033
0.766024
0.766015
0.766006
0.765998
0.765991
0.765986
0.765984
0.765982
0.765977
0.765965
0.765947
0.765917
0.765885
0.765863
0.765945
0.766786
0.76998
0.776296
0.784911
0.79488
0.805497
0.816632
0.827967
0.839634
0.851371
0.863377
0.875406
0.887679
0.899928
0.912405
0.924806
0.937457
0.949993
0.962987
0.977003
0.999451
0.766714
0.766697
0.766641
0.766542
0.766422
0.766316
0.766278
0.766281
0.76631
0.766367
0.766431
0.76645
0.766446
0.766424
0.76637
0.766297
0.766258
0.766254
0.766264
0.766296
0.766349
0.766396
0.766407
0.766403
0.766385
0.766346
0.766293
0.76625
0.766238
0.766241
0.766255
0.766288
0.766329
0.766354
0.766359
0.766358
0.766347
0.766324
0.766298
0.766286
0.766285
0.766288
0.766299
0.766312
0.766316
0.766314
0.766308
0.766295
0.766274
0.766258
0.766261
0.766273
0.766293
0.766322
0.766359
0.766393
0.766421
0.766435
0.766436
0.76643
0.76642
0.766414
0.766412
0.766417
0.766432
0.766458
0.766495
0.766538
0.766581
0.766616
0.766621
0.766614
0.766606
0.766603
0.766602
0.766601
0.766596
0.766585
0.766567
0.766541
0.766507
0.766468
0.766429
0.766394
0.766364
0.76635
0.766348
0.766349
0.766351
0.766352
0.766351
0.766346
0.766338
0.766325
0.766313
0.766307
0.766307
0.766309
0.766313
0.766318
0.766322
0.766323
0.766322
0.766318
0.76631
0.7663
0.76629
0.766286
0.766286
0.766286
0.766286
0.766286
0.766286
0.766285
0.766282
0.766278
0.766275
0.766275
0.766275
0.766278
0.766282
0.766288
0.766296
0.7663
0.766301
0.766301
0.766299
0.766297
0.766292
0.766288
0.766284
0.766281
0.766279
0.766277
0.766276
0.766273
0.766269
0.766264
0.766257
0.766248
0.766242
0.76624
0.76624
0.76624
0.766241
0.766241
0.76624
0.766239
0.766237
0.766233
0.766228
0.766223
0.766218
0.766215
0.766213
0.766211
0.76621
0.766208
0.766205
0.766201
0.766194
0.766186
0.766176
0.766166
0.766156
0.766148
0.766142
0.766138
0.766133
0.766129
0.766124
0.766118
0.766112
0.766106
0.766103
0.766101
0.7661
0.766099
0.766099
0.766098
0.766097
0.766096
0.766093
0.766089
0.766085
0.766079
0.766074
0.766068
0.766064
0.76606
0.766056
0.766052
0.766047
0.76604
0.766033
0.766025
0.766015
0.766006
0.765998
0.765991
0.765986
0.765984
0.765982
0.765977
0.765965
0.765947
0.765917
0.765885
0.765863
0.765945
0.766786
0.769981
0.776295
0.784906
0.794875
0.805493
0.816635
0.827974
0.839645
0.851377
0.863378
0.875402
0.887668
0.899913
0.912395
0.924794
0.937457
0.950008
0.963049
0.977109
0.999296
0.76671
0.766693
0.766637
0.766538
0.766417
0.766312
0.766274
0.766277
0.766306
0.766363
0.766427
0.766447
0.766443
0.766421
0.766367
0.766295
0.766255
0.766252
0.766261
0.766293
0.766346
0.766394
0.766405
0.766401
0.766383
0.766344
0.766291
0.766248
0.766235
0.766239
0.766253
0.766286
0.766327
0.766352
0.766358
0.766356
0.766345
0.766322
0.766295
0.766283
0.766281
0.766284
0.766293
0.766305
0.766308
0.766305
0.766299
0.766286
0.766266
0.766253
0.766259
0.766274
0.7663
0.766337
0.76638
0.766421
0.766453
0.766471
0.766474
0.766467
0.766453
0.766442
0.766435
0.766433
0.766442
0.766462
0.766495
0.766534
0.766574
0.766609
0.766614
0.766608
0.766601
0.766599
0.766599
0.766598
0.766594
0.766584
0.766567
0.766541
0.766508
0.766469
0.766431
0.766396
0.766367
0.766352
0.76635
0.766351
0.766353
0.766353
0.766351
0.766347
0.766338
0.766325
0.766313
0.766307
0.766307
0.766309
0.766313
0.766318
0.766322
0.766323
0.766322
0.766318
0.76631
0.7663
0.766291
0.766286
0.766286
0.766286
0.766286
0.766286
0.766286
0.766285
0.766282
0.766278
0.766275
0.766275
0.766276
0.766278
0.766282
0.766289
0.766296
0.7663
0.766301
0.766301
0.766299
0.766297
0.766293
0.766288
0.766284
0.766281
0.766279
0.766277
0.766276
0.766273
0.766269
0.766264
0.766257
0.766248
0.766242
0.76624
0.76624
0.76624
0.766241
0.766241
0.76624
0.766239
0.766237
0.766233
0.766228
0.766223
0.766218
0.766215
0.766213
0.766211
0.76621
0.766208
0.766205
0.766201
0.766195
0.766186
0.766176
0.766166
0.766156
0.766148
0.766142
0.766138
0.766133
0.766129
0.766124
0.766118
0.766112
0.766106
0.766103
0.766101
0.7661
0.766099
0.766099
0.766098
0.766097
0.766096
0.766093
0.766089
0.766085
0.766079
0.766074
0.766068
0.766064
0.76606
0.766056
0.766051
0.766047
0.76604
0.766033
0.766025
0.766015
0.766006
0.765998
0.765991
0.765986
0.765984
0.765982
0.765977
0.765965
0.765947
0.765917
0.765885
0.765863
0.765945
0.766787
0.769981
0.776294
0.784901
0.794871
0.805491
0.81664
0.827981
0.839656
0.851383
0.863378
0.875397
0.887657
0.899897
0.912387
0.924783
0.937458
0.950021
0.963105
0.977203
0.99916
0.766706
0.766689
0.766632
0.766534
0.766413
0.766308
0.76627
0.766273
0.766302
0.76636
0.766424
0.766444
0.76644
0.766418
0.766364
0.766292
0.766253
0.766249
0.766258
0.76629
0.766344
0.766391
0.766402
0.766399
0.766381
0.766342
0.766288
0.766246
0.766233
0.766236
0.766251
0.766284
0.766325
0.76635
0.766356
0.766354
0.766344
0.76632
0.766293
0.76628
0.766278
0.766279
0.766288
0.766298
0.7663
0.766297
0.766291
0.766277
0.766258
0.766248
0.766256
0.766275
0.766306
0.76635
0.766401
0.76645
0.766488
0.766508
0.766511
0.766504
0.766487
0.76647
0.766457
0.76645
0.766452
0.766467
0.766494
0.766531
0.766568
0.766601
0.766607
0.766602
0.766596
0.766594
0.766595
0.766595
0.766592
0.766583
0.766566
0.766541
0.766509
0.766471
0.766433
0.766398
0.766369
0.766354
0.766352
0.766352
0.766354
0.766354
0.766352
0.766347
0.766338
0.766325
0.766313
0.766307
0.766307
0.766309
0.766313
0.766318
0.766322
0.766323
0.766322
0.766318
0.76631
0.7663
0.766291
0.766286
0.766286
0.766286
0.766286
0.766286
0.766286
0.766285
0.766282
0.766278
0.766275
0.766275
0.766276
0.766278
0.766282
0.766289
0.766296
0.7663
0.766301
0.766301
0.7663
0.766297
0.766293
0.766288
0.766284
0.766281
0.766279
0.766277
0.766276
0.766273
0.766269
0.766264
0.766257
0.766248
0.766242
0.76624
0.76624
0.76624
0.766241
0.766241
0.76624
0.766239
0.766237
0.766233
0.766228
0.766223
0.766218
0.766215
0.766213
0.766211
0.76621
0.766208
0.766205
0.766201
0.766195
0.766186
0.766176
0.766166
0.766156
0.766148
0.766142
0.766138
0.766133
0.766129
0.766124
0.766118
0.766112
0.766106
0.766103
0.766101
0.7661
0.766099
0.766099
0.766098
0.766097
0.766096
0.766093
0.766089
0.766085
0.766079
0.766074
0.766068
0.766064
0.76606
0.766056
0.766051
0.766046
0.76604
0.766033
0.766025
0.766015
0.766006
0.765998
0.765991
0.765986
0.765984
0.765982
0.765977
0.765965
0.765946
0.765917
0.765885
0.765863
0.765945
0.766787
0.769982
0.776293
0.784897
0.794867
0.805489
0.816643
0.827987
0.839665
0.851389
0.863377
0.875392
0.887647
0.899883
0.91238
0.924771
0.93746
0.950031
0.963153
0.977281
0.999057
0.766703
0.766686
0.766629
0.766531
0.76641
0.766305
0.766266
0.76627
0.766299
0.766357
0.766421
0.766441
0.766438
0.766416
0.766362
0.76629
0.76625
0.766247
0.766256
0.766288
0.766342
0.766389
0.7664
0.766397
0.766379
0.76634
0.766287
0.766244
0.766231
0.766234
0.766249
0.766282
0.766324
0.766349
0.766355
0.766353
0.766343
0.766319
0.766292
0.766278
0.766275
0.766276
0.766283
0.766292
0.766293
0.76629
0.766284
0.766271
0.766252
0.766243
0.766253
0.766273
0.766307
0.766356
0.766415
0.766473
0.766516
0.766538
0.766541
0.766534
0.766514
0.766491
0.766473
0.766461
0.766458
0.766469
0.766496
0.76653
0.766564
0.766595
0.766601
0.766597
0.766592
0.766591
0.766593
0.766593
0.76659
0.766582
0.766566
0.766541
0.766509
0.766471
0.766434
0.7664
0.76637
0.766355
0.766353
0.766353
0.766355
0.766354
0.766352
0.766347
0.766338
0.766325
0.766312
0.766307
0.766307
0.766309
0.766313
0.766318
0.766322
0.766323
0.766322
0.766318
0.76631
0.7663
0.76629
0.766286
0.766286
0.766286
0.766286
0.766286
0.766286
0.766285
0.766282
0.766278
0.766275
0.766275
0.766276
0.766278
0.766282
0.766289
0.766296
0.7663
0.766301
0.766301
0.7663
0.766297
0.766293
0.766288
0.766284
0.766281
0.766279
0.766277
0.766276
0.766273
0.766269
0.766264
0.766257
0.766248
0.766242
0.76624
0.76624
0.76624
0.766241
0.766241
0.76624
0.766239
0.766237
0.766233
0.766228
0.766223
0.766218
0.766215
0.766213
0.766211
0.76621
0.766208
0.766205
0.766201
0.766195
0.766186
0.766176
0.766166
0.766156
0.766148
0.766142
0.766137
0.766133
0.766129
0.766124
0.766118
0.766112
0.766106
0.766102
0.766101
0.7661
0.766099
0.766099
0.766098
0.766097
0.766096
0.766093
0.766089
0.766085
0.766079
0.766073
0.766068
0.766064
0.76606
0.766056
0.766051
0.766046
0.76604
0.766033
0.766025
0.766015
0.766006
0.765998
0.765991
0.765986
0.765984
0.765982
0.765977
0.765965
0.765946
0.765916
0.765885
0.765863
0.765945
0.766787
0.769982
0.776293
0.784894
0.794864
0.805488
0.816647
0.827993
0.839671
0.851394
0.863376
0.875387
0.88764
0.899872
0.912374
0.924761
0.937458
0.950034
0.963189
0.977336
0.998991
0.766702
0.766685
0.766628
0.766529
0.766409
0.766303
0.766265
0.766269
0.766297
0.766355
0.76642
0.76644
0.766436
0.766414
0.76636
0.766288
0.766249
0.766246
0.766255
0.766287
0.76634
0.766388
0.766399
0.766395
0.766378
0.766339
0.766285
0.766243
0.76623
0.766233
0.766248
0.766281
0.766323
0.766348
0.766354
0.766352
0.766342
0.766318
0.766291
0.766277
0.766274
0.766275
0.766281
0.76629
0.76629
0.766287
0.76628
0.766267
0.766248
0.766242
0.766253
0.766275
0.766311
0.766361
0.766423
0.766487
0.766534
0.766555
0.766558
0.76655
0.766527
0.766497
0.766477
0.766463
0.766458
0.766469
0.766495
0.766526
0.76656
0.766592
0.766599
0.766595
0.76659
0.76659
0.766591
0.766592
0.76659
0.766582
0.766566
0.766541
0.766509
0.766471
0.766434
0.7664
0.766371
0.766356
0.766353
0.766353
0.766354
0.766354
0.766352
0.766347
0.766338
0.766325
0.766312
0.766307
0.766307
0.766309
0.766313
0.766318
0.766322
0.766323
0.766322
0.766318
0.76631
0.7663
0.76629
0.766286
0.766286
0.766286
0.766286
0.766286
0.766286
0.766285
0.766282
0.766278
0.766275
0.766275
0.766276
0.766278
0.766282
0.766289
0.766296
0.7663
0.766301
0.766301
0.7663
0.766297
0.766293
0.766288
0.766284
0.766281
0.766279
0.766277
0.766276
0.766273
0.766269
0.766264
0.766257
0.766248
0.766242
0.76624
0.76624
0.76624
0.766241
0.766241
0.76624
0.766239
0.766237
0.766233
0.766228
0.766223
0.766218
0.766215
0.766213
0.766211
0.76621
0.766208
0.766205
0.766201
0.766195
0.766186
0.766176
0.766166
0.766156
0.766148
0.766142
0.766137
0.766133
0.766129
0.766124
0.766118
0.766112
0.766106
0.766102
0.766101
0.7661
0.766099
0.766099
0.766098
0.766097
0.766096
0.766093
0.766089
0.766085
0.766079
0.766073
0.766068
0.766064
0.76606
0.766056
0.766051
0.766046
0.76604
0.766033
0.766025
0.766015
0.766006
0.765998
0.765991
0.765986
0.765984
0.765982
0.765977
0.765965
0.765946
0.765916
0.765885
0.765863
0.765945
0.766787
0.769983
0.776292
0.784892
0.794864
0.805488
0.81665
0.827995
0.839673
0.851394
0.863374
0.875389
0.88764
0.899863
0.912377
0.924755
0.937457
0.950037
0.963211
0.977362
0.998955
3.43532e-14
3.28939e-14
3.82168e-14
4.80496e-14
3.82483e-14
4.12043e-14
4.73478e-14
4.79217e-14
4.8994e-14
5.62755e-14
7.30422e-14
6.96146e-14
6.42413e-14
3.75066e-14
2.52733e-14
2.43976e-14
2.38764e-14
2.76352e-14
3.57842e-14
3.43099e-14
2.91823e-14
2.28416e-14
2.23002e-14
2.57681e-14
2.62882e-14
3.24274e-14
4.31977e-14
5.36718e-14
5.50613e-14
5.55508e-14
4.78831e-14
5.5547e-14
6.38899e-14
7.62465e-14
8.1961e-14
6.42559e-14
5.26216e-14
4.04195e-14
3.40817e-14
5.40948e-14
8.11878e-14
7.66024e-14
6.03951e-14
3.9863e-14
2.76798e-14
2.27005e-14
2.12512e-14
2.08317e-14
3.6265e-14
3.37343e-14
4.14051e-14
2.58954e-14
1.99746e-14
2.143e-14
2.22214e-14
2.35098e-14
2.45447e-14
2.67866e-14
2.90004e-14
4.21711e-14
4.06049e-14
3.53471e-14
2.36814e-14
2.19244e-14
2.74276e-14
2.22093e-14
3.82297e-14
4.4245e-14
6.57837e-14
5.70818e-14
4.39973e-14
2.90572e-14
1.59683e-10
2.30672e-07
4.17738e-05
0.00133564
0.0111412
0.0362443
0.0665403
0.0914404
0.111766
0.132476
0.157584
0.187414
0.221198
0.248961
0.260063
0.259076
0.229968
0.169162
0.116507
0.0593081
0.0215591
0.0255526
0.0450896
0.0609942
0.0700912
0.0723436
0.0709109
0.0619924
4.68671e-14
4.21888e-14
4.54503e-14
5.20788e-14
5.18971e-14
4.91931e-14
5.48968e-14
5.44323e-14
4.41325e-14
4.79547e-14
5.12668e-14
5.81661e-14
5.26347e-14
5.21491e-14
4.03882e-14
3.88947e-14
2.98157e-14
3.2212e-14
4.36862e-14
5.11615e-14
3.53235e-14
3.80012e-14
2.51997e-14
2.438e-14
2.90232e-14
2.86032e-14
3.59464e-14
4.85663e-14
5.89955e-14
6.08779e-14
6.39348e-14
6.13977e-14
5.99747e-14
6.179e-14
6.39909e-14
6.67703e-14
5.62302e-14
5.3262e-14
4.73545e-14
4.69398e-14
5.92607e-14
7.33632e-14
6.84184e-14
5.85157e-14
3.95184e-14
3.00836e-14
3.03837e-14
2.74242e-14
2.3546e-14
2.88496e-14
3.12815e-14
2.81025e-14
2.30321e-14
2.63102e-14
2.90802e-14
3.23714e-14
3.3272e-14
3.02096e-14
4.03497e-14
4.14339e-14
4.52098e-14
4.16303e-14
3.51858e-14
2.65064e-14
2.83049e-14
3.10656e-14
2.74667e-14
4.67871e-14
6.51477e-14
7.87585e-14
6.49295e-14
4.70435e-14
3.15218e-14
2.64834e-11
5.87559e-08
1.56012e-05
0.00068755
0.00734568
0.0283291
0.0573269
0.0821299
0.10106
0.118084
0.136741
0.157672
0.181634
0.199348
0.203713
0.198367
0.182222
0.151755
0.111893
0.0724144
0.0415297
0.029313
0.0365738
0.0476114
0.055218
0.0571988
0.0544848
6.50042e-14
6.23532e-14
6.07375e-14
5.973e-14
6.49143e-14
6.68179e-14
6.64158e-14
5.96997e-14
6.1443e-14
6.82321e-14
6.27843e-14
6.52188e-14
5.73965e-14
5.00433e-14
5.16258e-14
4.58811e-14
4.6951e-14
4.57546e-14
5.93738e-14
6.77822e-14
4.96177e-14
4.12536e-14
3.61116e-14
3.49832e-14
4.02754e-14
4.05001e-14
4.79007e-14
5.75891e-14
6.45533e-14
6.56744e-14
7.0743e-14
6.71841e-14
6.9112e-14
7.04797e-14
6.97287e-14
6.615e-14
5.94777e-14
5.00552e-14
5.25933e-14
5.20677e-14
6.99922e-14
7.83664e-14
7.41028e-14
6.62679e-14
4.85652e-14
3.68912e-14
4.08279e-14
3.72182e-14
4.01555e-14
4.57513e-14
4.54696e-14
4.21924e-14
4.0064e-14
4.27966e-14
4.6457e-14
4.61234e-14
4.80666e-14
4.58033e-14
5.38505e-14
5.61962e-14
5.86787e-14
5.06908e-14
4.52387e-14
4.38115e-14
4.41232e-14
4.18903e-14
4.22523e-14
6.03898e-14
8.30059e-14
9.30196e-14
7.66442e-14
5.82871e-14
5.01879e-14
2.70065e-12
1.03343e-08
4.44686e-06
0.000293093
0.00427714
0.0205315
0.0474039
0.0723124
0.0905579
0.104857
0.118485
0.133073
0.149008
0.159723
0.161513
0.154121
0.140914
0.122895
6.8629e-14
6.78312e-14
6.79971e-14
6.46662e-14
5.81565e-14
6.63402e-14
6.88475e-14
6.96177e-14
6.12339e-14
6.40405e-14
6.49282e-14
6.42581e-14
6.38695e-14
5.76311e-14
5.0409e-14
5.30746e-14
4.28612e-14
4.96492e-14
4.82683e-14
5.1095e-14
5.00134e-14
4.04564e-14
2.83983e-14
3.27991e-14
3.08265e-14
3.72882e-14
3.46185e-14
4.41596e-14
5.34274e-14
5.90291e-14
6.10252e-14
7.16263e-14
6.51687e-14
6.84723e-14
7.10062e-14
6.89705e-14
6.26819e-14
5.28338e-14
4.50284e-14
4.42486e-14
4.76728e-14
6.97248e-14
8.41982e-14
6.87969e-14
5.02545e-14
4.07132e-14
3.24987e-14
4.0502e-14
3.55327e-14
4.07087e-14
4.14461e-14
3.95249e-14
3.78281e-14
3.75063e-14
3.16438e-14
3.86245e-14
4.14809e-14
4.77924e-14
4.44702e-14
6.03791e-14
5.80451e-14
5.98464e-14
5.72304e-14
5.81999e-14
5.53321e-14
5.66204e-14
5.57856e-14
5.97457e-14
5.10943e-14
4.92021e-14
4.84476e-14
4.79022e-14
4.42013e-14
4.7748e-14
4.72267e-14
4.56874e-14
4.13308e-14
4.17147e-14
2.96785e-14
2.09469e-14
2.20105e-14
1.78687e-14
2.04067e-14
2.46159e-14
2.50992e-14
3.2404e-14
3.7128e-14
4.06787e-14
4.35286e-14
4.77798e-14
5.43124e-14
5.31128e-14
5.34217e-14
5.76786e-14
5.75403e-14
5.82972e-14
5.10626e-14
4.49159e-14
4.19733e-14
5.29698e-14
6.42433e-14
7.37094e-14
5.32744e-14
2.90315e-14
2.61599e-14
3.12907e-14
3.06707e-14
3.15449e-14
3.19636e-14
2.81049e-14
2.77936e-14
2.48783e-14
2.7979e-14
2.48941e-14
3.1589e-14
3.72203e-14
5.58414e-14
4.99403e-14
4.71002e-14
4.37521e-14
4.7833e-14
4.38623e-14
4.32027e-14
4.03436e-14
4.24444e-14
3.75243e-14
3.45103e-14
3.26139e-14
3.22317e-14
3.44191e-14
4.42069e-14
3.52901e-14
3.79377e-14
2.66964e-14
2.46017e-14
1.87568e-14
1.9333e-14
1.62529e-14
1.90005e-14
1.84056e-14
1.76205e-14
1.69878e-14
3.24482e-14
3.03607e-14
2.83778e-14
3.12075e-14
3.43378e-14
3.8414e-14
3.8093e-14
4.20831e-14
4.50199e-14
4.44821e-14
4.83883e-14
4.06923e-14
3.59053e-14
3.63069e-14
4.15123e-14
5.34495e-14
6.34119e-14
4.97048e-14
3.4206e-14
2.05898e-14
2.70825e-14
2.5197e-14
3.36279e-14
2.88521e-14
3.66469e-14
3.0535e-14
2.66667e-14
2.54214e-14
2.51892e-14
3.57597e-14
5.97666e-14
4.94673e-14
4.89396e-14
4.1164e-14
4.1322e-14
3.993e-14
3.70268e-14
3.65577e-14
3.53775e-14
3.50601e-14
2.85611e-14
3.20706e-14
3.24542e-14
3.61123e-14
4.00546e-14
3.81733e-14
4.59127e-14
2.54468e-14
1.93201e-14
2.23489e-14
3.03188e-14
2.24895e-14
1.78429e-14
1.76906e-14
1.53442e-14
2.03182e-14
3.68617e-14
3.00092e-14
2.57089e-14
2.72376e-14
2.60165e-14
3.36671e-14
2.83918e-14
3.34723e-14
4.40609e-14
3.91901e-14
3.79644e-14
3.78569e-14
3.35719e-14
3.19586e-14
3.62994e-14
5.13236e-14
6.4595e-14
5.42635e-14
4.41799e-14
3.26679e-14
2.86497e-14
2.6907e-14
2.37437e-14
3.3381e-14
5.03579e-14
3.13735e-14
2.13563e-14
2.32416e-14
3.27419e-14
4.19745e-14
5.29492e-14
4.48301e-14
4.25572e-14
4.60832e-14
4.7965e-14
4.78534e-14
4.618e-14
5.32691e-14
5.37689e-14
5.75608e-14
5.00899e-14
5.59506e-14
5.06688e-14
5.38859e-14
4.39119e-14
4.80235e-14
4.89619e-14
3.94964e-14
2.84504e-14
3.20412e-14
3.65237e-14
3.74691e-14
3.82779e-14
3.3178e-14
3.76704e-14
3.162e-14
3.18927e-14
3.02383e-14
2.74791e-14
3.08947e-14
3.08588e-14
2.77409e-14
2.38679e-14
3.05207e-14
3.6658e-14
3.97254e-14
4.02637e-14
4.424e-14
4.09312e-14
3.9227e-14
4.07678e-14
4.4854e-14
5.08968e-14
5.37314e-14
5.44511e-14
5.06048e-14
4.40767e-14
3.63966e-14
2.81425e-14
3.5267e-14
4.59978e-14
3.80398e-14
3.53512e-14
3.82497e-14
4.93864e-14
5.3682e-14
6.0328e-14
5.67803e-14
5.09273e-14
6.00248e-14
6.19715e-14
6.32072e-14
6.12341e-14
7.00581e-14
6.82549e-14
6.62845e-14
6.46229e-14
6.65236e-14
5.96062e-14
6.27279e-14
5.59821e-14
5.85127e-14
5.91641e-14
5.79694e-14
4.70358e-14
5.06552e-14
5.10595e-14
5.62921e-14
5.93274e-14
5.94854e-14
5.23014e-14
4.70409e-14
4.17741e-14
4.53987e-14
4.35009e-14
4.93741e-14
4.6957e-14
4.5881e-14
4.22987e-14
4.86204e-14
4.46475e-14
4.98085e-14
5.02428e-14
5.57527e-14
5.68083e-14
5.88604e-14
5.60671e-14
5.86386e-14
5.62833e-14
6.46213e-14
6.21478e-14
6.55196e-14
6.2291e-14
5.56291e-14
4.48739e-14
5.03656e-14
4.92746e-14
5.15497e-14
4.73189e-14
5.40568e-14
6.06459e-14
6.47287e-14
5.50649e-14
5.37674e-14
5.64216e-14
6.20669e-14
6.62736e-14
6.55206e-14
6.24523e-14
5.85937e-14
5.88327e-14
4.98134e-14
5.07766e-14
4.55723e-14
5.10246e-14
4.74021e-14
5.56687e-14
5.22349e-14
4.80578e-14
5.40128e-14
5.37441e-14
5.54494e-14
5.48902e-14
5.84165e-14
6.31869e-14
5.98796e-14
5.13879e-14
4.64723e-14
5.04093e-14
4.41712e-14
4.61498e-14
4.52367e-14
5.09101e-14
4.95787e-14
5.28163e-14
4.90177e-14
5.05406e-14
5.42161e-14
5.74239e-14
5.57956e-14
6.38661e-14
6.35418e-14
6.77092e-14
6.64477e-14
6.4352e-14
6.28217e-14
6.53792e-14
6.12008e-14
5.75708e-14
5.0828e-14
5.04896e-14
4.86112e-14
4.64503e-14
4.29866e-14
4.22707e-14
4.56732e-14
5.41144e-14
5.94552e-14
4.02182e-14
4.45057e-14
4.92326e-14
4.5979e-14
4.96436e-14
4.69339e-14
4.84465e-14
4.14307e-14
4.12469e-14
3.8569e-14
3.14379e-14
2.65243e-14
2.83729e-14
2.1772e-14
3.2292e-14
3.09783e-14
3.41954e-14
3.84726e-14
4.29318e-14
3.78016e-14
3.91411e-14
4.16401e-14
4.708e-14
4.62027e-14
5.33919e-14
4.97697e-14
4.62197e-14
3.508e-14
3.22248e-14
2.62541e-14
3.04798e-14
2.77319e-14
3.16339e-14
2.59199e-14
3.45895e-14
3.96171e-14
4.47524e-14
4.25581e-14
4.86013e-14
4.49092e-14
5.15724e-14
4.44415e-14
4.67628e-14
4.35715e-14
4.93469e-14
4.47016e-14
4.23528e-14
4.04303e-14
4.75252e-14
4.25461e-14
4.47332e-14
4.17194e-14
4.425e-14
4.28775e-14
4.89865e-14
5.18386e-14
2.78839e-14
3.10968e-14
3.33579e-14
3.15829e-14
2.73395e-14
3.37171e-14
3.90217e-14
4.26312e-14
4.25778e-14
3.43202e-14
2.69539e-14
2.13487e-14
2.10067e-14
1.30617e-14
1.56997e-14
1.79875e-14
2.38972e-14
2.10101e-14
2.02262e-14
1.69676e-14
1.60892e-14
2.44469e-14
3.4799e-14
5.58382e-14
6.56777e-14
6.25704e-14
5.28138e-14
3.96601e-14
1.83975e-14
1.95596e-14
1.32156e-14
1.41567e-14
5.62126e-15
1.96823e-14
2.84885e-14
3.11344e-14
3.35348e-14
3.70893e-14
3.75143e-14
3.31156e-14
3.42441e-14
3.05431e-14
2.55962e-14
2.81661e-14
3.29217e-14
3.92243e-14
3.4879e-14
3.84324e-14
4.15215e-14
4.57055e-14
4.88079e-14
5.38354e-14
5.17628e-14
5.06828e-14
5.03593e-14
5.23463e-14
1.46654e-14
1.41665e-14
1.42696e-14
2.50938e-14
3.57364e-14
3.96503e-14
4.12211e-14
3.82847e-14
3.38315e-14
2.39197e-14
2.97876e-14
2.85329e-14
1.96123e-14
1.33816e-14
1.13268e-14
1.31366e-14
6.7802e-15
7.90771e-15
5.44963e-15
3.30675e-15
9.35047e-15
9.98979e-15
3.62592e-14
5.77702e-14
6.26826e-14
5.74518e-14
4.68876e-14
3.51444e-14
2.19938e-14
8.36684e-15
9.69979e-15
1.19235e-14
1.49339e-14
1.32129e-14
2.4629e-14
3.56887e-14
4.06922e-14
3.72059e-14
3.27904e-14
3.09063e-14
2.59948e-14
1.97263e-14
2.4499e-14
2.53478e-14
3.04793e-14
3.21588e-14
2.96992e-14
4.27833e-14
4.50699e-14
5.76148e-14
5.37045e-14
5.32596e-14
5.40356e-14
5.20091e-14
5.0375e-14
5.02616e-14
2.80461e-14
2.47112e-14
2.93632e-14
4.26272e-14
5.25119e-14
5.96438e-14
6.01947e-14
5.73356e-14
4.62566e-14
3.5804e-14
3.63163e-14
3.1169e-14
2.2942e-14
1.63412e-14
2.11906e-14
1.13249e-14
1.33695e-14
1.01208e-14
1.55515e-14
4.7594e-15
1.21486e-14
2.15313e-14
4.80374e-14
6.51295e-14
6.81444e-14
6.29346e-14
5.38218e-14
4.45814e-14
3.84518e-14
2.80642e-14
1.30657e-14
5.18128e-15
1.07972e-14
2.46574e-14
3.30908e-14
4.03891e-14
3.99235e-14
4.03809e-14
3.96171e-14
3.90954e-14
3.41704e-14
2.71044e-14
3.06113e-14
3.22057e-14
3.46413e-14
3.29746e-14
3.24081e-14
4.21354e-14
5.18094e-14
5.97141e-14
6.01204e-14
6.35595e-14
6.28812e-14