/*--------------------------------*- C++ -*----------------------------------*\
| =========                 |                                                 |
| \\      /  F ield         | OpenFOAM: The Open Source CFD Toolbox           |
|  \\    /   O peration     | Version:  2406                                  |
|   \\  /    A nd           | Website:  www.openfoam.com                      |
|    \\/     M anipulation  |                                                 |
\*---------------------------------------------------------------------------*/
FoamFile
{
    version     2.0;
    format      ascii;
    arch        "LSB;label=32;scalar=64";
    class       volScalarField;
    location    "0.01";
    object      Ma;
}
// * * * * * * * * * * * * * * * * * * * * * * * * * * * * * * * * * * * * * //

dimensions      [0 0 0 0 0 0 0];

internalField   nonuniform List<scalar> 
13988
(
3.21519e-14
1.53911e-14
9.02247e-15
1.46643e-14
1.13233e-14
2.42673e-14
1.82613e-14
1.55378e-14
2.39336e-14
3.918e-14
5.51587e-14
4.8767e-14
3.49244e-14
3.04967e-14
1.8087e-14
4.82482e-15
1.61283e-14
1.64508e-14
1.94531e-14
3.45972e-14
3.27758e-14
3.86826e-14
2.62707e-14
1.69999e-14
2.1238e-14
1.78401e-14
2.31509e-14
1.71443e-14
1.76213e-14
1.76318e-14
1.34777e-14
1.88543e-14
2.19928e-14
2.27659e-14
3.62055e-14
2.60683e-14
3.16499e-14
4.88466e-14
5.86847e-14
4.97198e-14
3.61657e-14
3.70276e-14
3.17206e-14
2.52301e-14
2.1601e-14
1.82677e-14
3.71881e-14
3.15652e-14
1.77044e-14
3.99061e-15
1.00828e-14
2.58916e-14
1.27128e-14
1.91105e-14
2.53587e-14
1.26602e-14
1.25514e-14
1.06461e-14
1.98413e-14
2.10623e-14
1.68653e-14
2.01774e-14
3.8945e-14
3.34592e-14
2.88038e-14
3.31275e-14
3.73713e-14
4.13767e-14
3.72733e-14
3.34618e-14
2.68862e-14
3.91491e-14
3.3278e-14
3.49006e-14
3.3444e-14
4.26278e-14
3.83926e-14
3.37037e-14
3.3621e-14
3.04237e-14
1.30805e-14
3.73782e-14
5.10188e-14
6.43403e-14
5.85188e-14
6.74336e-14
5.34031e-14
3.42975e-14
3.70555e-14
2.80618e-14
2.03297e-14
2.19429e-14
2.03264e-14
3.03791e-14
3.60647e-14
2.39672e-14
5.83665e-15
1.18855e-14
1.33458e-14
7.2226e-15
1.08913e-14
3.50358e-14
1.65447e-14
5.4294e-15
8.63279e-15
1.2875e-14
2.78743e-14
1.70798e-14
1.72559e-14
2.01975e-14
4.3283e-14
4.53998e-14
5.63635e-14
3.6699e-14
1.90939e-14
5.36681e-15
1.05305e-14
1.70442e-14
1.73559e-14
3.66605e-14
4.9054e-14
3.72353e-14
3.24791e-14
2.16737e-14
1.57808e-14
1.586e-14
1.30824e-14
1.40644e-14
1.72785e-14
2.1911e-14
2.43797e-14
1.00278e-14
1.0817e-14
9.24978e-15
2.06445e-14
4.01986e-14
2.98839e-14
3.44701e-14
4.92445e-14
4.83434e-14
4.10984e-14
3.7975e-14
4.26107e-14
3.42219e-14
3.59695e-14
1.33329e-14
2.05924e-14
2.94927e-14
2.0347e-14
8.62401e-15
1.43231e-14
2.05225e-14
4.34385e-14
3.45485e-14
2.34778e-14
1.97386e-14
1.35749e-14
6.6252e-15
1.52632e-14
2.99402e-14
2.24148e-14
2.04046e-14
9.82053e-15
3.44978e-14
4.1558e-14
3.08848e-14
4.07663e-14
3.67132e-14
4.98142e-14
3.92242e-14
3.85644e-14
4.05735e-14
3.50194e-14
3.26237e-14
4.12032e-14
3.34919e-14
3.75637e-14
4.99426e-14
4.32532e-14
2.6962e-14
1.92892e-14
1.34625e-14
3.01779e-14
5.82272e-14
5.81402e-14
6.77367e-14
6.57193e-14
5.18831e-14
4.79243e-14
5.06847e-14
3.50512e-14
2.05935e-14
2.38012e-14
3.5837e-14
3.90475e-14
3.75665e-14
1.45142e-14
5.456e-15
1.45504e-14
2.07164e-14
1.29048e-14
3.07786e-14
2.24534e-14
1.14052e-14
1.03786e-14
7.84895e-15
1.77573e-14
1.71073e-14
1.36901e-14
1.25273e-14
2.3665e-14
2.87456e-14
3.76554e-14
2.95599e-14
1.77764e-14
7.95362e-15
1.63221e-14
1.45139e-14
5.45842e-15
2.03601e-14
3.0778e-14
3.14716e-14
3.26507e-14
2.22185e-14
7.58438e-15
2.70501e-15
8.0399e-15
1.3018e-14
1.6948e-14
1.77334e-14
1.27749e-14
1.05228e-14
6.98995e-15
1.33262e-14
2.03237e-14
3.0871e-14
3.12013e-14
2.87022e-14
3.27303e-14
3.17144e-14
2.6621e-14
2.74438e-14
2.51976e-14
3.1007e-14
2.16607e-14
7.54908e-15
2.12323e-14
2.62158e-14
2.01444e-14
1.06803e-14
1.48617e-14
2.02173e-14
3.27583e-14
3.68027e-14
2.49229e-14
1.62703e-14
1.51329e-14
1.51746e-14
1.82796e-14
1.96777e-14
1.80773e-14
1.93642e-14
1.18793e-14
2.00578e-14
2.46625e-14
2.89586e-14
2.505e-14
2.83508e-14
3.60704e-14
2.99399e-14
2.11585e-14
2.3637e-14
2.62942e-14
2.80647e-14
3.08626e-14
2.88071e-14
2.92298e-14
3.29382e-14
2.35014e-14
1.48696e-14
1.13132e-14
1.07986e-14
2.60321e-14
4.08374e-14
4.4681e-14
4.68828e-14
5.55478e-14
4.30974e-14
3.68472e-14
3.55128e-14
2.78818e-14
2.24199e-14
2.0848e-14
2.28725e-14
2.24729e-14
1.94171e-14
1.39685e-14
1.28508e-14
1.2179e-14
1.18319e-14
1.28537e-14
2.68418e-14
2.2786e-14
1.32633e-14
5.76527e-15
1.3692e-14
1.34135e-14
1.52139e-14
1.36186e-14
1.84997e-14
2.06861e-14
2.42216e-14
1.97856e-14
1.00852e-14
1.27514e-14
1.53745e-14
2.14458e-14
1.20681e-14
1.47708e-14
1.85314e-14
1.81141e-14
2.27119e-14
1.43787e-14
5.6768e-15
7.17361e-15
9.04828e-15
1.34994e-14
1.08321e-14
8.67931e-15
4.98018e-15
9.33829e-15
4.86609e-15
8.49626e-15
1.17893e-14
1.53201e-14
1.99207e-14
2.20131e-14
2.15587e-14
1.57482e-14
1.18605e-14
1.34783e-14
1.39368e-14
1.76746e-14
1.06389e-14
4.40976e-15
1.23539e-14
1.81884e-14
1.32623e-14
8.57845e-15
7.89901e-15
7.60534e-15
1.15975e-14
1.31495e-14
1.03933e-14
1.06271e-14
1.26949e-14
1.48803e-14
1.84224e-14
1.56389e-14
1.51909e-14
1.86944e-14
1.81169e-14
1.85386e-14
1.50995e-14
1.52344e-14
1.61573e-14
1.84645e-14
1.75793e-14
1.53425e-14
1.27652e-14
1.34842e-14
1.79909e-14
2.16446e-14
2.41705e-14
2.742e-14
2.43935e-14
2.3284e-14
1.57002e-14
1.087e-14
6.01326e-15
1.00847e-14
1.62448e-14
1.72372e-14
1.57338e-14
1.85788e-14
2.03899e-14
2.01202e-14
2.1158e-14
2.25647e-14
1.91562e-14
1.9595e-14
1.68984e-14
1.64022e-14
1.00808e-14
9.85021e-15
1.00732e-14
1.23793e-14
1.39955e-14
9.68128e-15
2.70456e-14
2.36559e-14
1.4662e-14
1.18875e-14
9.17661e-15
1.37484e-14
1.31752e-14
1.11034e-14
1.10052e-14
1.37361e-14
1.7981e-14
1.31259e-14
7.65384e-15
8.53241e-15
1.12402e-14
1.92561e-14
1.49825e-14
7.8726e-15
1.32864e-14
1.51208e-14
1.05354e-14
7.38181e-15
9.66984e-15
7.20039e-15
5.45573e-15
6.16668e-15
3.99459e-15
4.68543e-15
4.66576e-15
3.69945e-15
4.03381e-15
4.77073e-15
6.34403e-15
6.77556e-15
1.0851e-14
1.42999e-14
1.27927e-14
8.57115e-15
3.21421e-15
6.53226e-15
4.31346e-15
9.17776e-15
8.89039e-15
6.31315e-15
8.24316e-15
8.26269e-15
1.35483e-14
8.76324e-15
7.47082e-15
1.0503e-14
1.00864e-14
6.04463e-15
7.43519e-15
1.2068e-14
1.56178e-14
1.51696e-14
1.30487e-14
8.60246e-15
9.57743e-15
1.28213e-14
1.3532e-14
1.46491e-14
1.2039e-14
5.78319e-15
4.98056e-15
4.61257e-15
8.14287e-15
9.309e-15
7.70289e-15
1.24925e-14
1.37061e-14
1.71717e-14
2.07859e-14
2.22459e-14
2.24141e-14
2.51277e-14
1.60885e-14
1.09769e-14
3.30393e-15
3.44602e-15
3.68882e-15
5.99986e-15
5.43782e-15
5.46121e-15
6.51724e-15
8.77626e-15
8.82592e-15
1.05074e-14
1.50242e-14
1.63724e-14
1.63551e-14
1.31613e-14
9.0411e-15
1.03423e-14
5.89097e-15
8.37942e-15
1.16938e-14
1.04732e-14
2.36269e-14
2.70087e-14
1.53273e-14
9.08831e-15
4.32525e-15
8.29374e-15
8.86891e-15
1.04092e-14
1.17291e-14
1.42919e-14
1.54529e-14
1.15396e-14
6.82631e-15
1.11561e-14
5.42827e-15
3.79707e-15
8.2122e-15
1.65304e-14
9.69e-15
3.80356e-15
9.006e-15
1.50816e-14
1.52359e-14
1.55829e-14
1.42555e-14
1.74533e-14
1.27705e-14
1.0429e-14
1.02617e-14
6.38532e-15
7.19953e-15
9.67626e-15
1.05943e-14
1.78296e-14
1.08679e-14
9.22639e-15
1.03053e-14
1.07148e-14
1.23701e-14
1.24224e-14
1.06515e-14
1.31761e-14
1.09248e-14
9.91267e-15
1.2629e-14
1.5546e-14
1.47643e-14
7.97887e-15
7.59889e-15
1.12944e-14
1.01381e-14
5.96702e-15
1.17196e-15
9.14801e-15
1.54275e-14
1.46809e-14
1.44961e-14
1.06233e-14
5.57282e-15
3.90494e-15
4.25335e-15
8.94307e-15
6.57935e-15
1.13842e-14
1.24962e-14
9.26464e-15
1.25855e-14
1.35958e-14
1.18862e-14
1.10882e-14
1.45424e-14
2.13978e-14
2.70681e-14
2.1782e-14
2.15877e-14
2.32407e-14
2.05768e-14
1.43343e-14
9.91505e-15
1.34475e-14
1.51626e-14
1.55998e-14
1.48333e-14
1.61304e-14
2.10019e-14
1.34003e-14
7.02656e-15
7.94416e-15
8.11314e-15
1.29414e-14
1.33332e-14
1.5618e-14
1.12846e-14
1.09178e-14
1.15928e-14
8.71619e-15
1.29214e-14
1.96265e-14
2.7067e-14
3.56215e-14
2.67366e-14
1.35344e-14
1.87151e-14
9.82002e-15
9.32871e-15
1.99274e-14
2.58793e-14
2.37158e-14
2.53314e-14
2.26885e-14
2.11124e-14
1.84837e-14
2.56372e-14
1.39579e-14
1.74018e-14
2.95504e-14
2.18554e-14
9.05107e-15
7.04953e-15
1.45165e-14
2.56364e-14
2.46993e-14
2.33917e-14
1.89184e-14
1.98416e-14
2.19591e-14
1.67037e-14
1.86297e-14
2.01799e-14
2.06002e-14
2.40913e-14
2.80714e-14
2.42752e-14
2.06777e-14
1.82754e-14
2.01058e-14
2.32699e-14
2.01389e-14
2.20134e-14
1.68098e-14
2.20472e-14
2.06553e-14
2.50364e-14
2.22208e-14
2.47674e-14
1.87272e-14
2.28402e-14
1.61369e-14
1.71421e-14
1.24432e-14
5.8342e-15
1.25413e-14
2.38651e-14
1.91578e-14
2.96914e-14
2.25177e-14
1.02846e-14
1.37706e-14
9.75785e-15
1.46748e-14
1.94621e-14
2.10685e-14
2.52126e-14
2.38363e-14
2.56141e-14
2.59159e-14
2.31997e-14
2.28307e-14
2.37367e-14
3.22649e-14
3.12119e-14
3.0613e-14
3.00993e-14
3.26629e-14
3.23093e-14
2.90388e-14
2.00828e-14
2.24683e-14
2.32674e-14
2.47737e-14
2.11573e-14
2.51227e-14
2.93705e-14
1.67537e-14
1.15557e-14
4.8331e-15
5.99365e-15
8.76769e-15
1.68742e-14
2.42599e-14
2.17002e-14
2.55379e-14
2.15609e-14
1.41234e-14
2.09858e-14
3.17581e-14
1.53454e-14
1.30513e-14
1.13233e-14
8.77814e-15
6.27854e-15
6.56069e-15
8.39215e-15
1.38634e-14
1.02528e-14
8.15762e-15
1.27239e-14
1.57999e-14
1.22216e-14
6.75188e-15
1.0911e-14
9.0231e-15
1.37291e-14
1.76682e-14
1.20921e-14
1.01618e-14
5.48295e-15
1.53006e-14
1.30576e-14
1.06718e-14
1.68112e-14
1.45637e-14
1.66602e-14
2.03229e-14
1.79113e-14
1.73454e-14
2.27504e-14
2.01616e-14
1.62557e-14
1.41622e-14
9.54409e-15
1.38268e-14
1.3548e-14
1.25502e-14
8.28158e-15
8.47706e-15
8.81844e-15
6.35875e-15
8.52853e-15
7.87262e-15
1.05199e-14
1.11244e-14
7.33304e-15
7.21958e-15
1.30489e-14
9.86189e-15
6.87315e-15
1.61838e-14
7.45759e-15
9.80421e-15
1.39865e-14
1.44521e-14
1.64702e-14
1.57924e-14
1.00177e-14
7.30104e-15
8.5202e-15
1.29481e-14
1.27958e-14
1.45488e-14
1.33947e-14
1.39991e-14
1.15917e-14
1.00817e-14
1.45835e-14
1.31281e-14
1.6599e-14
2.07823e-14
2.18733e-14
2.01315e-14
1.65773e-14
1.54034e-14
1.49812e-14
1.85121e-14
1.51087e-14
1.29772e-14
1.38981e-14
9.39276e-15
7.66466e-15
1.23781e-14
2.14028e-14
1.55471e-14
1.06803e-14
6.41884e-15
5.58668e-15
7.76106e-15
1.77594e-14
1.47544e-14
9.36964e-15
1.15576e-14
1.35923e-14
1.5171e-14
2.27314e-14
4.07191e-14
9.44761e-15
9.48037e-15
1.01514e-14
4.07511e-15
8.35877e-15
3.08565e-15
2.20173e-15
8.65122e-15
1.19351e-14
1.05842e-14
1.95833e-14
2.4623e-14
1.85888e-14
7.1271e-15
1.1718e-14
1.37179e-14
1.363e-14
1.26277e-14
8.48399e-15
3.25718e-15
7.64647e-15
9.68235e-15
9.10153e-15
6.2678e-15
8.91778e-15
1.46637e-14
1.60698e-14
2.05192e-14
1.50898e-14
8.46665e-15
1.50807e-14
1.50789e-14
8.57747e-15
1.13915e-14
8.06608e-15
1.47903e-14
9.25078e-15
3.37089e-15
1.08959e-14
9.24304e-15
7.8667e-15
4.95657e-15
1.01429e-14
6.79142e-15
9.77519e-15
5.59937e-15
7.97444e-15
1.14209e-14
1.75623e-14
1.13762e-14
1.03009e-14
1.01161e-14
7.53262e-15
7.55074e-15
8.05246e-15
6.81715e-15
9.34416e-15
1.00077e-14
1.06554e-14
7.349e-15
6.25833e-15
1.11349e-14
1.27586e-14
1.27657e-14
9.11557e-15
8.34744e-15
4.03682e-15
1.0016e-14
8.86719e-15
8.7367e-15
1.39314e-14
1.26167e-14
1.15724e-14
9.43283e-15
8.94158e-15
3.73398e-15
2.93228e-15
1.45712e-15
1.18345e-14
5.63268e-15
6.1985e-15
9.71994e-15
1.2058e-14
9.67866e-15
1.26942e-14
1.23644e-14
1.4223e-14
9.27855e-15
4.7464e-15
6.16111e-15
1.00162e-14
1.49598e-14
1.17317e-14
9.647e-15
1.02549e-14
6.51889e-15
1.48313e-14
3.19297e-14
1.75506e-14
1.26105e-14
5.55747e-15
8.96054e-15
8.76404e-15
5.85242e-15
7.26617e-15
2.13723e-15
1.00313e-14
9.13305e-15
9.86746e-15
1.24493e-14
1.53505e-14
8.30202e-15
1.02949e-14
1.88281e-14
1.18227e-14
1.19365e-14
8.61295e-15
4.16675e-15
8.49969e-15
3.48495e-15
4.96884e-15
8.14289e-15
9.86326e-15
9.12523e-15
1.02925e-14
1.24744e-14
1.4068e-14
8.8607e-15
1.1383e-14
7.57267e-15
7.23852e-15
1.31318e-14
4.16333e-15
1.04265e-14
8.51049e-15
1.43971e-14
1.00328e-14
4.33336e-15
8.91106e-15
4.35472e-15
1.03001e-14
6.64723e-15
9.91094e-15
5.57955e-15
5.01912e-15
7.46319e-15
1.23537e-14
1.43243e-14
9.71327e-15
4.85267e-15
4.84849e-15
6.00966e-15
9.55701e-15
5.31654e-15
7.62444e-15
8.23325e-15
6.9329e-15
7.15811e-15
4.96516e-15
1.07519e-14
7.95813e-15
1.12851e-14
1.13139e-14
2.3894e-15
9.52061e-15
5.61572e-15
4.71595e-15
8.6334e-15
1.1066e-14
1.42905e-14
4.99836e-15
5.88583e-15
8.45552e-15
3.87346e-15
5.80661e-15
6.05001e-15
8.49022e-15
8.22878e-15
7.99983e-15
1.33124e-14
1.52082e-14
1.02115e-14
1.21494e-14
1.02157e-14
1.03056e-14
1.06031e-14
3.91202e-15
4.43917e-15
7.011e-15
9.28069e-15
1.28655e-14
1.54372e-14
1.38588e-14
6.93004e-15
7.8024e-15
1.7778e-14
1.92517e-14
1.73098e-14
1.09984e-14
1.70826e-14
1.13329e-14
1.58827e-14
1.05052e-14
9.27285e-15
1.0176e-14
1.53125e-14
9.29931e-15
9.6994e-15
6.5335e-15
1.13389e-14
7.13833e-15
1.26017e-14
7.94484e-15
8.40563e-15
6.6445e-15
6.11727e-15
9.32568e-15
1.52095e-14
1.1305e-14
1.33107e-14
1.10021e-14
1.39838e-14
1.12647e-14
1.11633e-14
9.26893e-15
5.84429e-15
1.00642e-14
9.51134e-15
6.16023e-15
8.14046e-15
7.12869e-15
1.03059e-14
1.06774e-14
1.15108e-14
6.58955e-15
6.55942e-15
1.05742e-14
1.16306e-14
7.17974e-15
1.12361e-14
8.8573e-15
1.25246e-14
3.62345e-15
1.07083e-14
8.31168e-15
9.69997e-15
3.75772e-15
6.94837e-15
9.29242e-15
1.17393e-14
7.28914e-15
3.22922e-15
5.90434e-15
9.09159e-15
1.11725e-14
1.24255e-14
8.76539e-15
6.99442e-15
8.19477e-15
1.2162e-14
1.35857e-14
1.29618e-14
1.33035e-14
1.0421e-14
1.42629e-14
1.04621e-14
8.36405e-15
9.64697e-15
1.4317e-14
9.95463e-15
1.25868e-14
4.69993e-15
2.46648e-15
2.92328e-15
8.5802e-15
5.73581e-15
8.41033e-15
7.31413e-15
1.27753e-14
9.43768e-15
1.01223e-14
1.05879e-14
1.60047e-14
8.96749e-15
8.35864e-15
7.18455e-15
8.06028e-15
7.322e-15
1.18616e-14
1.17029e-14
9.10158e-15
3.93182e-15
6.17754e-15
1.22645e-14
1.95724e-14
1.6022e-14
9.42917e-15
8.65457e-15
6.62086e-15
1.55478e-14
1.42861e-14
1.52119e-14
2.15413e-14
1.75549e-14
1.34148e-14
1.16163e-14
7.14618e-15
1.09789e-14
1.01323e-14
9.21013e-15
7.51523e-15
1.11166e-14
1.00773e-14
1.43587e-14
1.68234e-14
1.42059e-14
1.66551e-14
2.17036e-14
1.25814e-14
1.64773e-14
1.46949e-14
1.30274e-14
1.97541e-14
1.39414e-14
1.06795e-14
1.52086e-14
1.35231e-14
1.61456e-14
7.25928e-15
7.32792e-15
1.00444e-14
1.15287e-14
1.39119e-14
1.42905e-14
1.0596e-14
1.22694e-14
4.14763e-15
5.74461e-15
6.15664e-15
8.07105e-15
5.09997e-15
7.97366e-15
5.05722e-15
3.91507e-15
6.10209e-15
1.24598e-14
1.39353e-14
1.14595e-14
6.09778e-15
9.63524e-15
9.35126e-15
1.41731e-14
1.40696e-14
1.42948e-14
1.24012e-14
6.53523e-15
3.43273e-15
1.00972e-14
9.17894e-15
1.57168e-14
2.05811e-14
1.78583e-14
1.75807e-14
1.72425e-14
1.73335e-14
1.0126e-14
1.58824e-14
1.17355e-14
1.2867e-14
8.57392e-15
4.48581e-15
1.18572e-14
1.89166e-14
1.59925e-14
1.80239e-14
1.19816e-14
1.27782e-14
1.09637e-14
1.54806e-14
1.47139e-14
1.54061e-14
1.59972e-14
1.55045e-14
1.27237e-14
1.3502e-14
1.40475e-14
1.3447e-14
8.2033e-15
3.67294e-15
2.96155e-15
8.48894e-15
7.32598e-15
1.16878e-14
1.27983e-14
1.01987e-14
1.02408e-14
7.01588e-15
4.50551e-15
2.11535e-15
6.21841e-15
2.66256e-15
1.32424e-14
1.13602e-14
7.88831e-15
7.80177e-15
8.87091e-15
1.01961e-14
1.08378e-14
3.01893e-15
5.66713e-15
6.07493e-15
1.42956e-14
4.61296e-15
4.45618e-15
1.3647e-14
1.55568e-14
1.20387e-14
9.59326e-15
1.31192e-14
1.43002e-14
1.64864e-14
1.18183e-14
1.00438e-14
6.71363e-15
1.53387e-14
1.87442e-14
7.92474e-15
1.04906e-14
9.98217e-15
2.12136e-14
2.49742e-14
9.6826e-15
3.74097e-15
1.15641e-14
8.70825e-15
4.33069e-15
4.70257e-15
3.56254e-15
6.00544e-15
1.00215e-14
8.56222e-15
1.00787e-14
8.05962e-15
1.83661e-14
8.05704e-15
1.16056e-14
7.6714e-15
9.43107e-15
1.34839e-14
1.60401e-14
2.09092e-14
1.66861e-14
1.73361e-14
1.11369e-14
6.03585e-15
6.36299e-15
4.67023e-15
1.17689e-14
1.53362e-14
1.18883e-14
1.07054e-14
1.01868e-14
6.55371e-15
8.4162e-15
1.14498e-14
1.62088e-14
1.16631e-14
1.11188e-14
4.74783e-15
1.34673e-14
7.75717e-15
1.03049e-14
6.3587e-15
9.52882e-15
5.62671e-15
1.09596e-14
1.03325e-14
1.05904e-14
1.42586e-14
1.57349e-14
7.72779e-15
1.04021e-14
1.13024e-14
1.78249e-14
1.70772e-14
1.31322e-14
4.3927e-15
5.85927e-15
3.15436e-15
1.04401e-14
1.07868e-14
1.57616e-14
1.30222e-14
8.78329e-15
1.17089e-14
9.15218e-15
1.55879e-14
1.18796e-14
1.62652e-14
8.67635e-15
7.0795e-15
9.46895e-15
1.6274e-14
1.94741e-14
1.63349e-14
7.46842e-15
8.67899e-15
1.61416e-14
1.53514e-14
9.12318e-15
9.0691e-15
8.91902e-15
9.33627e-15
5.48376e-15
4.23144e-15
5.67507e-15
7.59118e-15
9.97742e-15
1.16658e-14
8.39871e-15
6.57549e-15
1.12964e-14
1.77465e-14
1.53988e-14
5.06792e-15
7.74205e-15
6.34672e-15
8.63036e-15
1.7857e-14
1.25826e-14
9.62344e-15
9.44414e-15
6.68703e-15
8.1633e-15
6.11194e-15
1.03513e-14
1.16355e-14
1.09889e-14
8.37365e-15
4.6186e-15
5.35424e-15
1.01502e-14
1.73003e-14
1.38445e-14
1.30808e-14
6.59349e-15
1.32536e-14
1.68107e-14
1.8103e-14
1.29582e-14
1.14617e-14
7.67172e-15
1.02185e-14
1.54186e-14
1.04008e-14
9.69679e-15
1.53972e-14
1.79065e-14
1.37813e-14
9.24661e-15
2.94454e-15
7.60441e-15
6.08333e-15
1.75606e-14
1.36586e-14
6.92191e-15
6.97243e-15
7.93816e-15
6.39407e-15
4.60747e-15
8.30182e-15
5.13729e-15
4.4242e-15
1.26686e-14
8.62096e-15
5.65668e-15
8.17416e-15
8.13919e-15
9.18606e-15
1.07386e-14
8.75411e-15
1.12129e-14
7.53225e-15
8.55773e-15
1.27918e-14
9.1882e-15
3.5657e-15
1.0401e-14
2.1098e-14
8.27899e-15
1.9165e-14
9.82522e-15
1.56996e-14
1.55265e-14
1.98102e-14
1.22963e-14
1.48915e-14
8.90578e-15
1.39593e-14
1.45546e-14
2.28104e-14
7.82212e-15
1.12164e-14
2.44292e-15
8.65741e-15
3.90617e-15
2.27504e-14
1.76124e-14
7.98371e-15
3.24994e-15
9.11055e-15
5.77916e-15
5.01642e-15
4.6265e-15
6.94497e-15
6.62968e-15
6.9705e-15
4.72139e-15
1.11808e-14
1.2934e-14
1.68829e-14
3.77089e-15
6.68054e-15
9.39502e-15
8.31573e-15
1.21248e-14
1.99617e-14
9.64088e-15
1.09711e-14
1.13929e-14
1.02852e-14
9.77267e-15
1.09799e-14
1.4945e-14
1.92197e-14
2.60365e-15
1.28114e-14
9.90219e-15
9.28596e-15
9.28765e-15
5.05233e-15
8.19101e-15
1.67862e-14
6.88304e-15
1.89351e-14
1.54116e-14
1.21549e-14
1.52123e-14
1.5297e-14
1.32267e-14
1.65355e-14
4.72074e-15
1.5651e-14
1.00529e-14
1.2723e-14
1.24262e-14
1.11571e-14
1.43178e-14
1.39686e-14
8.30452e-15
1.4058e-14
1.49685e-14
1.31173e-14
1.3875e-14
1.05086e-14
1.61555e-14
9.58211e-15
6.65682e-15
7.74916e-15
9.37129e-15
9.1523e-15
1.26787e-14
4.76944e-15
1.05375e-14
1.45304e-14
1.5118e-14
1.28052e-14
1.54324e-14
1.21176e-14
8.53543e-15
9.61888e-15
4.81542e-15
7.23991e-15
7.55222e-15
1.0537e-14
1.46979e-14
9.68004e-15
9.2758e-15
9.06735e-15
1.43859e-14
1.52684e-14
1.6742e-14
1.56398e-14
1.4094e-14
1.37253e-14
1.53509e-14
1.18845e-14
1.45571e-14
1.24561e-14
2.26273e-15
8.51497e-15
7.47404e-15
4.55826e-15
8.47166e-15
5.42088e-15
1.6363e-14
1.66674e-14
7.87472e-15
6.12153e-15
7.43696e-15
5.71749e-15
1.03493e-14
7.46062e-15
1.00049e-14
7.55208e-15
9.96559e-15
8.67886e-15
6.65475e-15
9.76646e-15
6.55677e-15
4.82856e-15
7.30394e-15
3.68116e-15
9.33115e-15
1.71414e-14
1.04083e-14
1.19631e-14
1.14969e-14
1.25045e-14
1.22728e-14
1.25366e-14
1.34005e-14
7.91781e-15
5.79192e-15
3.68936e-15
1.01947e-14
8.79841e-15
1.7581e-14
8.11477e-15
4.75166e-15
1.10879e-14
1.0661e-14
1.37929e-14
1.00859e-14
1.03028e-14
1.66019e-14
1.71557e-14
1.39556e-14
7.03956e-15
6.11071e-15
9.79018e-15
1.1349e-14
8.22419e-15
1.22483e-14
1.15159e-14
9.00303e-15
1.64278e-14
2.02629e-14
1.63105e-14
9.50054e-15
1.13611e-14
1.22458e-14
1.08414e-14
1.16013e-14
1.35114e-14
6.18886e-15
6.03797e-15
2.80482e-15
7.01336e-15
1.2027e-14
1.32498e-14
1.49382e-14
1.93798e-14
2.6703e-14
2.15301e-14
1.70542e-14
1.74866e-14
1.93813e-14
1.46742e-14
1.16099e-14
1.42638e-14
1.43426e-14
1.2964e-14
1.04738e-14
4.59793e-15
5.21512e-15
6.2952e-15
1.59644e-14
1.04956e-14
1.59465e-14
1.19629e-14
1.3e-14
6.55755e-15
1.28674e-14
8.5287e-15
8.72073e-15
4.44168e-15
5.01155e-15
8.75174e-15
8.58164e-15
1.0032e-15
6.19167e-15
7.97351e-15
6.11815e-15
1.42908e-14
1.44282e-14
9.4531e-15
1.16138e-14
7.61081e-15
1.03595e-14
5.46189e-15
9.4713e-15
9.43566e-15
1.09906e-14
6.91095e-15
5.95237e-15
9.43651e-15
1.34083e-14
1.16491e-14
7.37165e-15
6.2654e-15
6.40668e-15
1.10756e-14
1.36107e-14
1.08419e-14
8.20141e-15
9.1236e-15
1.13965e-14
1.14777e-14
1.04682e-14
4.93709e-15
2.51471e-15
4.61175e-15
7.91793e-15
8.0284e-15
1.31111e-14
6.99838e-15
1.88041e-15
4.84303e-15
4.82981e-15
9.82125e-15
1.3295e-14
1.336e-14
1.27542e-14
1.00605e-14
1.15208e-14
1.04322e-14
8.32418e-15
6.6028e-15
8.53173e-15
7.7744e-15
8.06155e-15
9.1786e-15
5.78096e-15
4.46627e-15
2.50517e-15
6.05904e-15
5.16065e-15
1.16267e-14
1.29559e-14
1.04806e-14
6.15645e-15
9.50107e-15
1.41019e-14
5.41078e-15
4.10053e-15
6.92879e-15
7.07948e-15
1.14371e-14
1.57209e-14
1.42876e-14
1.53945e-14
1.81e-14
1.92457e-14
1.77325e-14
1.44196e-14
2.04015e-14
1.70383e-14
1.30965e-14
9.40928e-15
9.90855e-15
9.55108e-15
2.48346e-15
5.312e-15
8.7059e-15
8.28497e-15
9.97124e-15
1.36908e-14
2.72689e-15
1.10898e-14
1.02739e-14
6.05777e-15
4.09677e-15
7.96246e-15
9.18008e-15
1.16211e-14
6.56969e-15
8.01281e-15
4.49203e-15
1.12306e-14
1.35781e-14
1.5723e-14
9.41842e-15
6.18702e-15
5.03392e-15
5.28226e-15
2.66303e-15
5.0614e-15
4.4562e-15
9.19671e-15
6.33641e-15
8.56984e-15
5.56268e-15
8.43759e-15
6.00841e-15
9.27757e-15
1.25564e-14
1.15552e-14
1.115e-14
7.49247e-15
1.22055e-14
1.32707e-14
1.27925e-14
9.86014e-15
7.24352e-15
1.13233e-14
9.05339e-15
1.42321e-15
5.61895e-15
3.24394e-15
2.68193e-15
1.17655e-14
7.7788e-15
1.24824e-14
1.07016e-14
1.23622e-14
9.34361e-15
1.21543e-14
1.72329e-14
7.67706e-15
3.55829e-15
7.08687e-15
4.01309e-15
2.87847e-15
6.50997e-15
1.10692e-14
7.49404e-15
3.68283e-15
6.83316e-15
9.67675e-15
9.59069e-15
1.19564e-14
1.50278e-14
1.59997e-14
1.5374e-14
9.42717e-15
3.69498e-15
7.99368e-15
1.08353e-14
1.44782e-14
1.48419e-14
1.0486e-14
4.53905e-15
5.61205e-15
6.02158e-15
1.07022e-14
1.77271e-14
1.2401e-14
4.07348e-15
3.59379e-15
5.05843e-15
5.96266e-15
1.03896e-14
3.14943e-15
8.14236e-15
1.02293e-14
1.18833e-14
1.21958e-14
8.25423e-15
5.35448e-15
8.95175e-15
7.66217e-15
3.69521e-15
1.34302e-14
1.29795e-14
1.77334e-14
9.92467e-15
1.82185e-14
2.241e-14
1.445e-14
7.89269e-15
6.37358e-15
6.05026e-15
7.85128e-15
4.89196e-15
1.70195e-15
7.14213e-15
7.89296e-15
1.53408e-14
1.5065e-14
1.90676e-14
1.89186e-14
1.26552e-14
1.07003e-14
1.25547e-15
2.77218e-15
2.77721e-15
2.99011e-15
3.88535e-15
6.2814e-15
3.15119e-15
6.99855e-15
5.33704e-15
1.34973e-14
1.12007e-14
8.39249e-15
5.31504e-15
6.88664e-15
6.83051e-15
8.47689e-15
1.16896e-14
1.24568e-14
1.10767e-14
3.12109e-15
9.64757e-15
6.5235e-15
8.11004e-15
1.07268e-14
7.77341e-15
1.51463e-14
5.60551e-15
1.12498e-14
1.05273e-14
4.28484e-15
1.2514e-14
1.6036e-14
6.6296e-15
1.46827e-14
8.78139e-15
1.11699e-14
9.46316e-15
1.12131e-14
1.74767e-14
1.78657e-14
1.28511e-14
1.87936e-14
1.19829e-14
1.0186e-14
1.78853e-14
1.56758e-14
1.91164e-14
1.24324e-14
1.90214e-14
1.9319e-14
1.17847e-14
9.92668e-15
1.78423e-14
9.72767e-15
7.99222e-15
6.21538e-15
9.32363e-15
7.61534e-15
1.10217e-14
7.09132e-15
1.63545e-14
1.52765e-14
7.75828e-15
8.56648e-15
3.47434e-15
8.0025e-15
8.58781e-15
4.58839e-15
1.61414e-14
5.39539e-15
5.07166e-15
5.91456e-15
8.43519e-15
7.06943e-15
3.68168e-15
6.36988e-15
1.33591e-14
5.77984e-15
1.34503e-14
1.3116e-14
1.269e-14
1.98649e-14
1.69294e-14
5.35715e-15
1.21981e-14
8.12134e-15
6.43677e-15
8.00232e-15
6.69333e-15
1.02991e-14
1.14666e-14
1.76256e-14
2.55835e-14
1.43016e-14
7.75259e-15
1.37323e-14
1.1989e-14
9.02716e-15
1.17873e-14
7.13137e-15
5.0677e-15
4.69305e-15
7.11706e-15
8.17544e-15
7.56257e-15
1.31821e-14
2.25457e-14
1.42217e-14
2.17608e-14
1.60745e-14
7.9882e-15
1.41121e-15
7.38646e-15
1.07946e-14
1.35577e-14
2.05205e-14
1.88504e-14
1.29783e-14
7.64828e-15
1.14542e-14
1.34073e-14
1.24976e-14
1.23796e-14
3.07063e-15
9.13147e-15
3.72286e-15
4.15425e-15
3.41011e-15
1.03169e-14
9.08434e-15
7.51142e-15
2.02834e-15
7.76703e-15
1.1364e-14
1.28e-14
1.49944e-14
2.3797e-14
1.80659e-14
1.9254e-14
1.5262e-14
1.66697e-14
1.43801e-14
1.57342e-14
1.48157e-14
1.23033e-14
9.71883e-15
9.79587e-15
1.4184e-14
1.16614e-14
1.5041e-14
1.21673e-14
1.25893e-14
5.0189e-15
1.37528e-14
8.24774e-15
6.43391e-15
3.74431e-15
8.12979e-15
1.8456e-14
2.1001e-14
1.18335e-14
8.55081e-15
5.67411e-15
1.24853e-14
1.33909e-14
3.97087e-15
9.56516e-15
1.61881e-14
8.04049e-15
1.05954e-14
1.41823e-14
1.47879e-14
9.26768e-15
1.62166e-14
1.82139e-14
3.96957e-15
6.42646e-15
8.90327e-15
8.6827e-15
1.20981e-14
1.41134e-14
1.381e-14
1.16523e-14
4.11139e-15
3.76359e-15
8.16456e-15
1.29512e-14
1.60546e-14
1.11795e-14
2.78921e-14
2.0138e-14
9.80101e-15
1.1354e-14
1.00855e-14
2.20393e-14
1.56103e-14
7.19596e-15
1.16949e-14
7.43463e-15
1.44737e-14
1.61823e-14
8.50246e-15
1.30173e-14
1.48549e-14
2.12832e-14
8.40617e-15
6.7456e-15
1.20027e-14
1.81372e-14
5.81133e-15
4.13641e-15
1.30774e-14
1.78804e-14
1.54798e-14
1.09775e-14
2.35658e-14
2.24874e-14
1.23537e-14
1.76216e-14
1.36178e-14
1.64806e-14
7.72997e-15
2.71051e-15
7.39006e-15
1.74056e-14
1.1924e-14
1.30756e-14
1.29541e-14
8.46638e-15
2.08068e-15
7.23689e-15
5.48641e-15
9.12446e-15
1.16629e-14
1.72388e-14
1.33265e-14
9.99163e-15
1.77737e-14
1.77351e-14
1.74608e-14
1.42289e-14
1.10627e-14
1.73689e-14
1.8587e-14
1.16975e-14
5.06423e-15
5.1074e-15
2.91413e-15
5.57147e-15
7.33442e-15
4.5798e-15
7.05006e-15
5.39071e-15
4.39862e-15
5.37818e-15
1.26628e-14
8.79452e-15
2.67014e-14
1.84696e-14
6.00847e-15
9.88269e-15
1.13904e-14
4.52486e-15
1.56895e-14
7.53458e-15
7.43651e-15
7.10372e-15
1.51389e-14
2.41644e-14
2.88778e-14
1.65414e-14
9.02324e-15
7.09194e-15
5.95433e-15
6.116e-15
2.30491e-15
4.7762e-15
8.0318e-15
1.65021e-14
1.48637e-14
7.15498e-15
5.79875e-15
7.72685e-15
7.96225e-15
9.45502e-15
1.32054e-14
1.23551e-14
1.43459e-14
1.03322e-14
7.40795e-15
4.56764e-15
9.38484e-15
4.99048e-15
2.78341e-15
8.52602e-15
7.48923e-15
1.22464e-14
8.72739e-15
9.53509e-15
8.8818e-15
1.09714e-14
9.02893e-15
9.12984e-15
1.22418e-14
1.0628e-14
9.00163e-15
7.77281e-15
4.38468e-15
3.55612e-15
6.81573e-15
1.47758e-14
1.0344e-14
1.29155e-14
8.07827e-15
1.64632e-14
1.82168e-14
2.22473e-14
3.02075e-14
1.90938e-14
8.91524e-15
8.88199e-15
5.17819e-15
1.44753e-14
8.64808e-15
8.05676e-15
1.04806e-14
9.33443e-15
2.53888e-15
3.63462e-15
7.31973e-15
1.31395e-14
7.8207e-15
1.79261e-14
1.77815e-14
1.18649e-14
1.35829e-14
1.52465e-14
1.24827e-14
1.78359e-14
1.48338e-14
1.65988e-14
1.64404e-14
4.50944e-15
1.03377e-14
9.18067e-15
8.04752e-15
1.02212e-14
7.7757e-15
1.30182e-14
1.18459e-14
6.08892e-15
3.71142e-15
3.78611e-15
7.4722e-15
1.22071e-14
1.18919e-14
1.21625e-14
7.3456e-15
7.47702e-15
3.49094e-15
6.68074e-15
6.18682e-15
2.7006e-15
8.19182e-15
7.37139e-15
2.16839e-14
2.83591e-14
1.29582e-14
1.16521e-14
1.13658e-14
4.47642e-15
7.49637e-15
6.99366e-15
6.65756e-15
4.62037e-15
1.43852e-14
1.08101e-14
5.44465e-15
3.81998e-15
6.67932e-15
5.69084e-15
4.76984e-15
5.38896e-15
6.53774e-15
4.80822e-15
5.22017e-15
1.00733e-14
1.28132e-14
9.75513e-15
8.20573e-15
8.02206e-15
5.83e-15
7.69888e-15
6.48263e-15
8.45375e-15
8.53493e-15
6.15487e-15
6.10575e-15
8.15078e-15
7.14316e-15
4.49585e-15
4.74549e-15
1.89531e-15
3.06324e-15
3.88834e-15
2.73234e-15
6.40126e-15
9.92329e-15
3.36046e-15
6.2926e-15
3.07142e-15
7.94001e-15
6.04708e-15
1.22759e-14
1.33874e-14
1.63767e-14
1.6481e-14
9.4566e-15
6.12736e-15
7.32333e-15
8.7228e-15
4.20676e-15
8.19424e-15
1.48322e-14
1.12321e-14
5.47109e-15
4.19358e-15
5.60744e-15
6.32078e-15
3.71596e-15
1.13607e-14
1.58903e-14
1.11344e-14
4.51864e-15
9.31956e-15
1.45649e-14
6.51831e-15
9.69517e-15
6.87899e-15
4.68187e-15
4.18476e-15
5.87871e-15
6.3329e-15
3.50534e-15
4.3011e-15
1.05189e-14
1.53606e-14
1.39084e-14
6.34385e-15
3.17933e-15
9.39264e-15
8.22358e-15
4.22322e-15
5.18377e-15
5.96316e-15
6.05702e-15
6.24759e-15
5.71337e-15
4.44613e-15
7.54809e-15
5.78337e-15
5.6403e-15
1.24398e-14
1.46244e-14
1.91898e-14
2.72489e-15
9.51226e-15
9.44105e-15
7.94798e-15
8.03724e-15
4.951e-15
1.1835e-15
4.20941e-15
6.67632e-15
7.1881e-15
6.7288e-15
6.52072e-15
3.64158e-15
5.95472e-15
2.87703e-15
5.44812e-15
5.864e-15
1.02587e-14
7.64786e-15
7.1393e-15
4.83154e-15
7.14771e-15
5.04553e-15
4.63475e-15
2.80608e-15
5.91334e-15
5.90595e-15
9.15388e-15
5.7209e-15
5.3234e-15
5.07938e-15
8.99213e-15
9.03427e-15
4.62876e-15
3.37163e-15
1.10183e-15
4.74473e-15
1.22372e-15
3.39421e-15
5.6324e-15
8.46169e-15
8.3335e-15
3.00429e-15
3.76397e-15
5.56036e-15
7.63451e-15
9.80861e-15
9.30879e-15
1.20431e-14
1.37462e-14
1.15235e-14
7.38415e-15
8.29615e-15
8.52058e-15
6.48575e-15
1.31705e-14
1.0647e-14
9.63971e-15
4.24893e-15
7.17954e-15
2.11638e-15
2.49785e-15
8.45013e-15
5.07617e-15
2.34839e-15
6.06441e-15
7.43522e-15
4.18539e-15
6.75225e-15
3.85304e-15
9.63819e-16
4.56442e-15
6.74344e-15
7.08746e-15
9.75982e-15
2.56171e-15
7.03435e-15
6.70698e-15
9.51951e-15
1.22212e-14
9.72422e-15
4.59001e-15
4.72093e-15
6.68523e-15
4.52605e-15
4.22375e-15
2.35058e-15
2.0573e-15
2.2138e-15
4.32541e-15
5.494e-15
4.40144e-15
2.20712e-15
6.96485e-15
1.075e-14
1.21997e-14
1.19652e-14
9.27502e-15
6.16452e-15
4.4748e-15
5.56368e-15
6.64065e-15
4.91659e-15
5.54551e-15
6.74712e-15
6.09547e-15
7.21868e-15
5.41655e-15
6.1772e-15
1.57048e-15
6.8136e-15
5.02344e-15
9.98762e-15
8.02851e-15
5.39969e-15
5.87062e-15
3.51743e-15
3.93846e-15
5.46516e-15
2.80212e-15
4.42675e-15
3.5676e-15
8.06853e-15
6.66132e-15
4.65892e-15
9.29297e-15
1.41813e-14
8.59611e-15
1.06629e-14
9.96701e-15
1.1186e-14
3.4709e-15
5.54267e-15
5.14682e-15
2.83868e-15
8.22921e-15
8.63643e-15
1.08174e-14
1.27866e-14
6.63796e-15
4.13267e-15
4.17844e-15
4.45924e-15
9.92358e-15
1.43536e-14
1.15251e-14
1.26101e-14
9.72979e-15
5.82268e-15
5.81179e-15
9.73177e-15
5.33381e-15
3.73305e-15
4.35296e-15
3.93736e-15
3.36317e-15
8.61396e-16
3.54295e-15
7.333e-15
6.71275e-15
8.01153e-15
6.04886e-15
3.14797e-15
4.0842e-15
3.94912e-15
5.60226e-15
5.33201e-15
8.13856e-15
1.01031e-14
1.15427e-14
9.23103e-15
1.54898e-14
8.56205e-15
3.27177e-15
3.32795e-15
8.5165e-15
1.42968e-14
1.56527e-14
7.95188e-15
4.91679e-15
2.6409e-15
4.48158e-15
4.83134e-15
8.0126e-15
5.62195e-15
5.69414e-15
6.76328e-15
5.14132e-15
6.85736e-15
6.62289e-15