/*--------------------------------*- C++ -*----------------------------------*\
| =========                 |                                                 |
| \\      /  F ield         | OpenFOAM: The Open Source CFD Toolbox           |
|  \\    /   O peration     | Version:  2406                                  |
|   \\  /    A nd           | Website:  www.openfoam.com                      |
|    \\/     M anipulation  |                                                 |
\*---------------------------------------------------------------------------*/
FoamFile
{
    version     2.0;
    format      ascii;
    arch        "LSB;label=32;scalar=64";
    class       volVectorField;
    location    "0.01";
    object      U;
}
// * * * * * * * * * * * * * * * * * * * * * * * * * * * * * * * * * * * * * //

dimensions      [0 1 -1 0 0 0 0];

internalField   nonuniform List<vector> 
13988
(
(1.79074e-14 3.38057e-12 1.05196e-11)
(-1.54371e-12 3.15068e-12 3.95824e-12)
(2.63489e-13 2.70308e-12 -1.49609e-12)
(1.10687e-12 3.4386e-12 -3.51405e-12)
(-1.24559e-12 2.1012e-12 -3.02926e-12)
(-3.48783e-12 5.90047e-12 -4.75098e-12)
(-2.26031e-12 4.3885e-12 -3.8752e-12)
(-1.65907e-12 2.98507e-12 -4.10489e-12)
(1.23435e-13 4.42361e-12 -6.93317e-12)
(3.08114e-12 3.33497e-12 -1.26761e-11)
(2.08841e-12 6.056e-12 -1.78409e-11)
(1.72523e-12 2.04695e-12 -1.65443e-11)
(2.49077e-12 -5.55598e-13 -1.17278e-11)
(1.39673e-12 -1.80932e-12 -1.02283e-11)
(5.19242e-14 -2.08378e-12 -5.85595e-12)
(8.21583e-13 4.01153e-13 1.38327e-12)
(2.63102e-13 2.19717e-12 5.08183e-12)
(-9.0856e-14 5.14989e-12 -2.3309e-12)
(-1.27359e-12 1.98782e-12 -6.25462e-12)
(-1.79625e-12 2.93111e-12 -1.1382e-11)
(-1.43951e-12 -4.6306e-13 -1.11619e-11)
(-3.12431e-12 -1.10886e-12 -1.28738e-11)
(-2.55438e-12 -1.92946e-13 -8.65727e-12)
(-9.71411e-13 7.7375e-13 -5.70873e-12)
(-9.96142e-14 2.92478e-12 -6.68635e-12)
(-2.12022e-13 2.99905e-12 -5.3432e-12)
(-6.76262e-13 2.68363e-12 -7.45928e-12)
(-1.24067e-12 1.48246e-12 -5.56573e-12)
(-5.1777e-13 1.88043e-12 -5.73314e-12)
(1.18699e-12 2.51437e-12 -5.38381e-12)
(1.61176e-12 8.12979e-13 -4.26555e-12)
(1.64736e-12 2.16407e-12 -5.8811e-12)
(1.80791e-12 2.69067e-12 -6.82767e-12)
(1.4882e-12 1.81756e-12 -7.46285e-12)
(2.53198e-12 2.11025e-12 -1.1998e-11)
(2.91512e-12 1.33253e-12 -8.36571e-12)
(-7.3927e-13 3.52272e-12 -1.02641e-11)
(-2.45486e-12 3.29126e-12 -1.62769e-11)
(-2.17983e-12 4.33591e-12 -1.95752e-11)
(-3.06383e-12 4.77358e-12 -1.6118e-11)
(-3.16189e-13 2.93538e-12 -1.20731e-11)
(-3.52746e-13 5.4365e-12 -1.14999e-11)
(-9.30871e-13 5.80233e-12 -9.1817e-12)
(8.3662e-13 4.41992e-12 -7.41249e-12)
(1.55483e-12 6.9405e-12 -2.1261e-12)
(3.49729e-12 1.01133e-12 5.11456e-12)
(3.57812e-12 1.36802e-12 1.21926e-11)
(1.5903e-13 1.68117e-12 1.07156e-11)
(-3.39314e-12 -6.40689e-13 5.00957e-12)
(-1.25074e-12 -4.80521e-13 -2.92523e-13)
(4.18443e-13 2.30608e-12 -2.55221e-12)
(-1.52316e-14 1.28692e-12 -8.80445e-12)
(-2.74548e-13 1.24632e-12 -4.1784e-12)
(-7.67635e-14 2.79163e-12 -5.94428e-12)
(2.47979e-12 9.91817e-13 -8.29553e-12)
(5.06962e-14 2.63028e-12 -3.46539e-12)
(-2.16167e-12 3.67209e-12 6.70107e-13)
(-9.0665e-13 3.86835e-13 3.52341e-12)
(-9.38707e-13 1.52059e-12 6.58041e-12)
(9.28208e-13 2.50994e-12 6.7255e-12)
(8.39542e-13 4.76509e-12 3.19103e-12)
(-1.25058e-12 5.39733e-12 -4.17e-12)
(-2.73118e-13 4.64274e-12 -1.255e-11)
(1.44158e-12 3.2668e-12 -1.09303e-11)
(4.41677e-13 3.45952e-12 -9.26411e-12)
(-1.94757e-12 4.10151e-12 -1.04401e-11)
(-2.09523e-12 6.60731e-12 -1.0812e-11)
(-1.031e-12 5.83967e-12 -1.29242e-11)
(-7.93714e-13 2.72017e-12 -1.24922e-11)
(-3.11179e-13 2.98927e-12 -1.10999e-11)
(-4.66918e-13 1.2947e-12 -9.13676e-12)
(6.96255e-14 2.48654e-13 -1.34517e-11)
(1.45464e-12 1.05952e-12 -1.1294e-11)
(-5.63361e-14 3.47316e-12 -1.14801e-11)
(2.13375e-14 2.22056e-12 -1.12769e-11)
(1.65369e-12 2.1055e-12 -1.44029e-11)
(2.44392e-12 2.07677e-12 -1.27984e-11)
(4.10579e-13 2.02941e-12 -1.13962e-11)
(-1.1665e-12 5.60642e-13 -1.14816e-11)
(4.88112e-13 1.73563e-12 -1.02989e-11)
(-2.63098e-13 5.30622e-13 -4.45611e-12)
(-1.95351e-12 -1.93489e-13 -1.26947e-11)
(2.383e-13 2.77154e-12 -1.73113e-11)
(2.25251e-12 1.80313e-12 -2.19224e-11)
(4.00606e-13 4.34469e-12 -1.96318e-11)
(-7.48898e-14 3.8213e-12 -2.28572e-11)
(1.74116e-12 2.27325e-12 -1.8128e-11)
(-1.02378e-12 4.87778e-12 -1.06812e-11)
(-2.72849e-12 2.68952e-12 -1.21447e-11)
(-4.12471e-13 1.28985e-12 -9.54827e-12)
(9.06967e-13 -5.90683e-13 -6.90226e-12)
(9.8434e-13 2.97368e-12 -6.85964e-12)
(1.34827e-12 2.97147e-12 -6.17649e-12)
(7.87496e-13 4.49574e-12 -9.38968e-12)
(8.34083e-15 3.45956e-12 -1.19015e-11)
(5.45113e-13 1.07744e-12 -8.14767e-12)
(-1.38307e-12 -1.44846e-12 -1.11782e-13)
(-3.05523e-12 4.00209e-13 -2.68133e-12)
(-3.16248e-13 1.27456e-12 -4.39444e-12)
(1.00606e-12 1.81378e-12 -1.36349e-12)
(4.84147e-13 1.98093e-12 -3.13867e-12)
(4.33083e-13 2.92692e-12 1.16713e-11)
(-8.09835e-13 2.32922e-12 5.12322e-12)
(-4.07635e-13 -7.96515e-14 -1.81907e-12)
(3.81647e-13 2.5929e-12 -1.39032e-12)
(-1.76389e-12 1.5922e-12 -3.73249e-12)
(-2.91238e-12 2.25194e-12 -8.84375e-12)
(-2.16332e-12 1.5213e-12 -5.24016e-12)
(-2.55731e-12 2.78042e-12 -4.57134e-12)
(7.0396e-13 9.90698e-13 -6.83394e-12)
(2.57525e-12 -4.18752e-13 -1.46442e-11)
(2.41122e-12 1.04409e-12 -1.53794e-11)
(4.65487e-12 1.47475e-12 -1.87446e-11)
(4.6164e-12 -8.73262e-13 -1.17044e-11)
(8.35853e-13 -3.88653e-14 -6.50832e-12)
(-1.06505e-12 -1.13601e-12 -9.88383e-13)
(-9.14555e-13 1.81283e-14 3.50144e-12)
(-8.28146e-13 2.18956e-12 5.36935e-12)
(-3.75124e-13 2.04131e-12 -5.59184e-12)
(-5.91941e-13 1.56261e-12 -1.24876e-11)
(-1.00832e-12 -1.40083e-12 -1.67695e-11)
(9.04683e-14 -1.81106e-13 -1.27948e-11)
(-1.62306e-12 2.99915e-13 -1.10392e-11)
(-2.9871e-12 -1.52317e-13 -6.82156e-12)
(-3.3343e-12 -1.61857e-13 -4.27417e-12)
(-8.23197e-13 -2.34704e-13 -5.38287e-12)
(8.64733e-14 5.71479e-13 -4.45865e-12)
(-5.92244e-13 9.80656e-13 -4.6957e-12)
(-6.94232e-13 2.16645e-12 -5.48493e-12)
(-9.78485e-13 1.47713e-12 -7.3186e-12)
(1.0275e-12 1.94849e-12 -8.08367e-12)
(1.68722e-12 2.05404e-12 -2.19326e-12)
(1.64346e-12 2.27014e-12 -2.44225e-12)
(1.76038e-12 2.46802e-12 -9.56466e-13)
(1.14801e-12 1.81904e-12 -6.76085e-12)
(3.15204e-12 6.32114e-13 -1.34356e-11)
(2.09937e-12 3.23325e-12 -9.51905e-12)
(-2.00487e-12 4.6417e-12 -1.07129e-11)
(-2.01456e-12 3.02489e-12 -1.65287e-11)
(-2.20233e-12 2.21015e-12 -1.63183e-11)
(-1.38442e-12 2.40258e-12 -1.38492e-11)
(1.89873e-13 -3.15522e-13 -1.30454e-11)
(-1.72764e-12 4.31656e-13 -1.45351e-11)
(-7.09313e-13 9.43996e-13 -1.17014e-11)
(9.31698e-13 1.36156e-12 -1.22508e-11)
(3.30729e-12 1.61005e-12 -2.73215e-12)
(4.63536e-12 1.63568e-12 5.09116e-12)
(2.41888e-12 2.71839e-12 9.45987e-12)
(1.29921e-12 2.88323e-12 6.23656e-12)
(-2.67796e-12 6.70939e-13 1.07808e-12)
(-3.47136e-12 -1.7156e-12 -3.03903e-12)
(-6.2832e-13 1.42257e-12 -6.87925e-12)
(-4.97869e-15 2.19914e-13 -1.49266e-11)
(-1.39148e-12 2.71221e-12 -1.14751e-11)
(4.30174e-13 1.09046e-12 -7.98288e-12)
(3.79446e-12 6.46791e-13 -5.58558e-12)
(-4.83443e-15 3.10872e-12 -3.47848e-12)
(-1.62529e-12 1.54902e-12 3.78163e-13)
(-1.45683e-12 1.69949e-12 4.74382e-12)
(-2.25613e-12 3.03176e-12 9.57023e-12)
(-1.56126e-13 3.31236e-12 6.95288e-12)
(1.1851e-12 5.0028e-12 4.7687e-12)
(-3.09404e-13 2.35734e-12 -2.39533e-12)
(-3.92454e-13 1.73371e-12 -1.17216e-11)
(1.16217e-12 9.39467e-13 -1.42036e-11)
(-4.97328e-13 3.94518e-12 -9.84099e-12)
(-2.2889e-12 2.97637e-12 -1.34974e-11)
(-1.12679e-12 1.70482e-12 -1.24504e-11)
(5.6488e-13 7.91448e-13 -1.70917e-11)
(-5.9061e-13 2.75623e-13 -1.34642e-11)
(-1.63322e-12 5.39179e-13 -1.31411e-11)
(3.35082e-13 5.23857e-13 -1.39298e-11)
(3.72587e-13 -3.83286e-13 -1.2023e-11)
(-8.91124e-13 1.32303e-12 -1.10976e-11)
(5.57507e-13 2.1568e-12 -1.39837e-11)
(1.74595e-12 -8.737e-14 -1.13764e-11)
(5.77484e-13 2.20066e-13 -1.28945e-11)
(5.18029e-13 5.66067e-13 -1.71463e-11)
(1.21339e-12 2.25741e-12 -1.4642e-11)
(1.01451e-12 5.48435e-13 -9.19383e-12)
(1.05696e-12 5.15148e-13 -6.5239e-12)
(3.89796e-13 7.07215e-13 -4.55556e-12)
(-2.21925e-12 7.77863e-13 -1.01009e-11)
(-1.18526e-12 1.40572e-12 -1.99259e-11)
(6.64979e-13 1.98363e-12 -1.98709e-11)
(3.92398e-14 2.3594e-12 -2.31588e-11)
(9.30371e-13 3.36383e-12 -2.23141e-11)
(1.00994e-13 3.59048e-12 -1.74648e-11)
(-1.63873e-12 4.68104e-12 -1.57054e-11)
(1.4945e-13 2.99751e-12 -1.7158e-11)
(2.51182e-12 -1.24117e-12 -1.17155e-11)
(-1.48174e-12 -1.35057e-12 -6.78731e-12)
(-1.83547e-12 1.62021e-12 -7.80462e-12)
(3.72697e-13 2.28668e-12 -1.2096e-11)
(6.11471e-13 5.22352e-12 -1.23457e-11)
(2.43762e-12 3.00805e-12 -1.2316e-11)
(2.62967e-12 1.50321e-12 -3.963e-12)
(-1.52239e-12 1.42057e-13 -1.0853e-12)
(-3.93786e-12 -7.80804e-14 -3.08083e-12)
(-9.73308e-13 6.74643e-13 -7.02031e-12)
(8.26559e-13 2.1238e-12 -3.80456e-12)
(-3.54918e-14 3.50038e-12 9.98147e-12)
(6.49735e-13 4.22663e-12 6.42315e-12)
(-7.92045e-13 1.92727e-12 3.31983e-12)
(-8.49058e-13 3.20914e-12 1.30472e-12)
(-9.41589e-13 1.19263e-12 -2.22868e-12)
(-2.93506e-12 5.46494e-13 -5.32238e-12)
(-2.4007e-12 2.60194e-12 -4.69375e-12)
(-1.20929e-12 1.35771e-12 -4.33929e-12)
(2.23473e-12 7.49601e-13 -3.6026e-12)
(2.4845e-12 -1.81608e-13 -7.74189e-12)
(1.27437e-13 1.47195e-13 -9.87692e-12)
(3.07692e-12 1.30809e-12 -1.25014e-11)
(3.85338e-12 1.72951e-12 -9.23901e-12)
(8.04198e-13 2.81966e-12 -5.35948e-12)
(1.30372e-12 2.28543e-12 7.40564e-13)
(-7.96944e-13 2.21921e-12 5.08964e-12)
(-9.67384e-13 2.5271e-12 4.19012e-12)
(-3.54734e-13 1.48793e-12 -1.08586e-12)
(5.79996e-13 2.64851e-12 -6.45039e-12)
(-1.15783e-12 3.25445e-13 -1.05087e-11)
(-2.95526e-12 7.82169e-13 -1.03747e-11)
(-2.402e-12 3.31568e-12 -1.04472e-11)
(-2.13092e-12 4.73311e-12 -5.60005e-12)
(-1.93766e-12 9.20039e-13 -1.48079e-12)
(-6.73118e-13 3.83472e-13 -5.1385e-13)
(-7.30747e-13 5.4319e-13 -2.60869e-12)
(-1.53275e-12 2.28006e-12 -3.53086e-12)
(-1.42574e-12 2.24323e-12 -5.18258e-12)
(-6.22695e-13 3.59887e-12 -4.87868e-12)
(8.72707e-13 2.54915e-12 -3.46623e-12)
(1.92522e-12 3.03903e-12 -3.68253e-13)
(1.48348e-12 1.68389e-12 -8.56935e-13)
(1.64299e-12 3.0134e-12 -3.03218e-12)
(2.20628e-12 1.33505e-12 -6.49102e-12)
(1.57965e-12 1.75914e-12 -1.03425e-11)
(2.82193e-13 2.92567e-12 -1.03121e-11)
(-6.73315e-13 4.70075e-12 -8.6456e-12)
(-9.49076e-13 2.43905e-12 -1.09395e-11)
(-1.35371e-12 3.66715e-12 -1.0174e-11)
(-3.36789e-13 5.47717e-14 -9.14232e-12)
(8.90415e-13 2.18896e-12 -9.1306e-12)
(-1.47087e-12 1.22209e-12 -8.44573e-12)
(-1.42477e-12 -2.65711e-12 -1.02206e-11)
(9.16613e-13 -1.5686e-12 -7.21891e-12)
(2.05853e-12 -1.01874e-12 1.20634e-12)
(3.59047e-12 4.18883e-12 4.77549e-12)
(2.14061e-12 6.42188e-12 5.94532e-12)
(1.16718e-12 5.72337e-12 3.71581e-12)
(-7.49987e-13 3.52809e-12 -6.7977e-13)
(-2.74677e-12 2.54879e-15 -4.30595e-12)
(-9.36928e-13 5.45408e-13 -6.86285e-12)
(-1.2292e-12 -2.07762e-13 -1.11886e-11)
(-1.20405e-12 1.1767e-12 -1.25352e-11)
(1.23784e-12 -9.60339e-13 -8.42059e-12)
(1.48173e-12 1.64559e-12 -5.13434e-12)
(-9.36865e-13 4.28463e-12 -2.7948e-12)
(-7.96135e-13 5.11191e-12 6.56077e-13)
(-2.41154e-12 4.63601e-12 3.48654e-12)
(-2.24989e-12 4.65452e-12 4.3595e-12)
(1.98987e-14 3.2378e-12 5.30203e-12)
(1.22955e-12 4.83764e-12 4.40129e-12)
(8.2195e-13 3.9358e-12 -7.07493e-13)
(1.1555e-12 3.14813e-12 -6.0224e-12)
(-6.57568e-13 3.59888e-12 -7.64537e-12)
(-1.02712e-12 6.7659e-12 -7.22568e-12)
(-2.41824e-13 4.05102e-12 -7.59222e-12)
(-9.1207e-13 7.24022e-13 -9.67329e-12)
(-8.00271e-13 -1.24476e-12 -1.23075e-11)
(-5.60429e-13 5.86122e-13 -1.02573e-11)
(-6.18216e-13 -2.558e-13 -7.24056e-12)
(2.88979e-14 3.53616e-13 -8.11543e-12)
(-5.28659e-13 3.02185e-12 -8.49972e-12)
(-9.63752e-13 2.73736e-12 -9.19787e-12)
(9.02324e-13 2.1206e-12 -1.0353e-11)
(1.81183e-12 6.14521e-13 -9.71333e-12)
(1.04694e-12 5.78013e-13 -9.97378e-12)
(8.18616e-13 1.54769e-13 -1.1289e-11)
(4.77886e-13 2.47075e-12 -7.67452e-12)
(4.69509e-13 1.78806e-12 -4.76404e-12)
(1.02661e-12 1.61393e-12 -3.38488e-12)
(2.20823e-13 2.34684e-12 -2.86631e-12)
(-1.95227e-12 4.16343e-12 -7.67403e-12)
(-1.44597e-12 1.64032e-12 -1.38629e-11)
(2.02882e-12 3.04545e-12 -1.49129e-11)
(-4.98605e-13 2.56795e-12 -1.58982e-11)
(-1.61535e-12 3.97094e-12 -1.86022e-11)
(-2.22413e-13 5.24693e-12 -1.38487e-11)
(-4.55362e-13 5.06721e-12 -1.15961e-11)
(1.37476e-12 2.11033e-12 -1.19418e-11)
(2.40175e-12 1.94315e-12 -9.07027e-12)
(-1.34257e-12 2.5795e-12 -7.13507e-12)
(-1.75032e-12 7.06602e-13 -6.9116e-12)
(-1.07081e-12 8.22838e-13 -7.7436e-12)
(-4.1921e-13 2.52823e-12 -7.28552e-12)
(2.67991e-12 1.51087e-12 -5.92148e-12)
(2.82933e-12 3.44037e-12 -1.78979e-12)
(-9.56052e-13 4.30886e-12 -1.54117e-13)
(-3.49433e-12 2.02359e-12 -1.10141e-12)
(-1.65841e-12 2.21987e-12 -2.97589e-12)
(9.76542e-14 3.18144e-12 -3.06297e-12)
(5.66134e-13 4.06431e-12 8.26158e-12)
(-2.41923e-14 5.41222e-12 5.65932e-12)
(3.76626e-13 2.82524e-12 3.55707e-12)
(3.47811e-14 1.97997e-12 6.40515e-14)
(-4.17167e-12 4.38889e-13 -2.13212e-12)
(-2.33443e-12 9.40892e-13 -3.86197e-12)
(-6.75887e-13 1.71695e-13 -5.18175e-12)
(1.64634e-12 8.32351e-13 -4.30129e-12)
(3.09179e-12 1.41105e-12 -5.37307e-12)
(1.22887e-12 1.91738e-12 -6.73443e-12)
(3.49736e-12 2.58056e-13 -7.54932e-12)
(3.33469e-12 1.45057e-12 -5.74544e-12)
(9.28424e-13 8.39439e-13 -3.23201e-12)
(4.63787e-13 4.34186e-12 3.69929e-13)
(-8.15538e-13 3.17124e-12 4.1467e-12)
(-4.21697e-13 2.8749e-12 6.77321e-12)
(-1.36813e-12 2.43546e-12 3.06551e-12)
(2.9183e-13 4.77543e-12 -1.69644e-12)
(8.73328e-13 3.99059e-12 -4.88582e-12)
(-2.13678e-12 2.39405e-12 -5.33435e-12)
(-4.62438e-12 2.59853e-12 -5.72582e-12)
(-1.15907e-12 3.2121e-12 -3.57165e-12)
(-3.37384e-13 1.50825e-12 -1.19055e-12)
(-5.86777e-13 2.11812e-12 -1.1167e-12)
(-1.31061e-12 1.60136e-12 -2.32107e-12)
(-1.40544e-12 1.51367e-12 -4.15407e-12)
(-1.58374e-12 7.65839e-13 -3.28069e-12)
(-1.22545e-12 6.2083e-13 -2.64759e-12)
(1.55965e-12 9.6052e-14 -6.98237e-13)
(2.66115e-12 7.18629e-13 1.64349e-12)
(1.56119e-12 5.35634e-13 2.68987e-13)
(1.62994e-12 2.05921e-12 -1.27613e-12)
(1.54906e-12 1.917e-12 -3.21571e-12)
(1.97092e-12 3.22273e-12 -3.66733e-12)
(3.78827e-13 1.7938e-12 -6.59599e-12)
(-1.83418e-12 3.03845e-12 -6.68091e-12)
(-1.85499e-12 3.55683e-12 -6.229e-12)
(-3.37363e-13 1.58378e-12 -5.16416e-12)
(-8.1878e-14 -5.36408e-13 -4.03973e-12)
(-8.02348e-13 -1.83223e-14 -4.56194e-12)
(1.48434e-12 3.2764e-13 -4.54198e-12)
(9.8127e-13 -8.07292e-13 -5.93972e-12)
(-3.70108e-13 2.23493e-13 -3.63054e-12)
(8.18603e-13 1.1181e-12 6.13517e-13)
(6.77786e-13 3.72953e-12 1.9121e-12)
(1.72377e-12 5.30808e-12 2.81499e-12)
(2.22299e-12 3.94909e-12 4.86171e-13)
(1.2741e-13 2.71599e-12 -1.13952e-12)
(-1.55692e-12 1.3436e-12 -1.77196e-12)
(-1.30207e-12 1.13036e-12 -1.96424e-12)
(-1.57906e-12 1.48242e-12 -3.3458e-12)
(-7.70883e-13 1.33461e-12 -4.24807e-12)
(7.75065e-13 3.96938e-13 -3.46402e-12)
(-2.69642e-14 2.08681e-12 -2.99713e-12)
(-2.37124e-12 2.89819e-12 -2.23867e-12)
(-1.7888e-12 4.78948e-12 -1.11372e-13)
(-9.80006e-13 5.76157e-12 2.43457e-12)
(-7.27338e-13 5.02844e-12 1.75248e-12)
(2.08924e-13 3.94137e-12 3.41707e-12)
(2.41636e-13 5.73489e-12 2.88586e-12)
(1.11296e-12 6.12555e-12 -6.06657e-14)
(7.74557e-13 5.85535e-12 -2.3886e-12)
(-1.35374e-12 4.58454e-12 -2.0191e-12)
(-1.48481e-12 2.74591e-12 -4.20309e-12)
(1.54112e-12 1.63122e-12 -5.079e-12)
(2.31597e-12 1.13559e-12 -5.7977e-12)
(1.10472e-12 -2.08177e-13 -5.93586e-12)
(-1.21527e-12 -7.90164e-13 -5.0695e-12)
(-1.48832e-12 8.06246e-13 -4.04722e-12)
(-1.8272e-12 1.1368e-12 -4.10406e-12)
(-2.1756e-12 1.24195e-12 -5.65258e-12)
(-1.66163e-13 7.07848e-13 -7.40287e-12)
(2.69101e-12 8.47502e-13 -7.81274e-12)
(3.05928e-12 -1.27738e-13 -8.91193e-12)
(1.27185e-12 9.81539e-13 -8.2278e-12)
(-7.43679e-13 1.48178e-12 -7.82823e-12)
(-2.02882e-13 2.10121e-12 -4.96551e-12)
(2.09278e-12 1.90244e-12 -2.44048e-12)
(5.20791e-13 1.39187e-12 -1.43599e-12)
(-1.10492e-12 2.21468e-12 -2.42604e-12)
(-9.0206e-13 2.87184e-12 -4.70169e-12)
(-4.42351e-15 -9.8525e-14 -5.923e-12)
(1.83805e-13 1.18238e-13 -5.40271e-12)
(-8.46289e-13 2.57771e-12 -5.77977e-12)
(-1.2585e-12 2.7955e-12 -6.30107e-12)
(-1.59331e-12 2.47587e-12 -6.25643e-12)
(3.05725e-13 4.13229e-12 -5.9751e-12)
(2.77542e-12 3.82239e-12 -6.1499e-12)
(1.34664e-12 3.26637e-12 -5.55493e-12)
(-4.77196e-13 3.42112e-12 -5.7807e-12)
(-8.53016e-13 2.38528e-12 -5.22574e-12)
(-1.04493e-12 2.9991e-12 -4.65701e-12)
(1.89939e-13 5.00271e-13 -3.42285e-12)
(2.32264e-12 1.14089e-12 -2.18244e-12)
(7.44262e-13 3.25837e-12 -9.01751e-13)
(-6.34406e-13 4.02986e-12 1.20703e-12)
(-2.31045e-12 4.14227e-12 7.98098e-13)
(-2.10484e-12 2.30532e-12 1.15099e-12)
(-7.7253e-13 2.51883e-12 8.91339e-12)
(4.47018e-13 3.46942e-12 7.33859e-12)
(1.57754e-12 1.70377e-12 4.47191e-12)
(1.04464e-12 3.6108e-12 1.60014e-12)
(-2.05497e-12 2.10896e-12 -1.12917e-12)
(-2.24711e-12 -1.78539e-12 -3.75326e-12)
(-4.74603e-13 -9.46578e-13 -4.4023e-12)
(1.84023e-12 -6.42137e-13 -3.28052e-12)
(1.24939e-12 7.5571e-13 -3.48887e-12)
(8.04398e-13 3.43391e-13 -4.63888e-12)
(2.43131e-12 1.15362e-13 -5.67986e-12)
(2.1486e-12 1.5056e-12 -3.66946e-12)
(-2.35747e-13 9.70696e-13 -2.43329e-12)
(-1.78052e-13 2.88101e-12 -5.16101e-13)
(3.49093e-13 2.52508e-12 2.90236e-12)
(-4.90181e-13 3.07761e-12 5.83789e-12)
(-1.07718e-12 1.90445e-12 4.66093e-12)
(-6.65334e-13 2.5498e-12 6.12965e-13)
(-1.62479e-13 4.53972e-12 -4.61847e-13)
(-2.01709e-12 4.43966e-12 -1.79558e-12)
(-2.7177e-12 1.22126e-12 -2.0571e-12)
(-5.55184e-13 -9.16163e-13 -2.29958e-12)
(-6.41407e-13 -3.47695e-15 -3.26069e-12)
(-7.92714e-13 1.5729e-13 -2.33882e-12)
(-4.70168e-13 9.31362e-14 -1.81264e-12)
(-8.96073e-13 -7.87207e-13 -1.75175e-12)
(-3.51811e-13 5.1176e-13 -1.2243e-12)
(6.1796e-13 -7.55449e-13 -1.28071e-12)
(8.49126e-13 -1.07285e-12 -8.36079e-13)
(1.22269e-12 3.20966e-13 1.35635e-13)
(5.70919e-13 1.26254e-12 -4.25041e-14)
(7.36417e-13 1.42556e-12 -3.36933e-13)
(1.22224e-12 1.68079e-12 -6.59096e-13)
(1.53646e-12 1.39381e-12 1.05762e-12)
(3.82472e-13 2.83475e-12 -2.39249e-12)
(-2.01806e-12 2.24193e-12 -3.87972e-12)
(7.07823e-13 1.90233e-12 -3.89979e-12)
(1.84166e-12 1.7377e-13 -2.2923e-12)
(6.82493e-13 2.02872e-13 -8.44517e-13)
(2.49589e-13 -1.54766e-12 -1.60687e-12)
(-1.73713e-13 -5.39515e-13 -1.36975e-12)
(-6.05471e-13 2.88027e-13 -3.08198e-12)
(-5.12148e-13 1.11351e-12 -2.7987e-12)
(1.19681e-13 1.27877e-12 -1.7486e-12)
(9.63617e-13 1.82235e-12 -1.94311e-12)
(1.93615e-12 1.37913e-12 -1.55325e-12)
(2.31216e-12 1.5549e-12 -3.7303e-12)
(1.32432e-12 2.1915e-12 -1.58534e-12)
(-1.14551e-12 2.27735e-12 3.05453e-13)
(-1.48883e-12 1.9101e-12 2.67643e-12)
(-2.24967e-12 2.42868e-12 1.02758e-12)
(-7.14386e-13 1.94807e-12 -9.96747e-14)
(8.72575e-13 2.08149e-12 -1.19795e-12)
(-5.93429e-13 3.60067e-12 -1.97064e-12)
(-2.67489e-12 3.98123e-12 -2.40881e-12)
(-3.14354e-12 3.14709e-12 -2.71884e-12)
(-1.48206e-12 4.11108e-12 -1.00599e-12)
(-3.1493e-13 2.81505e-12 -8.46386e-13)
(-1.9948e-13 3.25674e-12 4.32786e-13)
(-6.72325e-13 4.22539e-12 1.05304e-12)
(6.56339e-13 4.60201e-12 1.32035e-13)
(3.05902e-12 3.92927e-12 -7.40426e-13)
(1.87334e-12 3.51046e-12 -1.13367e-12)
(1.19563e-12 8.51188e-13 -1.34015e-12)
(9.13248e-13 -7.04982e-14 -1.44593e-12)
(6.68329e-13 7.29915e-13 -1.23828e-12)
(6.13543e-13 6.36295e-13 -2.65515e-12)
(-1.47961e-12 6.65655e-13 -2.75723e-12)
(-1.96059e-12 4.0379e-13 -1.73227e-12)
(-4.49686e-13 6.6543e-13 -4.21742e-12)
(-2.76001e-13 -1.92236e-12 -4.29128e-12)
(-1.06981e-12 -2.35104e-12 -5.30598e-12)
(1.3489e-12 -3.34458e-12 -6.16618e-12)
(1.69962e-12 -1.75345e-12 -7.24462e-12)
(-2.58611e-13 -5.80568e-13 -7.67667e-12)
(-3.07553e-13 -6.24475e-13 -8.60739e-12)
(-2.57135e-13 -1.54913e-12 -5.30137e-12)
(1.19364e-12 6.67056e-13 -3.51584e-12)
(5.74158e-13 7.72254e-13 6.02656e-13)
(-7.99464e-13 6.38778e-13 -5.96089e-13)
(2.9901e-13 -2.19679e-13 -1.2122e-12)
(7.83852e-13 -1.63125e-12 -9.88019e-13)
(-5.58206e-13 -1.4143e-12 1.08651e-12)
(-1.70415e-12 -3.99726e-13 6.77161e-13)
(-1.57557e-12 1.09218e-13 1.58811e-12)
(-1.95572e-12 2.29605e-12 9.98772e-15)
(-1.70845e-12 1.71465e-12 -1.8279e-12)
(1.744e-12 2.1008e-12 -2.36314e-12)
(1.9606e-12 3.37016e-12 -3.38491e-12)
(-3.19172e-13 3.55353e-12 -4.35077e-12)
(-1.68248e-12 3.28027e-12 -4.24275e-12)
(7.49445e-13 2.66498e-12 -3.57692e-12)
(1.55236e-12 4.67704e-13 -2.65057e-12)
(1.24588e-12 1.24125e-12 -3.08867e-12)
(6.71562e-13 1.25368e-12 -1.44082e-12)
(-1.32231e-12 2.43504e-12 7.84085e-13)
(-1.29088e-12 2.8231e-12 2.55227e-12)
(-3.89235e-13 5.12689e-13 3.54125e-12)
(7.9506e-13 -1.93246e-12 7.84623e-12)
(8.46798e-13 -3.30894e-12 8.63065e-12)
(-8.35755e-13 -1.54083e-12 4.96724e-12)
(-4.89281e-13 2.47689e-12 1.83869e-12)
(1.23509e-12 -6.89116e-14 8.24194e-13)
(4.00377e-14 -2.75723e-12 -7.21145e-13)
(-1.0975e-12 -2.69247e-12 -9.14304e-13)
(4.84005e-13 -3.39906e-12 -1.00453e-12)
(1.54926e-12 -3.35628e-12 -1.60719e-12)
(1.28501e-12 -4.08841e-12 -2.39949e-12)
(1.85537e-12 -3.82946e-12 -3.17733e-12)
(1.32847e-12 -2.69881e-12 -2.5843e-12)
(3.86388e-13 -7.75556e-13 -2.18008e-12)
(-4.41372e-13 -3.48107e-12 -1.54485e-12)
(-7.8843e-13 -1.50281e-13 -1.68401e-12)
(4.55267e-13 1.04047e-12 6.42622e-13)
(-7.24034e-13 -1.0803e-13 2.72565e-12)
(-1.88822e-12 -1.20854e-12 5.21984e-12)
(-1.17075e-12 2.59365e-13 3.10671e-12)
(-1.04775e-12 7.69799e-13 -1.35119e-13)
(-4.56673e-13 -2.26767e-12 -2.05631e-12)
(3.65086e-13 -4.7859e-12 -1.95589e-12)
(-2.64999e-13 -4.64417e-12 -2.40366e-12)
(-4.93017e-13 -5.09266e-12 -1.58135e-12)
(-6.88357e-13 -4.79317e-12 -7.43511e-13)
(-1.74349e-12 -5.60621e-12 -1.22791e-12)
(-1.12735e-12 -3.95178e-12 -1.54066e-12)
(-1.65624e-14 -3.08735e-12 -1.82033e-12)
(-5.23982e-13 -2.16556e-12 -2.7336e-12)
(5.44518e-14 -3.3506e-13 -2.16799e-12)
(1.4392e-12 2.61507e-13 -1.99551e-12)
(1.96192e-12 -2.67271e-12 -2.56263e-13)
(1.32771e-12 -3.3847e-12 1.9248e-13)
(1.06083e-12 -4.36015e-12 4.17238e-12)
(-4.43368e-13 -3.3058e-12 1.68068e-12)
(-1.41565e-12 -2.75411e-12 -6.81669e-13)
(3.24965e-13 -3.07903e-12 -1.71948e-12)
(1.42946e-12 -2.95612e-12 -1.66655e-12)
(1.54762e-12 -3.5402e-12 -1.77316e-12)
(1.36953e-13 -3.68683e-12 -2.14804e-12)
(-1.93388e-13 -2.98321e-12 -2.11248e-12)
(-1.85025e-13 -3.88158e-12 -2.32451e-12)
(-6.11426e-13 -3.10897e-12 -2.01406e-12)
(1.42945e-14 -3.0639e-12 -1.4891e-12)
(6.89072e-13 -3.97849e-12 -1.59169e-12)
(1.7719e-12 -4.79636e-12 -1.54879e-12)
(1.46661e-12 -4.4344e-12 -1.98246e-12)
(3.24103e-13 -2.68887e-12 -4.2867e-13)
(-1.15547e-12 -1.99863e-12 1.22069e-12)
(-1.51867e-12 -1.12819e-12 3.38922e-12)
(-2.39332e-12 -1.58569e-12 1.97396e-12)
(-1.3289e-12 -1.47751e-12 5.06135e-13)
(-7.96348e-14 2.53955e-13 -3.02293e-13)
(-1.75596e-12 1.38801e-12 -2.20766e-12)
(-2.14552e-12 2.56968e-12 -4.11136e-12)
(-6.3556e-13 2.34682e-12 -4.42079e-12)
(1.22161e-13 -1.11661e-12 -4.8535e-12)
(-1.17811e-13 -2.08442e-12 -2.99501e-12)
(-3.8705e-13 -1.76146e-12 -6.44479e-13)
(-7.37005e-13 -1.12149e-12 -3.37938e-15)
(1.09921e-12 -9.63132e-13 -2.76123e-14)
(2.34375e-12 -1.98024e-12 -1.76948e-13)
(1.78809e-12 -1.37992e-12 -1.05096e-13)
(2.32798e-12 -3.13966e-12 1.71929e-13)
(1.66006e-12 -3.94604e-12 3.39846e-13)
(1.06461e-12 -2.9863e-12 -2.93272e-13)
(1.15072e-12 -3.15016e-12 -2.73123e-12)
(-8.77277e-13 -3.45124e-12 -3.02498e-12)
(-1.88156e-12 -3.39822e-12 -1.2641e-12)
(-3.31617e-13 -3.24274e-12 -1.9737e-12)
(1.02044e-12 -4.06292e-12 -2.72552e-12)
(1.25192e-12 -5.60399e-12 -4.59392e-12)
(2.14784e-12 -7.08214e-12 -5.6359e-12)
(5.53347e-13 -5.29664e-12 -5.26072e-12)
(2.09611e-13 -5.69524e-12 -4.74981e-12)
(2.89986e-13 -6.75399e-12 -4.25343e-12)
(-1.04104e-12 -6.47657e-12 -2.6413e-12)
(-3.25131e-13 -4.67452e-12 -1.52003e-12)
(3.09029e-13 -3.39336e-12 -1.76612e-14)
(2.96936e-13 -4.58122e-12 -5.30808e-13)
(1.23011e-12 -5.05417e-12 -3.08423e-13)
(8.00601e-13 -5.17648e-12 -1.14206e-12)
(-1.68625e-12 -4.73172e-12 8.68256e-13)
(-2.74985e-12 -3.33697e-12 3.46884e-12)
(-4.02391e-12 -4.07126e-12 4.3962e-12)
(-3.89307e-12 -1.20935e-12 2.14225e-12)
(-7.85719e-13 -2.25236e-12 -3.75041e-13)
(1.33962e-12 -2.09819e-12 -1.12098e-12)
(6.8093e-13 3.13828e-13 -2.68549e-12)
(-8.51671e-14 9.20114e-13 -4.35043e-12)
(8.30127e-13 5.21978e-13 -4.47597e-12)
(1.80264e-12 -2.29159e-12 -4.50639e-12)
(1.34385e-12 -2.78203e-12 -2.34397e-12)
(1.34126e-12 -3.35963e-12 -9.95922e-13)
(-7.80733e-13 -3.90676e-12 1.40397e-14)
(-2.23154e-12 -1.50883e-12 1.31009e-12)
(-4.34755e-13 -3.18238e-12 3.06637e-12)
(6.83321e-13 -2.67899e-12 6.15223e-12)
(1.1913e-12 -5.94348e-12 7.05566e-12)
(-3.60049e-13 -6.18359e-12 1.05592e-11)
(-4.21895e-12 -5.72221e-12 5.82095e-12)
(-2.34668e-13 -3.75626e-12 2.73308e-12)
(3.4558e-12 -5.25516e-12 1.34447e-12)
(1.45501e-13 -3.30854e-12 6.49287e-13)
(-5.19719e-15 -3.20489e-12 8.21517e-14)
(1.72483e-12 -6.62068e-12 -3.01961e-13)
(1.46372e-12 -8.71907e-12 -9.66706e-13)
(1.22557e-12 -7.85826e-12 -1.7812e-12)
(1.71261e-12 -8.07564e-12 -2.76348e-12)
(-4.42057e-14 -7.1289e-12 -3.15809e-12)
(1.05543e-12 -6.64361e-12 -2.71883e-12)
(-5.28342e-13 -5.65811e-12 -2.83848e-12)
(-3.32029e-12 -6.6559e-12 -4.72241e-12)
(-1.57974e-13 -4.05657e-12 -2.55518e-12)
(1.29579e-12 -4.15359e-12 4.10284e-12)
(-1.42064e-12 -3.0643e-12 9.57727e-12)
(-1.56656e-12 -5.58064e-12 4.77662e-12)
(-4.63418e-13 -2.93358e-12 9.24507e-13)
(9.15407e-13 -2.05474e-12 -8.99683e-13)
(1.63733e-12 -4.24699e-12 -2.04212e-12)
(4.17379e-13 -7.88423e-12 -3.90979e-12)
(-2.48613e-13 -8.233e-12 -2.05103e-12)
(5.41788e-13 -7.8799e-12 -1.49585e-12)
(-1.46123e-12 -6.0869e-12 -1.7564e-12)
(-3.00426e-12 -5.75425e-12 -2.08803e-12)
(-1.34187e-12 -7.10945e-12 -2.14607e-12)
(-1.78435e-12 -4.77586e-12 -2.63824e-12)
(-6.81478e-13 -5.80931e-12 -2.60337e-12)
(2.63922e-12 -5.26341e-12 -3.66425e-12)
(3.24464e-12 -6.2488e-12 7.38095e-13)
(2.30398e-12 -7.94244e-12 3.95166e-13)
(2.05406e-12 -6.34107e-12 6.97416e-12)
(-1.7767e-12 -7.02305e-12 4.13733e-12)
(-2.69046e-12 -6.56508e-12 3.98856e-13)
(2.98908e-13 -6.21636e-12 -8.44624e-13)
(2.66307e-12 -6.20953e-12 -1.44662e-12)
(1.80305e-12 -7.56744e-12 -1.85349e-12)
(-2.23472e-13 -6.49516e-12 -2.37977e-12)
(4.18322e-13 -7.21494e-12 -2.23658e-12)
(-5.22613e-13 -5.37145e-12 -2.06091e-12)
(-1.64545e-12 -7.19159e-12 -1.72677e-12)
(1.68251e-13 -6.97037e-12 -1.33192e-12)
(1.67064e-12 -8.35684e-12 -1.18443e-12)
(2.41351e-12 -7.17383e-12 -1.01345e-12)
(1.24144e-12 -8.41023e-12 -4.18804e-13)
(-5.16805e-13 -6.22514e-12 1.54945e-12)
(-1.94539e-12 -5.94314e-12 4.74418e-12)
(-1.91355e-12 -3.96554e-12 3.37152e-12)
(-1.97217e-12 -5.44142e-12 1.09864e-12)
(-2.73742e-12 -2.95543e-12 -1.43476e-12)
(-1.31443e-12 -4.73623e-13 -1.43806e-12)
(-2.37165e-12 -2.07765e-12 -2.93848e-12)
(-3.27314e-12 -4.4464e-12 -6.06482e-12)
(3.37623e-13 -3.5026e-12 -5.56461e-12)
(2.40025e-12 -5.66029e-12 -8.14364e-12)
(3.2215e-13 -4.07806e-12 -6.56889e-12)
(-8.69589e-14 -2.48394e-12 -2.51294e-12)
(-7.84535e-13 -4.54384e-12 -1.06495e-12)
(1.18498e-12 -3.09193e-12 -5.30298e-13)
(2.97267e-12 -4.07063e-12 -1.64822e-13)
(2.63886e-12 -6.13892e-12 2.9211e-13)
(3.30966e-12 -6.40727e-12 6.46301e-13)
(1.28095e-12 -8.52721e-12 8.50011e-13)
(4.68243e-13 -8.07478e-12 1.29699e-12)
(1.81984e-12 -8.6047e-12 -3.66107e-13)
(-1.07626e-12 -8.75055e-12 -1.26214e-12)
(-2.93142e-12 -7.26405e-12 -1.48575e-12)
(-6.03527e-13 -7.63724e-12 -1.6939e-12)
(1.51785e-12 -7.4262e-12 -3.01525e-12)
(1.98965e-12 -1.01235e-11 -4.06287e-12)
(1.45205e-12 -9.45521e-12 -4.85246e-12)
(8.49201e-13 -9.56054e-12 -4.30783e-12)
(1.56486e-12 -9.63302e-12 -3.42861e-12)
(1.27201e-13 -1.10084e-11 -2.19115e-12)
(-1.87252e-12 -1.08701e-11 -1.27429e-12)
(-8.38744e-13 -9.94427e-12 -2.45807e-14)
(6.09707e-13 -6.78265e-12 1.12168e-12)
(6.07338e-13 -7.12103e-12 2.92305e-12)
(9.40325e-13 -7.88981e-12 8.97288e-13)
(2.1437e-13 -8.49475e-12 5.27875e-13)
(-2.54036e-12 -6.59285e-12 1.71704e-12)
(-2.658e-12 -7.2188e-12 3.91993e-12)
(-4.20214e-12 -5.18379e-12 7.57302e-12)
(-3.72423e-12 -3.34908e-12 2.83973e-12)
(-3.24693e-13 -3.95754e-12 6.03258e-14)
(2.88868e-13 -1.43608e-12 -7.82973e-13)
(1.25697e-13 -1.54593e-12 -1.35539e-12)
(-2.95868e-13 -7.08664e-13 -2.91363e-12)
(1.97433e-12 -3.07277e-12 -4.50435e-12)
(3.28047e-12 -6.93573e-12 -3.26256e-12)
(1.77226e-12 -7.05533e-12 -1.64219e-12)
(1.35619e-12 -8.65492e-12 -5.28482e-13)
(-1.58537e-12 -7.23572e-12 1.8701e-13)
(-2.31623e-12 -3.86928e-12 1.79508e-12)
(-2.66743e-13 -4.93266e-12 5.25468e-12)
(4.49692e-13 -5.57126e-12 9.37428e-12)
(2.9058e-12 -2.43929e-12 3.663e-12)
(6.70259e-13 -9.37178e-13 4.33473e-12)
(-1.80698e-12 -2.07046e-12 2.7552e-12)
(-5.05961e-13 -2.54237e-12 1.54307e-12)
(3.5908e-13 -1.83972e-12 1.06874e-12)
(-2.0061e-12 -9.3307e-13 4.34164e-13)
(1.20263e-12 -2.59914e-12 3.40701e-13)
(4.36117e-12 -1.90279e-12 -2.42192e-13)
(1.79465e-12 -2.88932e-12 -9.19854e-13)
(7.06047e-13 -1.88656e-12 -1.94984e-12)
(1.56813e-12 -1.84085e-12 -3.64324e-12)
(6.68585e-13 -1.39264e-12 -5.20546e-12)
(7.72301e-14 -2.51613e-12 -3.36216e-12)
(-2.64036e-13 -1.11944e-12 -2.01527e-12)
(-1.63876e-12 -3.03745e-12 -1.46583e-12)
(-1.03136e-12 -2.90209e-12 3.60376e-13)
(-1.15145e-12 -2.08824e-12 4.07122e-12)
(-9.58935e-13 7.74146e-14 5.99524e-12)
(-6.85702e-13 -2.42089e-12 3.30731e-12)
(-3.11053e-12 -1.41216e-12 7.25422e-13)
(7.7448e-13 -1.58757e-12 -6.56029e-13)
(5.02677e-12 -2.11222e-13 -1.52847e-12)
(2.51125e-12 -2.97528e-12 -2.23124e-12)
(-6.06579e-13 -3.19093e-12 -1.70311e-12)
(-1.42981e-12 -5.29141e-12 -1.82625e-12)
(-2.922e-12 -3.36668e-12 -2.27543e-12)
(-5.50341e-13 -4.86008e-12 -2.97625e-12)
(-9.80405e-13 -5.37424e-12 -4.35157e-12)
(-1.3365e-12 -4.96525e-12 -3.38376e-12)
(6.82417e-13 -5.20722e-12 -2.82003e-12)
(1.46629e-12 -6.8186e-12 -3.53349e-12)
(4.23285e-12 -5.44436e-12 6.71319e-13)
(1.03193e-12 -5.11799e-12 1.98757e-12)
(1.14532e-13 -2.72804e-12 4.02898e-12)
(-8.48995e-13 -2.75596e-12 1.56269e-12)
(-2.51015e-12 -3.99189e-12 -5.85912e-13)
(-3.28827e-14 -4.53322e-12 -1.06144e-12)
(2.6685e-12 -3.2021e-12 -1.10814e-12)
(1.82063e-12 -1.4208e-12 -1.66338e-12)
(1.08545e-13 -9.99717e-13 -2.7342e-12)
(-8.65019e-13 -1.78488e-12 -2.29137e-12)
(-2.37091e-13 -5.29757e-13 -2.10679e-12)
(4.40101e-13 -2.28702e-12 -1.77942e-12)
(4.05842e-13 -2.26477e-12 -1.42338e-12)
(5.82057e-13 -3.28441e-12 -1.3944e-12)
(1.43717e-12 -3.34026e-12 -1.18027e-12)