/*--------------------------------*- C++ -*----------------------------------*\
| =========                 |                                                 |
| \\      /  F ield         | OpenFOAM: The Open Source CFD Toolbox           |
|  \\    /   O peration     | Version:  2406                                  |
|   \\  /    A nd           | Website:  www.openfoam.com                      |
|    \\/     M anipulation  |                                                 |
\*---------------------------------------------------------------------------*/
FoamFile
{
    version     2.0;
    format      ascii;
    arch        "LSB;label=32;scalar=64";
    class       volScalarField;
    location    "0.04";
    object      Ma;
}
// * * * * * * * * * * * * * * * * * * * * * * * * * * * * * * * * * * * * * //

dimensions      [0 0 0 0 0 0 0];

internalField   nonuniform List<scalar> 
14020
(
0.764754
0.764805
0.764864
0.764932
0.765008
0.76509
0.765176
0.765258
0.765332
0.765394
0.765442
0.765477
0.765501
0.765516
0.765524
0.765528
0.765528
0.765528
0.765528
0.765527
0.765524
0.76552
0.765515
0.765509
0.765506
0.765506
0.765506
0.765507
0.765508
0.76551
0.765514
0.765517
0.765521
0.765523
0.765525
0.765527
0.765529
0.765531
0.765535
0.765539
0.765545
0.765553
0.765561
0.765568
0.765575
0.765581
0.765585
0.765588
0.765591
0.765595
0.765598
0.765603
0.765608
0.765613
0.765617
0.76562
0.765622
0.765622
0.765623
0.765623
0.765624
0.765625
0.765626
0.765628
0.76563
0.765631
0.765632
0.765632
0.765632
0.765632
0.765631
0.765625
0.765587
0.765349
0.763847
0.754485
0.700762
0.474802
0.0956725
0.00179138
2.33093e-06
1.582e-10
3.82373e-14
3.68668e-14
3.06357e-14
2.85993e-14
2.73669e-14
2.67767e-14
3.15532e-14
3.63206e-14
4.10983e-14
4.39429e-14
4.73957e-14
4.51531e-14
3.68741e-14
2.85095e-14
2.52082e-14
2.20849e-14
2.1077e-14
1.95909e-14
1.89243e-14
1.99912e-14
2.51839e-14
3.08699e-14
3.25708e-14
2.97008e-14
2.69927e-14
2.06256e-14
2.05036e-14
2.82149e-14
3.18215e-14
3.44533e-14
3.52664e-14
3.4192e-14
3.05624e-14
2.52393e-14
2.40557e-14
2.02223e-14
2.63954e-14
3.35284e-14
3.18781e-14
2.64077e-14
2.47027e-14
2.39365e-14
2.53821e-14
2.5907e-14
2.66273e-14
2.94614e-14
3.09501e-14
2.99192e-14
2.73901e-14
2.95755e-14
3.16552e-14
3.52614e-14
3.67562e-14
3.54232e-14
3.40663e-14
3.42848e-14
3.41948e-14
2.87569e-14
2.3355e-14
2.22403e-14
2.54935e-14
3.06803e-14
3.49928e-14
3.74322e-14
3.63098e-14
3.16349e-14
3.62047e-14
3.51331e-14
2.84375e-14
3.01637e-14
3.50019e-14
3.07657e-14
2.07117e-14
1.41966e-14
1.54458e-14
1.56572e-14
2.64088e-14
3.58185e-14
4.93386e-14
5.63386e-14
5.80243e-14
5.66566e-14
5.16973e-14
4.8089e-14
4.8381e-14
4.27729e-14
4.35253e-14
3.89729e-14
3.46388e-14
3.14749e-14
2.86105e-14
2.94169e-14
3.63848e-14
3.9039e-14
3.45317e-14
2.98792e-14
2.34082e-14
1.88334e-14
2.13279e-14
2.32815e-14
1.92019e-14
1.59295e-14
1.32888e-14
1.17624e-14
1.25985e-14
1.66818e-14
2.24671e-14
2.07435e-14
2.47784e-14
2.8019e-14
2.9143e-14
2.65034e-14
3.17723e-14
3.11345e-14
2.60958e-14
2.58129e-14
2.36207e-14
1.80808e-14
1.95762e-14
2.06819e-14
2.55494e-14
3.16308e-14
3.54036e-14
3.62664e-14
3.59238e-14
3.39487e-14
3.34186e-14
3.08794e-14
3.02314e-14
3.16765e-14
3.30171e-14
3.60772e-14
3.86338e-14
3.43142e-14
2.72474e-14
1.90714e-14
1.03905e-14
1.14958e-14
1.82736e-14
1.64305e-14
1.56969e-14
1.60658e-14
1.70826e-14
1.59173e-14
2.12781e-14
2.56612e-14
2.41515e-14
2.30301e-14
2.64031e-14
0.764754
0.764805
0.764864
0.764932
0.765008
0.76509
0.765176
0.765258
0.765332
0.765394
0.765442
0.765477
0.765501
0.765516
0.765524
0.765528
0.765528
0.765528
0.765528
0.765527
0.765524
0.76552
0.765515
0.765509
0.765506
0.765506
0.765506
0.765506
0.765508
0.76551
0.765514
0.765517
0.765521
0.765523
0.765525
0.765527
0.765529
0.765531
0.765535
0.765539
0.765545
0.765553
0.765561
0.765568
0.765575
0.765581
0.765585
0.765588
0.765591
0.765595
0.765598
0.765603
0.765608
0.765613
0.765617
0.76562
0.765622
0.765622
0.765623
0.765623
0.765624
0.765625
0.765626
0.765628
0.76563
0.765631
0.765632
0.765632
0.765632
0.765632
0.765631
0.765625
0.765587
0.76535
0.763847
0.754485
0.700763
0.474804
0.095673
0.00179139
2.33095e-06
1.58198e-10
3.96897e-14
3.65713e-14
3.08233e-14
3.1568e-14
2.85588e-14
2.57977e-14
2.94161e-14
3.43198e-14
4.0611e-14
4.31912e-14
4.6319e-14
4.23451e-14
3.68082e-14
2.90213e-14
2.79118e-14
2.51044e-14
2.38665e-14
2.3171e-14
2.03149e-14
1.74643e-14
2.1921e-14
2.76786e-14
3.04008e-14
2.87894e-14
2.66898e-14
1.96066e-14
2.08617e-14
2.90163e-14
3.28393e-14
3.39019e-14
3.3018e-14
3.11865e-14
3.03739e-14
2.64497e-14
2.72199e-14
2.51523e-14
2.23755e-14
2.79651e-14
3.25872e-14
2.83531e-14
2.66406e-14
2.47512e-14
2.73223e-14
2.77093e-14
3.00754e-14
3.16059e-14
2.94542e-14
3.00443e-14
3.16953e-14
3.4009e-14
3.45855e-14
3.54691e-14
3.54517e-14
3.44326e-14
3.46294e-14
3.3041e-14
3.15338e-14
2.98651e-14
2.62848e-14
2.55851e-14
2.83666e-14
3.24439e-14
3.59936e-14
3.66129e-14
3.61648e-14
3.40313e-14
3.41929e-14
3.4289e-14
3.07687e-14
3.2563e-14
3.14056e-14
2.81981e-14
2.27553e-14
1.66571e-14
1.47426e-14
1.74088e-14
2.61014e-14
3.55644e-14
4.84576e-14
5.69492e-14
5.6412e-14
5.73246e-14
5.47665e-14
5.16039e-14
4.67256e-14
4.33535e-14
4.56285e-14
4.22497e-14
3.69033e-14
3.25927e-14
3.32344e-14
3.42947e-14
3.66522e-14
3.64036e-14
3.1191e-14
2.79573e-14
2.3527e-14
1.98644e-14
1.9925e-14
2.04563e-14
1.73206e-14
1.23348e-14
1.06152e-14
1.23056e-14
1.51141e-14
1.73549e-14
1.93047e-14
2.18271e-14
2.68057e-14
3.11956e-14
3.13287e-14
3.06932e-14
3.50983e-14
3.24435e-14
2.92426e-14
2.81727e-14
2.41285e-14
1.80803e-14
2.05712e-14
2.00522e-14
2.62681e-14
3.15341e-14
3.82142e-14
3.50168e-14
3.46468e-14
3.29572e-14
3.05066e-14
3.22865e-14
3.12843e-14
3.17217e-14
3.35091e-14
3.63672e-14
3.66483e-14
3.34438e-14
2.63054e-14
2.18276e-14
1.60857e-14
1.54086e-14
2.14104e-14
2.04368e-14
1.97588e-14
2.16415e-14
2.11005e-14
1.99079e-14
2.29667e-14
2.60413e-14
2.3007e-14
2.37531e-14
2.69188e-14
0.764754
0.764805
0.764864
0.764932
0.765008
0.76509
0.765176
0.765258
0.765333
0.765394
0.765442
0.765477
0.765501
0.765516
0.765524
0.765528
0.765528
0.765528
0.765528
0.765527
0.765524
0.76552
0.765515
0.765509
0.765506
0.765506
0.765506
0.765506
0.765508
0.76551
0.765514
0.765517
0.765521
0.765523
0.765525
0.765527
0.765529
0.765531
0.765535
0.765539
0.765545
0.765553
0.765561
0.765568
0.765575
0.765581
0.765585
0.765588
0.765591
0.765595
0.765598
0.765603
0.765608
0.765613
0.765617
0.76562
0.765622
0.765622
0.765623
0.765623
0.765624
0.765625
0.765626
0.765628
0.76563
0.765631
0.765632
0.765632
0.765632
0.765632
0.765631
0.765625
0.765587
0.76535
0.763847
0.754485
0.700762
0.474803
0.095673
0.00179139
2.33095e-06
1.582e-10
3.71778e-14
3.4684e-14
3.14388e-14
3.25152e-14
3.0942e-14
3.07868e-14
3.2253e-14
3.69034e-14
3.98361e-14
4.19318e-14
4.24741e-14
3.69018e-14
2.97679e-14
3.10599e-14
3.20525e-14
2.94226e-14
2.76968e-14
2.9161e-14
2.43368e-14
2.1403e-14
2.25945e-14
2.80061e-14
3.11622e-14
2.73797e-14
2.60652e-14
2.00467e-14
2.12944e-14
2.92326e-14
3.4172e-14
3.45283e-14
3.28107e-14
3.15491e-14
2.86463e-14
2.66786e-14
2.70153e-14
2.76633e-14
2.69245e-14
2.35566e-14
2.70545e-14
2.84148e-14
2.44567e-14
2.68791e-14
2.73474e-14
2.87437e-14
3.30116e-14
3.47203e-14
3.18702e-14
3.39912e-14
3.6759e-14
3.64769e-14
3.79982e-14
3.75351e-14
3.67325e-14
3.69659e-14
3.64013e-14
3.29051e-14
3.3492e-14
3.07146e-14
3.15301e-14
3.29728e-14
3.10913e-14
3.35771e-14
3.68699e-14
3.89523e-14
3.56928e-14
3.50534e-14
3.48138e-14
3.60317e-14
3.27352e-14
3.22097e-14
3.07944e-14
2.83332e-14
2.55484e-14
2.03782e-14
1.8006e-14
1.96056e-14
2.77517e-14
3.7475e-14
4.64908e-14
5.15272e-14
5.45772e-14
5.68277e-14
5.39092e-14
5.10845e-14
4.86126e-14
4.44834e-14
4.38037e-14
4.13516e-14
3.8501e-14
3.61598e-14
3.83803e-14
3.72191e-14
3.78141e-14
3.4945e-14
3.26342e-14
3.11504e-14
2.49565e-14
1.98692e-14
1.97344e-14
1.84402e-14
1.76303e-14
1.4935e-14
1.54325e-14
1.76613e-14
1.91428e-14
1.86704e-14
2.06552e-14
2.51152e-14
2.82432e-14
2.99652e-14
3.17241e-14
3.48416e-14
3.72147e-14
3.42323e-14
3.19201e-14
2.95878e-14
2.45292e-14
2.00252e-14
2.08223e-14
2.0437e-14
2.6155e-14
2.97706e-14
3.4496e-14
3.50443e-14
3.41199e-14
3.32738e-14
3.15278e-14
3.33758e-14
3.22773e-14
3.27802e-14
3.46897e-14
3.52478e-14
3.42972e-14
3.28453e-14
2.75092e-14
2.17391e-14
1.90167e-14
2.01568e-14
2.12329e-14
2.25198e-14
2.40122e-14
2.60781e-14
2.36268e-14
2.2667e-14
2.4809e-14
2.78411e-14
2.60784e-14
2.70372e-14
2.97464e-14
0.764754
0.764805
0.764864
0.764932
0.765008
0.76509
0.765176
0.765258
0.765333
0.765394
0.765442
0.765477
0.765501
0.765516
0.765524
0.765528
0.765528
0.765528
0.765528
0.765527
0.765524
0.76552
0.765515
0.765509
0.765506
0.765506
0.765506
0.765506
0.765508
0.76551
0.765514
0.765518
0.765521
0.765523
0.765525
0.765527
0.765529
0.765531
0.765535
0.765539
0.765545
0.765553
0.765561
0.765568
0.765575
0.765581
0.765585
0.765588
0.765591
0.765595
0.765598
0.765603
0.765608
0.765613
0.765617
0.76562
0.765622
0.765622
0.765623
0.765623
0.765624
0.765625
0.765626
0.765628
0.76563
0.765631
0.765632
0.765632
0.765632
0.765632
0.765631
0.765625
0.765587
0.765349
0.763847
0.754485
0.700762
0.474803
0.095673
0.00179139
2.33095e-06
1.58202e-10
3.53738e-14
3.57352e-14
3.42019e-14
3.10463e-14
2.90075e-14
2.90077e-14
3.1677e-14
3.41265e-14
3.509e-14
3.69848e-14
3.63981e-14
3.43962e-14
3.143e-14
3.35521e-14
3.17933e-14
2.88676e-14
2.62031e-14
2.61697e-14
2.29188e-14
1.87547e-14
1.84737e-14
2.1614e-14
2.41854e-14
2.25639e-14
1.96142e-14
1.84948e-14
2.11514e-14
2.64241e-14
3.04475e-14
3.11912e-14
3.27427e-14
3.19776e-14
2.93001e-14
2.52881e-14
2.59754e-14
2.36829e-14
2.51305e-14
2.28966e-14
1.83607e-14
2.17451e-14
1.93347e-14
2.4743e-14
2.32724e-14
2.67796e-14
2.93501e-14
2.97161e-14
3.03608e-14
3.12966e-14
3.31291e-14
3.37704e-14
3.63857e-14
3.8238e-14
3.68265e-14
3.861e-14
3.78189e-14
3.62922e-14
3.56216e-14
3.35621e-14
3.18807e-14
3.26006e-14
3.35079e-14
3.38282e-14
3.5433e-14
3.71052e-14
3.46987e-14
3.34497e-14
3.21975e-14
3.46484e-14
3.42593e-14
3.25924e-14
2.95147e-14
2.7665e-14
2.54196e-14
2.34681e-14
2.13939e-14
2.15397e-14
2.79811e-14
3.45034e-14
4.06123e-14
4.27112e-14
4.7024e-14
4.99911e-14
4.98628e-14
5.0169e-14
4.60761e-14
4.1337e-14
3.92538e-14
3.89239e-14
3.73327e-14
3.73093e-14
3.6657e-14
3.49252e-14
3.5366e-14
3.44532e-14
3.16045e-14
2.8928e-14
2.48513e-14
2.07526e-14
1.9988e-14
1.87785e-14
1.84384e-14
1.86074e-14
1.73196e-14
1.87568e-14
1.80792e-14
1.81297e-14
2.17104e-14
2.53185e-14
2.70524e-14
2.72116e-14
2.96748e-14
3.16366e-14
3.13421e-14
2.9916e-14
2.85187e-14
2.67369e-14
2.29157e-14
1.87474e-14
1.89977e-14
1.9517e-14
2.43228e-14
2.7058e-14
2.76464e-14
2.92901e-14
2.95356e-14
3.00755e-14
3.10626e-14
3.23535e-14
2.84328e-14
2.9232e-14
2.93729e-14
2.81422e-14
2.8536e-14
2.61228e-14
2.12067e-14
1.58012e-14
1.53784e-14
1.92259e-14
2.04767e-14
2.1657e-14
2.1699e-14
2.12217e-14
1.8706e-14
1.98486e-14
2.22435e-14
2.65908e-14
2.63655e-14
2.43223e-14
2.71157e-14
0.764754
0.764805
0.764864
0.764932
0.765008
0.76509
0.765176
0.765258
0.765333
0.765395
0.765442
0.765477
0.765501
0.765516
0.765524
0.765527
0.765528
0.765528
0.765528
0.765527
0.765524
0.76552
0.765515
0.765509
0.765506
0.765506
0.765506
0.765506
0.765508
0.76551
0.765514
0.765518
0.765521
0.765523
0.765525
0.765527
0.765529
0.765531
0.765535
0.765539
0.765545
0.765553
0.765561
0.765568
0.765575
0.765581
0.765585
0.765588
0.765591
0.765595
0.765598
0.765603
0.765608
0.765613
0.765617
0.76562
0.765622
0.765622
0.765623
0.765623
0.765624
0.765625
0.765626
0.765628
0.76563
0.765631
0.765632
0.765632
0.765632
0.765632
0.765631
0.765625
0.765587
0.765349
0.763847
0.754485
0.700762
0.474804
0.0956731
0.0017914
2.33096e-06
1.58205e-10
3.33834e-14
3.53609e-14
3.2189e-14
3.02896e-14
3.06235e-14
3.25754e-14
3.42165e-14
3.16629e-14
2.93267e-14
2.95734e-14
3.19367e-14
3.37754e-14
3.17354e-14
3.06517e-14
2.78132e-14
2.54451e-14
2.40772e-14
2.33723e-14
2.06092e-14
1.52952e-14
1.18574e-14
1.15918e-14
1.43248e-14
1.65429e-14
1.77702e-14
1.89235e-14
2.03286e-14
2.42509e-14
2.61526e-14
2.71953e-14
3.22906e-14
3.25704e-14
2.99938e-14
2.68464e-14
2.34292e-14
2.0096e-14
1.71319e-14
1.83951e-14
1.44523e-14
1.52573e-14
1.77823e-14
2.18066e-14
2.26983e-14
2.68221e-14
2.71457e-14
2.50738e-14
2.9259e-14
2.98393e-14
3.11185e-14
3.02989e-14
3.19126e-14
3.45368e-14
3.46147e-14
3.51109e-14
3.46056e-14
3.70265e-14
3.69341e-14
3.34498e-14
3.03685e-14
3.38271e-14
3.36594e-14
3.36069e-14
3.44437e-14
3.48359e-14
3.29325e-14
3.07432e-14
3.09229e-14
3.13548e-14
3.07886e-14
3.0374e-14
2.77511e-14
2.81028e-14
2.58583e-14
2.19918e-14
2.10077e-14
2.06408e-14
2.4773e-14
2.81432e-14
3.21951e-14
3.29253e-14
3.80681e-14
4.18967e-14
4.6327e-14
4.82167e-14
4.25189e-14
3.66064e-14
3.88642e-14
3.85496e-14
3.71227e-14
3.64158e-14
3.36547e-14
3.34874e-14
3.49572e-14
3.20503e-14
2.914e-14
2.6455e-14
2.26307e-14
2.21632e-14
2.02908e-14
1.84146e-14
1.97939e-14
1.98318e-14
1.57498e-14
1.73207e-14
1.7756e-14
1.84161e-14
1.94392e-14
2.29258e-14
2.38105e-14
2.38175e-14
2.53371e-14
2.5065e-14
2.54598e-14
2.5287e-14
2.56814e-14
2.4647e-14
2.15332e-14
1.75467e-14
1.76621e-14
1.87965e-14
2.26522e-14
2.53429e-14
2.39164e-14
2.19185e-14
2.19172e-14
2.51349e-14
2.88748e-14
3.35224e-14
2.74401e-14
2.70957e-14
2.50889e-14
2.25416e-14
2.18992e-14
2.01526e-14
1.66058e-14
1.29203e-14
1.37939e-14
1.72089e-14
1.77005e-14
1.77488e-14
1.79011e-14
1.70973e-14
1.73583e-14
1.94826e-14
2.15722e-14
2.39302e-14
2.0315e-14
1.78511e-14
2.25858e-14
0.764754
0.764805
0.764864
0.764932
0.765008
0.76509
0.765176
0.765258
0.765333
0.765395
0.765442
0.765477
0.765501
0.765516
0.765524
0.765527
0.765528
0.765528
0.765528
0.765527
0.765524
0.76552
0.765515
0.765509
0.765506
0.765506
0.765506
0.765506
0.765508
0.76551
0.765514
0.765518
0.765521
0.765523
0.765525
0.765527
0.765529
0.765531
0.765535
0.765539
0.765545
0.765553
0.765561
0.765568
0.765575
0.765581
0.765585
0.765588
0.765591
0.765595
0.765598
0.765603
0.765608
0.765613
0.765617
0.76562
0.765622
0.765622
0.765623
0.765623
0.765624
0.765625
0.765626
0.765628
0.76563
0.765631
0.765632
0.765632
0.765632
0.765632
0.765631
0.765625
0.765587
0.765349
0.763847
0.754485
0.700762
0.474804
0.0956731
0.0017914
2.33096e-06
1.58208e-10
3.30198e-14
3.39929e-14
3.08697e-14
2.94387e-14
2.87991e-14
3.1868e-14
3.17193e-14
2.85166e-14
2.59051e-14
2.73274e-14
2.97194e-14
2.67317e-14
2.63257e-14
2.36516e-14
2.19039e-14
1.97874e-14
1.97489e-14
1.90556e-14
1.85316e-14
1.56528e-14
8.7564e-15
6.8666e-15
1.13242e-14
1.42661e-14
1.64761e-14
1.96152e-14
2.19397e-14
2.5016e-14
2.35123e-14
2.53785e-14
3.18086e-14
3.53062e-14
3.47816e-14
2.9905e-14
2.45446e-14
1.8111e-14
1.3203e-14
1.42441e-14
1.72714e-14
1.47312e-14
1.89218e-14
1.91363e-14
2.35379e-14
2.96611e-14
2.71988e-14
2.75297e-14
3.34265e-14
2.9266e-14
2.74389e-14
2.76194e-14
3.11087e-14
3.83684e-14
3.40862e-14
3.28798e-14
3.66082e-14
4.09538e-14
4.25812e-14
3.62076e-14
3.28839e-14
3.35617e-14
3.50809e-14
3.58495e-14
3.4839e-14
3.15761e-14
3.42763e-14
3.39503e-14
2.82776e-14
2.70277e-14
2.88129e-14
2.9203e-14
2.73593e-14
2.67885e-14
2.50296e-14
1.99429e-14
1.82054e-14
2.06721e-14
2.55026e-14
2.51815e-14
2.64501e-14
2.84361e-14
3.30374e-14
3.86033e-14
4.75699e-14
4.65961e-14
4.28588e-14
3.79305e-14
3.65825e-14
3.80501e-14
3.69601e-14
3.43141e-14
3.40731e-14
3.40952e-14
3.07269e-14
2.87466e-14
3.05741e-14
2.76764e-14
2.36549e-14
2.27973e-14
1.96418e-14
1.94104e-14
2.01472e-14
1.81771e-14
1.44698e-14
1.466e-14
1.4445e-14
1.61141e-14
1.73744e-14
1.89319e-14
1.89708e-14
1.97195e-14
2.05331e-14
2.10499e-14
2.16313e-14
2.30797e-14
2.22937e-14
2.10896e-14
1.76957e-14
1.54805e-14
1.39674e-14
1.8567e-14
2.44163e-14
2.71373e-14
2.72629e-14
2.07423e-14
1.54538e-14
1.9605e-14
2.52464e-14
2.73998e-14
2.39684e-14
2.0882e-14
1.83696e-14
1.91432e-14
1.97824e-14
1.74961e-14
1.24057e-14
9.40835e-15
1.08616e-14
1.28126e-14
1.49979e-14
1.39238e-14
1.50985e-14
1.48606e-14
1.64107e-14
1.7461e-14
1.90722e-14
1.76612e-14
1.46544e-14
1.58287e-14
1.51284e-14
0.764754
0.764805
0.764864
0.764932
0.765008
0.76509
0.765176
0.765258
0.765333
0.765395
0.765443
0.765477
0.765501
0.765516
0.765524
0.765527
0.765528
0.765528
0.765528
0.765527
0.765524
0.76552
0.765515
0.765509
0.765507
0.765506
0.765506
0.765506
0.765508
0.76551
0.765514
0.765518
0.765521
0.765523
0.765525
0.765527
0.765529
0.765531
0.765535
0.765539
0.765545
0.765553
0.765561
0.765568
0.765575
0.765581
0.765585
0.765588
0.765591
0.765595
0.765598
0.765603
0.765608
0.765613
0.765617
0.76562
0.765622
0.765622
0.765623
0.765623
0.765624
0.765625
0.765626
0.765628
0.76563
0.765631
0.765632
0.765632
0.765632
0.765632
0.765631
0.765625
0.765587
0.765349
0.763847
0.754485
0.700762
0.474804
0.0956731
0.0017914
2.33096e-06
1.58212e-10
3.06745e-14
3.21489e-14
3.06991e-14
2.96831e-14
2.95613e-14
3.01845e-14
2.88777e-14
2.54412e-14
2.39134e-14
2.3781e-14
2.44979e-14
2.12088e-14
1.9951e-14
1.88361e-14
1.84618e-14
1.66817e-14
1.59932e-14
1.58737e-14
1.56562e-14
1.52228e-14
1.14157e-14
8.16338e-15
1.08316e-14
1.49738e-14
1.73702e-14
2.04999e-14
2.36863e-14
2.44457e-14
2.31098e-14
2.54026e-14
3.00181e-14
3.26157e-14
3.16469e-14
3.02136e-14
2.3695e-14
1.72597e-14
1.35924e-14
1.26138e-14
1.4902e-14
1.45026e-14
1.70418e-14
1.70611e-14
2.02935e-14
2.28495e-14
2.28414e-14
2.36284e-14
2.51063e-14
2.61989e-14
2.55653e-14
2.57217e-14
2.84732e-14
3.25022e-14
3.33587e-14
3.27685e-14
3.47508e-14
3.7059e-14
3.8191e-14
3.50631e-14
3.36607e-14
3.41849e-14
3.44926e-14
3.57342e-14
3.48576e-14
3.15688e-14
3.42325e-14
3.0495e-14
2.71454e-14
2.60382e-14
2.43033e-14
2.67849e-14
2.52519e-14
2.27792e-14
2.232e-14
1.90425e-14
1.52912e-14
1.68753e-14
2.03552e-14
2.00955e-14
2.47204e-14
2.75222e-14
2.68784e-14
3.3175e-14
4.07989e-14
3.96108e-14
3.90635e-14
3.71105e-14
3.61717e-14
3.61978e-14
3.48871e-14
3.23611e-14
3.28011e-14
3.41498e-14
3.10645e-14
2.7626e-14
2.75188e-14
2.46742e-14
2.27107e-14
2.04486e-14
1.72257e-14
1.57153e-14
1.57171e-14
1.54188e-14
1.22936e-14
1.06524e-14
1.07581e-14
1.2183e-14
1.38346e-14
1.46035e-14
1.5174e-14
1.69776e-14
1.65871e-14
1.61042e-14
1.78788e-14
1.94236e-14
1.84054e-14
1.87604e-14
1.61589e-14
1.48398e-14
1.53036e-14
1.88187e-14
2.22871e-14
2.48223e-14
2.53082e-14
2.21986e-14
1.73012e-14
1.90632e-14
2.17542e-14
2.02342e-14
1.9056e-14
1.629e-14
1.50019e-14
1.49292e-14
1.63464e-14
1.4838e-14
8.79586e-15
7.81037e-15
9.45602e-15
9.37023e-15
1.1707e-14
1.10109e-14
1.08002e-14
1.28187e-14
1.21958e-14
1.12938e-14
1.48083e-14
1.30043e-14
1.2322e-14
1.33779e-14
1.03491e-14
0.764754
0.764805
0.764864
0.764931
0.765008
0.76509
0.765176
0.765258
0.765333
0.765395
0.765443
0.765477
0.765501
0.765516
0.765524
0.765527
0.765528
0.765528
0.765528
0.765527
0.765524
0.76552
0.765515
0.76551
0.765507
0.765506
0.765506
0.765506
0.765508
0.76551
0.765514
0.765518
0.765521
0.765523
0.765525
0.765527
0.765529
0.765531
0.765535
0.765539
0.765545
0.765553
0.765561
0.765568
0.765575
0.765581
0.765585
0.765588
0.765591
0.765595
0.765598
0.765603
0.765608
0.765613
0.765617
0.76562
0.765622
0.765622
0.765623
0.765623
0.765624
0.765625
0.765626
0.765628
0.76563
0.765631
0.765632
0.765632
0.765632
0.765632
0.765631
0.765625
0.765587
0.765349
0.763847
0.754485
0.700762
0.474804
0.0956731
0.0017914
2.33096e-06
1.58221e-10
3.1631e-14
3.45134e-14
3.11184e-14
2.80894e-14
2.77122e-14
3.2164e-14
2.87891e-14
2.24795e-14
2.22889e-14
1.97478e-14
1.8493e-14
1.78213e-14
1.75705e-14
1.91495e-14
2.28248e-14
1.63433e-14
1.53561e-14
1.57534e-14
1.58085e-14
1.23909e-14
9.09467e-15
1.18003e-14
1.24113e-14
1.44366e-14
1.72716e-14
2.21436e-14
2.48786e-14
2.47154e-14
2.2969e-14
2.40618e-14
2.60154e-14
2.87774e-14
3.40066e-14
2.89818e-14
2.28193e-14
1.60588e-14
1.06863e-14
1.24057e-14
1.28608e-14
1.17244e-14
1.47607e-14
1.41568e-14
1.64468e-14
1.69916e-14
1.81335e-14
1.79471e-14
1.35396e-14
2.04367e-14
2.56939e-14
2.75922e-14
2.91418e-14
2.79897e-14
2.83386e-14
3.17869e-14
3.26554e-14
3.35454e-14
3.69276e-14
3.79054e-14
3.39917e-14
3.69505e-14
3.72359e-14
3.81561e-14
3.90536e-14
3.19803e-14
3.17789e-14
2.83862e-14
2.90617e-14
2.64364e-14
2.14253e-14
2.31912e-14
2.68652e-14
2.226e-14
1.60413e-14
1.60863e-14
1.30824e-14
1.1075e-14
1.18069e-14
1.2771e-14
2.01679e-14
2.68155e-14
2.74263e-14
3.03423e-14
3.28301e-14
3.36556e-14
3.58953e-14
3.79045e-14
3.73444e-14
3.69682e-14
3.31311e-14
2.9445e-14
3.36573e-14
3.32496e-14
2.94133e-14
2.60514e-14
2.86131e-14
2.5589e-14
2.15594e-14
1.59388e-14
1.62518e-14
1.73934e-14
1.53196e-14
1.31272e-14
9.37219e-15
8.39595e-15
7.48629e-15
1.49793e-14
1.93059e-14
1.49193e-14
1.46336e-14
1.28569e-14
1.15209e-14
1.38385e-14
1.65522e-14
1.61068e-14
1.87507e-14
1.84885e-14
1.63493e-14
1.53341e-14
1.46427e-14
1.78919e-14
1.82615e-14
2.26918e-14
2.43956e-14
2.35806e-14
1.33539e-14
1.68795e-14
1.94478e-14
1.8811e-14
1.74837e-14
1.44182e-14
1.13858e-14
1.11089e-14
1.30112e-14
9.28852e-15
3.79262e-15
5.4685e-15
7.1882e-15
6.60961e-15
8.43697e-15
7.02574e-15
3.28723e-15
6.72122e-15
7.51599e-15
9.31756e-15
1.21723e-14
7.63013e-15
9.66929e-15
1.01201e-14
8.31112e-15
0.764754
0.764804
0.764864
0.764931
0.765008
0.76509
0.765176
0.765258
0.765333
0.765395
0.765443
0.765477
0.765501
0.765516
0.765524
0.765527
0.765528
0.765528
0.765528
0.765527
0.765524
0.76552
0.765515
0.76551
0.765507
0.765506
0.765506
0.765506
0.765508
0.76551
0.765514
0.765518
0.765521
0.765523
0.765525
0.765527
0.765529
0.765531
0.765535
0.765539
0.765545
0.765553
0.76556
0.765568
0.765575
0.765581
0.765585
0.765588
0.765591
0.765595
0.765598
0.765603
0.765608
0.765613
0.765617
0.76562
0.765622
0.765622
0.765623
0.765623
0.765624
0.765625
0.765626
0.765628
0.76563
0.765631
0.765632
0.765632
0.765632
0.765632
0.765631
0.765625
0.765587
0.765349
0.763847
0.754485
0.700762
0.474804
0.0956732
0.0017914
2.33096e-06
1.58237e-10
3.36078e-14
3.55414e-14
2.98032e-14
2.71485e-14
2.68582e-14
3.37641e-14
2.72376e-14
2.30714e-14
2.23496e-14
1.67218e-14
1.6676e-14
1.68036e-14
1.81315e-14
2.187e-14
2.35931e-14
2.08745e-14
1.89917e-14
1.71305e-14
1.88456e-14
1.28326e-14
1.33365e-14
1.78979e-14
1.88167e-14
1.73313e-14
2.07488e-14
2.21443e-14
2.55604e-14
2.64935e-14
2.16623e-14
2.45255e-14
2.417e-14
2.6123e-14
3.45035e-14
2.51804e-14
2.35146e-14
1.88709e-14
1.06806e-14
1.07856e-14
1.39548e-14
1.65256e-14
1.51059e-14
1.26297e-14
1.16974e-14
1.73893e-14
1.73363e-14
1.85724e-14
1.46675e-14
1.80356e-14
2.3323e-14
2.5445e-14
2.62052e-14
2.58539e-14
2.25546e-14
2.83907e-14
2.97133e-14
3.0686e-14
3.76394e-14
3.61669e-14
3.76689e-14
4.16882e-14
3.66345e-14
3.93552e-14
4.10425e-14
3.00911e-14
3.22777e-14
3.03285e-14
2.59116e-14
2.65258e-14
2.35813e-14
2.22377e-14
2.56041e-14
2.26772e-14
1.54214e-14
1.47081e-14
1.64141e-14
1.37183e-14
1.12101e-14
1.13075e-14
1.78562e-14
2.35937e-14
2.52634e-14
2.98676e-14
2.80398e-14
3.25334e-14
3.80659e-14
3.60746e-14
3.41933e-14
3.36875e-14
3.51188e-14
2.96553e-14
2.96058e-14
3.51711e-14
2.99223e-14
2.56735e-14
2.66325e-14
2.19636e-14
2.20935e-14
1.79466e-14
1.65867e-14
1.90095e-14
1.35869e-14
8.40108e-15
1.02933e-14
7.96046e-15
8.04161e-15
1.9362e-14
1.91176e-14
1.16332e-14
1.36108e-14
1.14123e-14
9.67475e-15
1.36354e-14
1.38413e-14
1.51044e-14
1.79483e-14
1.56943e-14
1.69922e-14
1.39928e-14
1.43278e-14
2.12458e-14
1.87538e-14
2.62768e-14
2.23683e-14
2.36992e-14
1.3744e-14
1.6674e-14
1.66302e-14
1.45114e-14
1.51929e-14
1.29479e-14
8.38446e-15
8.18101e-15
1.09657e-14
3.46188e-15
6.49309e-15
8.04479e-15
5.81361e-15
5.75586e-15
8.71576e-15
3.48483e-15
1.57494e-15
7.33533e-15
1.02241e-14
8.77971e-15
1.08774e-14
5.32788e-15
1.05462e-14
1.10078e-14
1.01186e-14
2.67339e-14
6.70433e-14
9.99593e-14
1.13438e-13
1.03957e-13
7.11939e-14
4.14023e-14
3.07046e-14
4.1264e-14
6.20432e-14
6.47022e-14
6.24266e-14
4.1213e-14
5.43683e-14
5.7777e-14
4.13434e-14
2.93318e-14
2.60863e-14
2.7155e-14
1.87568e-14
7.627e-15
2.81012e-15
1.51179e-15
6.2981e-15
1.23156e-14
2.87852e-14
3.937e-14
4.41305e-14
3.14929e-14
1.21887e-14
1.72219e-14
1.77094e-14
8.808e-15
2.30781e-14
1.65371e-14
1.96112e-14
2.03857e-14
2.11082e-14
2.56691e-14
2.21217e-14
2.89223e-14
2.93082e-14
1.53986e-14
1.60988e-14
4.23839e-14
7.05933e-14
6.9922e-14
6.86426e-14
6.76598e-14
5.37113e-14
2.94754e-14
3.47914e-14
2.84199e-14
8.90384e-15
2.17054e-14
2.63721e-14
2.83058e-14
2.07339e-14
2.09216e-14
2.40826e-14
2.00403e-14
2.22218e-14
3.53548e-14
5.28169e-14
6.78901e-14
7.04231e-14
5.98854e-14
3.31409e-14
1.15042e-14
1.14334e-14
1.46836e-14
1.6131e-14
1.59605e-14
1.7523e-14
1.07404e-14
1.35694e-14
8.02763e-15
2.54824e-14
4.53146e-14
6.36466e-14
6.21942e-14
6.66361e-14
6.71367e-14
7.22352e-14
7.6891e-14
8.44616e-14
8.74089e-14
6.05588e-14
3.56885e-14
3.49699e-14
3.20701e-14
3.68096e-14
3.11789e-14
2.48561e-14
2.31926e-14
2.85574e-14
2.84049e-14
2.97943e-14
5.04267e-14
6.16127e-14
1.01692e-14
2.62789e-14
6.00324e-14
9.82142e-14
1.23147e-13
1.14036e-13
7.39396e-14
4.31177e-14
2.1262e-14
3.49009e-14
5.14047e-14
5.34437e-14
4.67416e-14
3.97289e-14
4.31133e-14
5.19026e-14
3.44086e-14
2.37067e-14
2.68141e-14
3.72456e-14
2.1632e-14
1.36763e-14
1.64088e-14
5.58634e-15
1.42134e-14
1.45574e-14
3.85785e-14
5.45189e-14
4.18401e-14
4.04641e-14
1.45169e-14
1.99149e-14
2.748e-14
1.5311e-14
1.39231e-14
2.73617e-14
3.58257e-14
2.87007e-14
2.59554e-14
2.31944e-14
2.11954e-14
2.18365e-14
1.65581e-14
2.04758e-14
1.30166e-14
3.78202e-14
7.62047e-14
8.42435e-14
8.15054e-14
7.64619e-14
6.46509e-14
3.83659e-14
4.38501e-14
2.82217e-14
1.09509e-14
2.48408e-14
2.91971e-14
3.72824e-14
3.15237e-14
2.23684e-14
1.6335e-14
2.43169e-14
4.01504e-14
4.17493e-14
5.30377e-14
6.79421e-14
7.69936e-14
5.95597e-14
2.67411e-14
2.00748e-14
1.9095e-14
2.05094e-14
2.1457e-14
1.41866e-14
2.09333e-14
2.43721e-14
7.56911e-15
1.71758e-14
3.92247e-14
5.04032e-14
7.10752e-14
6.92207e-14
6.86909e-14
6.7869e-14
7.41915e-14
7.58983e-14
9.19564e-14
9.09371e-14
6.85006e-14
4.16355e-14
2.73136e-14
2.31691e-14
2.9816e-14
1.99923e-14
2.31983e-14
2.35739e-14
2.57649e-14
2.1914e-14
2.89858e-14
4.41123e-14
9.5405e-15
2.04601e-14
4.99097e-14
8.20442e-14
9.33201e-14
8.41365e-14
6.27808e-14
4.2891e-14
2.58304e-14
2.7904e-14
2.95989e-14
2.80401e-14
3.02774e-14
2.8091e-14
2.98426e-14
3.1444e-14
2.27571e-14
1.66474e-14
1.81746e-14
2.82333e-14
1.10811e-14
3.44257e-15
1.23295e-14
1.20079e-14
1.09024e-14
1.24692e-14
4.19049e-14
5.90532e-14
5.28284e-14
3.86349e-14
2.45087e-14
9.41935e-15
2.13496e-14
1.78447e-14
1.5718e-14
2.78751e-14
3.50378e-14
3.14724e-14
2.59047e-14
2.60427e-14
2.21938e-14
1.50031e-14
1.65873e-14
2.17138e-14
1.16987e-14
2.57459e-14
5.81855e-14
6.69929e-14
6.87842e-14
6.80431e-14
5.41317e-14
3.38505e-14
2.92055e-14
9.69696e-15
2.17063e-14
2.92628e-14
3.76475e-14
4.2086e-14
3.67919e-14
2.91931e-14
1.3507e-14
2.85693e-14
4.59034e-14
4.39759e-14
4.8898e-14
6.35116e-14
7.24181e-14
5.36634e-14
2.14201e-14
2.6588e-14
2.22452e-14
1.78126e-14
1.6585e-14
1.56671e-14
2.90881e-14
3.68047e-14
3.24548e-14
2.83056e-14
4.31391e-14
5.17355e-14
6.83338e-14
7.1025e-14
7.29614e-14
8.04903e-14
7.99196e-14
7.78445e-14
8.2493e-14
7.92851e-14
5.86388e-14
4.13508e-14
2.81264e-14
9.78919e-15
1.6215e-14
2.62005e-14
3.95709e-14
4.65098e-14
5.29942e-14
5.34429e-14
5.15073e-14
3.80322e-14
3.36652e-14
2.78258e-14
3.16043e-14
2.98431e-14
3.46367e-14
2.48988e-14
2.09554e-14
1.36025e-14
1.24647e-14
5.67628e-15
1.2066e-14
1.60955e-14
1.48617e-14
8.2639e-15
1.71984e-14
1.36815e-14
2.24554e-14
2.70403e-14
4.90108e-14
5.68455e-14
5.92913e-14
4.56969e-14
3.70113e-14
2.10244e-14
2.82309e-14
2.54634e-14
3.35641e-14
3.12258e-14
3.77691e-14
3.54929e-14
3.57733e-14
3.25457e-14
3.78991e-14
3.43594e-14
3.41572e-14
2.99023e-14
2.5783e-14
1.40019e-14
3.62222e-14
4.6741e-14
5.40233e-14
5.07454e-14
3.91225e-14
3.24389e-14
3.12957e-14
2.67083e-14
3.81349e-14
4.51697e-14
4.9984e-14
5.322e-14
2.25075e-14
2.83882e-14
3.23848e-14
3.71746e-14
3.78827e-14
3.61981e-14
3.98935e-14
4.46396e-14
4.42534e-14
3.94753e-14
3.62275e-14
3.96374e-14
3.99688e-14
3.8258e-14
3.27303e-14
3.47333e-14
3.73301e-14
3.73681e-14
3.15087e-14
2.49242e-14
2.23022e-14
1.74112e-14
2.14385e-14
2.20083e-14
2.77972e-14
3.87311e-14
4.26146e-14
5.52709e-14
6.23482e-14
5.22176e-14
4.63311e-14
3.61339e-14
3.42123e-14
3.73085e-14
4.29763e-14
4.71877e-14
4.84685e-14
5.08175e-14
4.79515e-14
5.14022e-14
4.80817e-14
5.15077e-14
5.3574e-14
5.15545e-14
4.84081e-14
3.63983e-14
3.20945e-14
3.45428e-14
3.8893e-14
3.93381e-14
3.64137e-14
3.18234e-14
3.62207e-14
3.75538e-14
3.98926e-14
4.88862e-14
6.04466e-14
2.97787e-14
2.83325e-14
3.68265e-14
4.64397e-14
4.88906e-14
4.97274e-14
4.22533e-14
4.67584e-14
4.98625e-14
4.84819e-14
4.47238e-14
4.64426e-14
4.41216e-14
4.72756e-14
4.42622e-14
5.44759e-14
5.36319e-14
5.31481e-14
4.45486e-14
4.52032e-14
3.85812e-14
3.36088e-14
3.67712e-14
4.13314e-14
4.52193e-14
5.07582e-14
5.01217e-14
5.93853e-14
5.87258e-14
5.71857e-14
4.91961e-14
4.26335e-14
3.73151e-14
4.817e-14
5.61844e-14
6.23235e-14
6.28572e-14
6.60851e-14
6.27966e-14
6.08663e-14
5.56737e-14
6.01115e-14
6.21517e-14
5.77481e-14
5.47861e-14
4.57647e-14
3.8201e-14
4.50958e-14
3.63471e-14
4.72353e-14
4.59092e-14
4.38616e-14
4.54792e-14
5.02957e-14
4.55218e-14
5.2199e-14
3.35948e-14
3.46221e-14
3.74836e-14
3.78687e-14
4.10933e-14
4.35863e-14
4.1312e-14
4.09393e-14
3.82362e-14
3.85146e-14
3.69851e-14
3.4652e-14
3.69821e-14
4.02766e-14
4.45129e-14
5.29806e-14
5.90996e-14
5.12309e-14
4.49587e-14
4.02875e-14
4.05786e-14
3.87164e-14
3.51084e-14
3.8695e-14
4.41464e-14
4.77239e-14
4.80572e-14
5.7954e-14
6.34091e-14
5.43524e-14
4.45086e-14
3.96394e-14
3.73421e-14
4.37606e-14
5.24659e-14
6.11174e-14
6.55386e-14
6.60069e-14
6.84335e-14
6.11721e-14
5.62279e-14
5.71936e-14
5.90004e-14
5.75265e-14
5.59887e-14
4.96645e-14
4.50259e-14
4.19834e-14
3.73579e-14
4.11509e-14
4.01065e-14
4.35247e-14
4.16946e-14
4.46923e-14
4.2413e-14
4.56918e-14
1.2631e-14
1.32233e-14
1.14859e-14
6.19272e-15
8.39547e-15
8.14153e-15
1.58871e-14
1.17115e-14
3.77863e-15
4.10219e-15
2.40879e-15
7.9691e-15
1.43543e-14
2.12168e-14
2.69278e-14
3.02331e-14
3.4783e-14
3.04603e-14
2.78891e-14
2.1268e-14
1.92214e-14
1.24514e-14
1.58218e-14
2.76717e-14
3.40979e-14
3.40979e-14
3.47231e-14