/*--------------------------------*- C++ -*----------------------------------*\
| =========                 |                                                 |
| \\      /  F ield         | OpenFOAM: The Open Source CFD Toolbox           |
|  \\    /   O peration     | Version:  2406                                  |
|   \\  /    A nd           | Website:  www.openfoam.com                      |
|    \\/     M anipulation  |                                                 |
\*---------------------------------------------------------------------------*/
FoamFile
{
    version     2.0;
    format      ascii;
    arch        "LSB;label=32;scalar=64";
    class       volVectorField;
    location    "0.04";
    object      U;
}
// * * * * * * * * * * * * * * * * * * * * * * * * * * * * * * * * * * * * * //

dimensions      [0 1 -1 0 0 0 0];

internalField   nonuniform List<vector> 
14020
(
(317.342 7.235e-05 5.42318e-06)
(317.367 5.50626e-05 5.15217e-06)
(317.397 3.09929e-05 5.3349e-06)
(317.43 4.04928e-06 5.81844e-06)
(317.468 -2.44072e-05 5.2628e-06)
(317.509 -4.39795e-05 3.90361e-06)
(317.55 -5.13355e-05 2.12506e-06)
(317.591 -4.14391e-05 -1.44033e-07)
(317.627 -1.67168e-05 -3.66866e-06)
(317.658 1.55481e-05 -6.9613e-06)
(317.681 4.223e-05 -8.44692e-06)
(317.698 5.47822e-05 -9.00536e-06)
(317.709 5.0126e-05 -8.7971e-06)
(317.716 3.15374e-05 -7.41874e-06)
(317.72 5.21921e-06 -5.53881e-06)
(317.721 -2.13499e-05 -3.33325e-06)
(317.722 -4.02064e-05 -1.02806e-06)
(317.721 -4.94622e-05 7.29796e-07)
(317.721 -5.42734e-05 3.27829e-06)
(317.72 -4.36052e-05 4.63155e-06)
(317.719 -2.16886e-05 4.64604e-06)
(317.717 2.43065e-06 4.87132e-06)
(317.714 2.19754e-05 5.10055e-06)
(317.711 3.30294e-05 4.26139e-06)
(317.71 3.13066e-05 3.9596e-06)
(317.71 2.11717e-05 4.46609e-06)
(317.71 9.17649e-06 4.93636e-06)
(317.71 -8.91367e-06 4.33108e-06)
(317.711 -2.44057e-05 2.40612e-06)
(317.712 -3.51623e-05 1.32025e-06)
(317.714 -3.89596e-05 1.87648e-06)
(317.715 -3.32519e-05 2.01551e-06)
(317.717 -1.84705e-05 -6.9008e-07)
(317.718 -5.12904e-08 -3.65276e-06)
(317.718 1.77536e-05 -7.28902e-06)
(317.719 2.80726e-05 -1.07349e-05)
(317.72 2.64354e-05 -1.2011e-05)
(317.721 1.60438e-05 -1.18211e-05)
(317.723 2.42436e-06 -1.10249e-05)
(317.725 -1.09781e-05 -1.07395e-05)
(317.728 -2.14054e-05 -1.10981e-05)
(317.731 -2.73465e-05 -1.23832e-05)
(317.735 -2.70871e-05 -1.60678e-05)
(317.739 -2.2216e-05 -2.12863e-05)
(317.743 -1.481e-05 -2.75026e-05)
(317.745 -7.67879e-06 -3.49027e-05)
(317.747 -2.72009e-06 -4.32398e-05)
(317.749 -4.61437e-07 -5.07654e-05)
(317.751 -1.42095e-06 -5.60866e-05)
(317.752 -5.16941e-06 -5.93537e-05)
(317.754 -1.03659e-05 -6.10331e-05)
(317.756 -1.50304e-05 -6.17206e-05)
(317.758 -1.77603e-05 -6.22276e-05)
(317.761 -1.78609e-05 -6.42425e-05)
(317.763 -1.56215e-05 -6.90664e-05)
(317.764 -1.25848e-05 -7.57816e-05)
(317.765 -1.01632e-05 -8.25265e-05)
(317.765 -8.8596e-06 -8.88482e-05)
(317.766 -8.23853e-06 -9.48929e-05)
(317.766 -7.3459e-06 -0.000100388)
(317.766 -6.89288e-06 -0.000103071)
(317.767 -6.59509e-06 -0.000103054)
(317.767 -5.51579e-06 -0.000101306)
(317.768 -3.28861e-06 -9.984e-05)
(317.77 3.10777e-07 -0.000100059)
(317.77 4.81219e-06 -0.000102472)
(317.771 9.7353e-06 -0.000107097)
(317.771 1.44666e-05 -0.0001129)
(317.771 1.78819e-05 -0.000117452)
(317.771 2.3941e-05 -0.000125686)
(317.77 3.27476e-05 -0.000138502)
(317.767 4.49045e-05 -0.0001583)
(317.749 5.96191e-05 -0.000183745)
(317.632 7.40547e-05 -0.000205117)
(316.895 8.88877e-05 -0.000231833)
(312.311 0.000106384 -0.000279998)
(286.299 0.000115653 -0.000320475)
(183.747 7.94916e-05 -0.000227184)
(33.6896 1.34928e-05 -3.7951e-05)
(0.615893 1.98609e-07 -5.31635e-07)
(0.000801057 2.38196e-10 -4.96353e-10)
(5.43678e-08 6.27217e-12 6.59199e-12)
(-8.64873e-12 6.68308e-12 7.29494e-12)
(-9.10476e-12 5.72568e-12 6.69652e-12)
(-7.15103e-12 4.98115e-12 5.90742e-12)
(-6.56245e-12 4.61266e-12 5.67964e-12)
(-6.23931e-12 4.04826e-12 5.75648e-12)
(-5.09052e-12 4.24812e-12 6.38126e-12)
(-6.30765e-12 4.545e-12 7.55923e-12)
(-7.13493e-12 2.02263e-12 1.00401e-11)
(-5.41772e-12 1.81019e-12 1.29174e-11)
(-3.93134e-12 1.76932e-12 1.44732e-11)
(-4.10359e-12 2.78946e-12 1.5514e-11)
(-4.75357e-12 3.06779e-12 1.44494e-11)
(-3.09704e-12 2.30792e-12 1.20694e-11)
(-1.98906e-12 1.22065e-12 9.51568e-12)
(-2.53738e-12 1.723e-12 8.10206e-12)
(-1.00051e-12 2.48584e-12 7.10103e-12)
(1.33845e-12 2.00882e-12 6.82937e-12)
(8.47753e-13 1.37819e-12 6.53535e-12)
(-1.48226e-13 2.08043e-13 6.49858e-12)
(4.9881e-13 -8.88843e-13 6.79425e-12)
(6.39541e-13 -2.13202e-12 8.36366e-12)
(1.57101e-12 -2.47607e-12 1.01956e-11)
(2.73337e-12 -2.22123e-12 1.06249e-11)
(4.03635e-12 -2.13113e-12 9.12969e-12)
(5.30086e-12 -1.45835e-12 7.47169e-12)
(4.71246e-12 -1.78192e-12 4.9861e-12)
(6.60303e-12 -1.55518e-12 1.90596e-12)
(9.55875e-12 -1.24984e-12 -1.04376e-12)
(1.01252e-11 5.66609e-14 -4.13179e-12)
(9.6809e-12 9.32902e-13 -6.75308e-12)
(9.28676e-12 1.28382e-12 -7.68096e-12)
(9.89192e-12 1.56061e-12 -6.14736e-12)
(8.41791e-12 2.82189e-12 -5.61186e-12)
(7.2225e-12 2.59744e-12 -4.04035e-12)
(7.03874e-12 3.51035e-12 -2.54518e-12)
(6.1511e-12 2.65863e-12 -1.84215e-12)
(8.37088e-12 3.41342e-12 -7.50178e-13)
(9.10574e-12 7.06039e-12 -7.04922e-14)
(5.56314e-12 9.42886e-12 4.10089e-13)
(8.2497e-13 8.86436e-12 -1.76214e-12)
(-2.92516e-12 6.56301e-12 -4.52117e-12)
(-4.18678e-12 3.92564e-12 -5.89315e-12)
(-2.91969e-12 3.73989e-12 -7.31967e-12)
(-1.04915e-12 3.00999e-12 -8.31313e-12)
(2.43996e-13 2.09823e-12 -8.90369e-12)
(2.55887e-13 2.46806e-12 -9.81606e-12)
(1.85621e-13 1.48622e-12 -1.05304e-11)
(2.79059e-12 8.72435e-13 -9.8577e-12)
(4.36288e-12 8.88263e-13 -8.29343e-12)
(5.21746e-12 1.40008e-12 -8.60964e-12)
(4.94929e-12 1.5545e-12 -9.56218e-12)
(4.77447e-12 1.43987e-12 -1.10444e-11)
(3.86264e-12 2.37786e-12 -1.17893e-11)
(3.3968e-12 2.67314e-12 -1.13804e-11)
(3.85978e-12 2.6655e-12 -1.07266e-11)
(3.21909e-12 3.02726e-12 -1.09224e-11)
(2.1491e-12 2.84581e-12 -1.11974e-11)
(2.24396e-12 8.42976e-13 -9.58761e-12)
(4.40941e-12 1.43813e-13 -6.70505e-12)
(6.05673e-12 2.71487e-13 -4.65409e-12)
(7.64926e-12 -2.90019e-13 -4.26183e-12)
(8.66608e-12 -1.0413e-12 -5.91477e-12)
(9.97586e-12 -8.43778e-13 -6.66252e-12)
(1.12465e-11 -1.03701e-12 -6.15847e-12)
(1.11254e-11 1.39677e-13 -5.64929e-12)
(1.01171e-11 -1.16656e-13 -3.9782e-12)
(1.23927e-11 2.87606e-13 -1.07088e-12)
(1.16517e-11 1.9514e-12 2.49217e-12)
(8.53834e-12 1.42694e-12 4.53551e-12)
(7.92207e-12 1.02571e-12 6.60653e-12)
(8.0257e-12 5.03975e-13 8.94587e-12)
(6.44275e-12 1.13246e-12 8.30653e-12)
(3.62129e-12 3.65882e-13 6.11688e-12)
(3.99003e-12 -1.33698e-12 2.46891e-12)
(5.10497e-12 -5.19063e-14 -1.45372e-12)
(2.46886e-12 -4.21106e-14 -4.7808e-12)
(3.13478e-12 9.63935e-13 -8.46245e-12)
(4.98799e-12 4.48097e-12 -1.0323e-11)
(3.9275e-12 7.46856e-12 -1.47071e-11)
(8.94127e-13 7.58505e-12 -1.77915e-11)
(-1.6394e-12 7.94141e-12 -1.82177e-11)
(-4.08989e-12 7.81933e-12 -1.73564e-11)
(-5.2029e-12 6.41694e-12 -1.5729e-11)
(-6.64017e-12 5.78096e-12 -1.39862e-11)
(-8.44328e-12 5.7178e-12 -1.31327e-11)
(-8.28738e-12 5.00935e-12 -1.1059e-11)
(-1.06875e-11 4.59191e-12 -9.404e-12)
(-1.0339e-11 3.43056e-12 -7.79254e-12)
(-8.81028e-12 3.22061e-12 -7.32903e-12)
(-8.48252e-12 3.59515e-12 -5.66784e-12)
(-7.90536e-12 3.65958e-12 -4.55948e-12)
(-8.05571e-12 4.46026e-12 -4.173e-12)
(-1.12168e-11 3.91967e-12 -3.89515e-12)
(-1.28042e-11 1.95395e-12 -3.49754e-12)
(-1.13521e-11 5.7399e-13 -3.41097e-12)
(-9.84266e-12 -9.93771e-13 -2.75223e-12)
(-7.56003e-12 -8.13632e-13 -2.62655e-12)
(-6.1766e-12 -9.80719e-13 -1.66711e-12)
(-6.80356e-12 -9.64069e-13 -2.55067e-12)
(-7.14152e-12 -2.19779e-12 -2.86089e-12)
(-5.28451e-12 -2.50201e-12 -3.05956e-12)
(-2.55735e-12 -3.60594e-12 -3.229e-12)
(1.16273e-12 -2.50243e-12 -3.63901e-12)
(1.42764e-12 8.34281e-13 -3.68865e-12)
(-9.6875e-13 2.41467e-12 -3.46074e-12)
(9.66707e-15 3.72634e-12 -4.35671e-12)
(9.53549e-13 4.81373e-12 -5.9611e-12)
(-2.39796e-13 5.81665e-12 -4.11445e-12)
(-1.45289e-13 7.95485e-12 -3.03513e-12)
(-1.24174e-12 9.10345e-12 -2.88185e-12)
(-2.59408e-12 9.09288e-12 -3.30133e-12)
(-3.6617e-12 7.76365e-12 -3.04602e-12)
(-7.23706e-12 7.54348e-12 -3.15366e-12)
(-8.88288e-12 5.07564e-12 -3.13336e-12)
(-6.95904e-12 4.06568e-12 -3.93326e-12)
(-6.30539e-12 3.20163e-12 -5.35592e-12)
(-6.04953e-12 2.99189e-12 -4.51079e-12)
(-3.7259e-12 2.69427e-12 -4.17956e-12)
(-3.07901e-12 2.65891e-12 -5.35828e-12)
(-1.90478e-12 1.159e-12 -6.74886e-12)
(3.91458e-13 1.2271e-12 -8.68544e-12)
(2.76366e-12 1.34558e-12 -1.04267e-11)
(3.16172e-12 2.01224e-12 -1.15754e-11)
(2.3388e-12 1.6157e-12 -1.2135e-11)
(2.41814e-12 1.99006e-12 -1.19419e-11)
(2.34939e-12 1.90005e-12 -1.12689e-11)
(2.79611e-12 3.00557e-12 -1.07261e-11)
(1.29738e-12 3.35774e-12 -9.98299e-12)
(2.1195e-13 3.34947e-12 -9.83245e-12)
(-2.72877e-13 3.43648e-12 -1.03258e-11)
(-4.63094e-14 3.17104e-12 -1.08946e-11)
(-7.17644e-13 3.88977e-12 -1.17506e-11)
(-2.50445e-12 3.71846e-12 -1.24972e-11)
(-3.68304e-12 3.82617e-12 -1.0529e-11)
(-3.96524e-12 2.19995e-12 -8.19271e-12)
(-1.84405e-12 1.29623e-12 -6.15437e-12)
(-2.58445e-13 2.23628e-12 -2.77184e-12)
(9.40522e-13 3.62384e-12 1.26138e-12)
(-3.24289e-13 4.6615e-12 4.19563e-12)
(-3.40332e-14 4.14602e-12 3.83318e-12)
(1.54023e-12 3.96674e-12 3.31553e-12)
(-4.41748e-13 5.03442e-12 2.22343e-12)
(-2.67345e-12 5.10694e-12 1.11207e-12)
(-1.91213e-12 4.94841e-12 1.33418e-12)
(-3.56758e-12 5.5646e-12 3.12741e-12)
(-5.80511e-12 5.22693e-12 4.09288e-12)
(-5.29538e-12 3.87175e-12 5.08511e-12)
(-4.71764e-12 1.9721e-12 6.04119e-12)
(-4.52352e-12 1.8922e-12 7.63485e-12)
(317.342 3.89803e-05 7.06843e-06)
(317.367 2.78354e-05 6.61976e-06)
(317.396 1.67763e-05 6.06075e-06)
(317.43 7.63426e-06 5.34552e-06)
(317.468 -9.56441e-06 4.28239e-06)
(317.509 -2.83342e-05 2.87776e-06)
(317.55 -3.70956e-05 6.93297e-07)
(317.591 -3.2676e-05 -1.56228e-06)
(317.627 -1.29095e-05 -4.22471e-06)
(317.658 1.666e-05 -6.89255e-06)
(317.681 4.25191e-05 -8.18413e-06)
(317.698 5.56598e-05 -8.78395e-06)
(317.709 5.20237e-05 -8.42733e-06)
(317.716 3.26044e-05 -6.88921e-06)
(317.72 4.49666e-06 -5.21577e-06)
(317.721 -2.10726e-05 -3.17487e-06)
(317.722 -3.92627e-05 -9.97657e-07)
(317.721 -4.81145e-05 5.88005e-07)
(317.721 -5.19032e-05 2.86251e-06)
(317.72 -4.12465e-05 4.15625e-06)
(317.719 -1.99758e-05 4.53834e-06)
(317.717 4.1504e-06 4.73156e-06)
(317.714 2.48631e-05 4.17354e-06)
(317.711 3.59578e-05 3.43948e-06)
(317.71 3.33039e-05 3.62633e-06)
(317.71 2.40893e-05 3.98992e-06)
(317.71 1.36782e-05 4.42886e-06)
(317.71 -4.34614e-06 4.1074e-06)
(317.711 -2.30545e-05 2.60315e-06)
(317.712 -3.59692e-05 1.69275e-06)
(317.714 -3.95266e-05 1.97761e-06)
(317.715 -3.31383e-05 1.52461e-06)
(317.717 -1.84242e-05 -1.06705e-06)
(317.718 -2.21973e-07 -4.15474e-06)
(317.718 1.79421e-05 -7.07231e-06)
(317.719 2.82238e-05 -9.53493e-06)
(317.72 2.73494e-05 -9.98846e-06)
(317.721 1.81997e-05 -9.61785e-06)
(317.723 4.34806e-06 -8.94847e-06)
(317.725 -1.02992e-05 -9.07291e-06)
(317.728 -2.14245e-05 -1.00345e-05)
(317.731 -2.76198e-05 -1.16054e-05)
(317.735 -2.73424e-05 -1.5293e-05)
(317.739 -2.18671e-05 -2.05382e-05)
(317.743 -1.37969e-05 -2.67133e-05)
(317.745 -6.3978e-06 -3.38307e-05)
(317.747 -1.64028e-06 -4.17234e-05)
(317.749 2.72412e-07 -4.88533e-05)
(317.751 -7.33848e-07 -5.40034e-05)
(317.752 -4.45725e-06 -5.72714e-05)
(317.754 -9.75293e-06 -5.89631e-05)
(317.756 -1.45753e-05 -5.95304e-05)
(317.758 -1.76018e-05 -5.98768e-05)
(317.761 -1.80315e-05 -6.16234e-05)
(317.763 -1.58048e-05 -6.60216e-05)
(317.764 -1.23951e-05 -7.23545e-05)
(317.765 -9.87004e-06 -7.87846e-05)
(317.765 -8.73229e-06 -8.4727e-05)
(317.766 -8.19655e-06 -9.03843e-05)
(317.766 -7.31918e-06 -9.51261e-05)
(317.766 -7.19851e-06 -9.6745e-05)
(317.767 -7.64398e-06 -9.58446e-05)
(317.767 -7.94199e-06 -9.34051e-05)
(317.768 -6.90094e-06 -9.11243e-05)
(317.77 -4.03585e-06 -8.99495e-05)
(317.77 1.31852e-07 -9.00749e-05)
(317.771 4.05161e-06 -9.11336e-05)
(317.771 6.69721e-06 -9.21739e-05)
(317.771 8.35094e-06 -9.24182e-05)
(317.771 1.17826e-05 -9.08463e-05)
(317.77 1.61952e-05 -8.39651e-05)
(317.767 2.1072e-05 -6.69811e-05)
(317.749 2.95834e-05 -4.1835e-05)
(317.632 4.63951e-05 -2.57755e-05)
(316.896 6.83057e-05 -2.51429e-05)
(312.312 9.40958e-05 -3.5089e-05)
(286.299 0.000116009 -4.28149e-05)
(183.747 9.61662e-05 -2.51939e-05)
(33.6898 2.11174e-05 -4.13802e-06)
(0.615897 3.88587e-07 -6.7057e-08)
(0.000801063 5.08108e-10 -8.59546e-11)
(5.43671e-08 7.47901e-12 6.68915e-12)
(-8.44863e-12 7.96414e-12 7.15825e-12)
(-8.37395e-12 6.82224e-12 6.42611e-12)
(-6.96092e-12 5.85382e-12 5.43023e-12)
(-6.41365e-12 6.04694e-12 6.32424e-12)
(-5.73907e-12 5.61701e-12 5.64266e-12)
(-5.37217e-12 5.38681e-12 4.55232e-12)
(-5.51396e-12 5.98027e-12 6.00249e-12)
(-5.6403e-12 4.02544e-12 9.54424e-12)
(-5.10724e-12 4.2606e-12 1.22698e-11)
(-4.64126e-12 3.83836e-12 1.35664e-11)
(-4.99123e-12 4.59176e-12 1.44011e-11)
(-4.0699e-12 3.89703e-12 1.34173e-11)
(-1.95e-12 2.41044e-12 1.22638e-11)
(-1.8148e-12 2.27427e-12 9.53975e-12)
(-3.69061e-12 2.9029e-12 8.36449e-12)
(-1.95731e-12 3.1461e-12 7.7913e-12)
(9.72818e-13 3.44448e-12 7.37991e-12)
(5.86828e-13 3.20703e-12 7.26504e-12)
(2.96767e-13 2.00371e-12 6.68121e-12)
(6.41468e-13 9.05808e-13 5.89831e-12)
(1.0042e-12 -1.76711e-13 7.46412e-12)
(1.22517e-12 -7.06533e-13 9.40641e-12)
(2.56837e-12 -1.08797e-12 1.00685e-11)
(4.2416e-12 -1.17881e-12 8.86046e-12)
(5.38184e-12 2.18422e-13 7.42427e-12)
(4.70313e-12 9.54942e-14 4.82421e-12)
(6.99077e-12 -1.21842e-13 1.58582e-12)
(9.82565e-12 8.95144e-13 -1.44683e-12)
(1.02273e-11 1.86814e-12 -4.39087e-12)
(1.01733e-11 2.32756e-12 -5.1796e-12)
(9.60008e-12 2.38682e-12 -5.55861e-12)
(8.93273e-12 2.58292e-12 -5.32948e-12)
(7.77295e-12 3.41317e-12 -6.07386e-12)
(7.26222e-12 3.80475e-12 -3.92542e-12)
(7.76004e-12 4.5855e-12 -2.50232e-12)
(7.37345e-12 4.03989e-12 -2.00726e-12)
(6.37601e-12 4.2398e-12 -7.08042e-13)
(6.24966e-12 7.30087e-12 5.37613e-14)
(4.93622e-12 1.00084e-11 9.40236e-13)
(1.42965e-12 9.49324e-12 -1.6671e-12)
(-1.65952e-12 7.73913e-12 -4.60148e-12)
(-3.40422e-12 5.24175e-12 -5.76966e-12)
(-2.82432e-12 5.07998e-12 -7.3745e-12)
(-6.77911e-13 4.87384e-12 -8.15277e-12)
(-2.50037e-13 3.95156e-12 -9.54736e-12)
(2.95302e-13 4.1393e-12 -1.00378e-11)
(8.04243e-13 3.12475e-12 -9.59431e-12)
(3.20969e-12 2.35188e-12 -9.5276e-12)
(4.71976e-12 2.46531e-12 -9.50228e-12)
(5.11145e-12 2.73058e-12 -1.01498e-11)
(4.94096e-12 2.9051e-12 -1.04125e-11)
(4.45366e-12 2.85617e-12 -1.09814e-11)
(3.69048e-12 3.68186e-12 -1.10119e-11)
(3.18336e-12 3.31222e-12 -1.09051e-11)
(3.26554e-12 4.2652e-12 -1.06196e-11)
(2.72845e-12 4.75887e-12 -9.94209e-12)
(3.02814e-12 4.1973e-12 -9.52125e-12)
(3.83323e-12 2.67415e-12 -9.13759e-12)
(3.54622e-12 1.83561e-12 -8.10263e-12)
(5.55615e-12 9.45297e-13 -6.74882e-12)
(8.17673e-12 7.24306e-13 -5.25847e-12)
(8.98297e-12 3.81729e-13 -6.59383e-12)
(9.89625e-12 5.34645e-13 -7.40191e-12)
(1.06081e-11 1.26469e-13 -6.76554e-12)
(1.09242e-11 1.44662e-12 -5.74774e-12)
(1.09981e-11 1.25511e-12 -3.77444e-12)
(1.16329e-11 1.62538e-12 -3.41499e-13)
(1.09277e-11 3.35242e-12 2.86481e-12)
(8.8482e-12 2.67678e-12 5.13381e-12)
(8.52723e-12 2.16409e-12 6.91634e-12)
(7.86651e-12 1.64291e-12 7.20465e-12)
(6.45437e-12 2.25267e-12 6.86846e-12)
(5.1548e-12 1.35495e-12 5.72252e-12)
(4.97801e-12 -4.25665e-13 2.79418e-12)
(4.90581e-12 7.04616e-13 -1.05175e-12)
(3.34666e-12 5.33481e-13 -4.93042e-12)
(2.30657e-12 1.52956e-12 -8.53249e-12)
(3.29097e-12 4.34153e-12 -1.09409e-11)
(3.85127e-12 6.74073e-12 -1.47329e-11)
(1.48104e-12 6.99272e-12 -1.82194e-11)
(-1.53038e-12 8.51794e-12 -1.73479e-11)
(-4.11651e-12 8.24656e-12 -1.74114e-11)
(-5.73012e-12 7.53066e-12 -1.62695e-11)
(-7.69511e-12 7.04872e-12 -1.43391e-11)
(-8.75705e-12 6.77055e-12 -1.16331e-11)
(-8.73925e-12 6.38715e-12 -1.02378e-11)
(-1.02182e-11 5.80307e-12 -1.03828e-11)
(-1.02223e-11 4.82444e-12 -9.11327e-12)
(-9.07752e-12 4.98906e-12 -7.31776e-12)
(-8.79617e-12 4.56856e-12 -5.21695e-12)
(-8.98429e-12 5.48732e-12 -4.42964e-12)
(-9.16127e-12 6.20962e-12 -4.05191e-12)
(-1.04875e-11 5.78293e-12 -3.90275e-12)
(-1.13075e-11 3.82303e-12 -3.74704e-12)
(-9.85331e-12 2.08245e-12 -3.67123e-12)
(-9.23656e-12 9.2901e-13 -2.47689e-12)
(-7.67421e-12 8.21875e-13 -2.40925e-12)
(-6.4447e-12 5.48748e-13 -2.18358e-12)
(-6.28162e-12 6.67025e-14 -2.72494e-12)
(-6.31361e-12 -1.44975e-12 -2.73112e-12)
(-4.74658e-12 -2.05325e-12 -2.9472e-12)
(-2.1927e-12 -1.95519e-12 -3.05594e-12)
(-1.59939e-13 -8.76666e-13 -3.53756e-12)
(-3.18911e-13 2.11938e-12 -3.64565e-12)
(-1.54855e-12 3.97759e-12 -2.95977e-12)
(-1.68485e-13 4.7137e-12 -3.65037e-12)
(7.75599e-13 5.42638e-12 -3.73726e-12)
(-6.96965e-13 6.673e-12 -3.3546e-12)
(-1.04626e-12 8.75592e-12 -2.66511e-12)
(-1.43136e-12 1.02066e-11 -2.95162e-12)
(-2.24519e-12 1.00469e-11 -3.15245e-12)
(-3.8665e-12 9.40601e-12 -2.8001e-12)
(-6.77187e-12 9.56217e-12 -2.86346e-12)
(-8.45408e-12 6.75055e-12 -2.69701e-12)
(-7.60139e-12 5.43432e-12 -3.6989e-12)
(-6.81132e-12 4.88254e-12 -4.84837e-12)
(-5.78554e-12 4.47451e-12 -3.90705e-12)
(-3.77525e-12 3.67322e-12 -3.29595e-12)
(-3.0337e-12 3.96351e-12 -5.00662e-12)
(-1.17757e-12 2.4897e-12 -6.31692e-12)
(4.34672e-13 3.00061e-12 -8.50301e-12)
(2.76214e-12 2.93556e-12 -1.00597e-11)
(3.60218e-12 3.81165e-12 -1.20403e-11)
(2.65203e-12 3.17653e-12 -1.13002e-11)
(2.57167e-12 3.4355e-12 -1.11066e-11)
(2.13977e-12 3.3748e-12 -1.05979e-11)
(2.56623e-12 3.95774e-12 -9.36297e-12)
(2.2016e-12 4.51716e-12 -9.89257e-12)
(4.6557e-13 4.78743e-12 -9.61528e-12)
(-2.8369e-13 4.76578e-12 -9.8006e-12)
(-5.93899e-13 4.98402e-12 -1.03645e-11)
(-1.46726e-12 6.08594e-12 -1.08172e-11)
(-2.93135e-12 5.24016e-12 -1.10713e-11)
(-4.08357e-12 4.76761e-12 -9.62772e-12)
(-3.06981e-12 4.04337e-12 -7.48018e-12)
(-1.41115e-12 3.54563e-12 -6.45816e-12)
(-1.11193e-12 4.37161e-12 -3.19564e-12)
(-1.87064e-13 5.19437e-12 1.01223e-12)
(1.24311e-14 5.69045e-12 4.66462e-12)
(8.21796e-13 5.19628e-12 4.6531e-12)
(1.01288e-12 5.47896e-12 3.88131e-12)
(-8.12586e-13 6.68847e-12 3.14948e-12)
(-2.0032e-12 6.60979e-12 2.20955e-12)
(-1.67179e-12 6.42098e-12 1.66849e-12)
(-3.43742e-12 6.27362e-12 3.33504e-12)
(-5.40017e-12 5.30845e-12 4.76985e-12)
(-4.85513e-12 3.64652e-12 5.06419e-12)
(-4.14691e-12 3.71396e-12 5.97038e-12)
(-4.90753e-12 3.0775e-12 7.21293e-12)
(317.342 1.81499e-05 7.58356e-06)
(317.367 2.2944e-05 6.61475e-06)
(317.396 2.73291e-05 5.88392e-06)
(317.43 2.12386e-05 5.19767e-06)
(317.468 4.55854e-07 4.16441e-06)
(317.509 -2.17764e-05 2.54463e-06)
(317.55 -3.40237e-05 3.35443e-07)
(317.591 -3.16737e-05 -1.72913e-06)
(317.627 -1.36624e-05 -4.05087e-06)
(317.658 1.40741e-05 -6.25362e-06)
(317.681 4.00935e-05 -7.33523e-06)
(317.698 5.50411e-05 -7.81437e-06)
(317.709 5.29399e-05 -7.60712e-06)
(317.716 3.42548e-05 -6.29182e-06)
(317.72 6.89912e-06 -4.71138e-06)
(317.721 -1.93181e-05 -2.8597e-06)
(317.722 -3.74777e-05 -8.86513e-07)
(317.721 -4.61268e-05 5.87412e-07)
(317.721 -5.01926e-05 2.68813e-06)
(317.72 -3.97247e-05 3.76927e-06)
(317.719 -1.89448e-05 3.91235e-06)
(317.717 3.91894e-06 4.04471e-06)
(317.714 2.31028e-05 3.9083e-06)
(317.711 3.48362e-05 3.17671e-06)
(317.71 3.3988e-05 2.49495e-06)
(317.71 2.52066e-05 2.78643e-06)
(317.71 1.41937e-05 3.05283e-06)
(317.71 -3.99999e-06 2.8143e-06)
(317.711 -2.05206e-05 1.827e-06)
(317.712 -3.1774e-05 1.44734e-06)
(317.714 -3.64905e-05 2.01108e-06)
(317.715 -3.16989e-05 1.26343e-06)
(317.717 -1.75891e-05 -1.21901e-06)
(317.718 7.97237e-07 -4.1954e-06)
(317.718 1.88555e-05 -6.59681e-06)
(317.719 2.90589e-05 -8.09967e-06)
(317.72 2.84738e-05 -8.65766e-06)
(317.721 1.90506e-05 -8.46485e-06)
(317.723 4.79657e-06 -7.71899e-06)
(317.725 -9.8294e-06 -7.73479e-06)
(317.728 -2.08943e-05 -8.52984e-06)
(317.731 -2.71026e-05 -1.00576e-05)
(317.735 -2.74708e-05 -1.33843e-05)
(317.739 -2.31732e-05 -1.76868e-05)
(317.743 -1.57646e-05 -2.27238e-05)
(317.745 -7.81584e-06 -2.8797e-05)
(317.747 -2.41423e-06 -3.55681e-05)
(317.749 -1.02126e-07 -4.17785e-05)
(317.751 -1.19447e-06 -4.6446e-05)
(317.752 -5.19768e-06 -4.95197e-05)
(317.754 -1.06111e-05 -5.10833e-05)
(317.756 -1.55677e-05 -5.13457e-05)
(317.758 -1.8444e-05 -5.12624e-05)
(317.761 -1.87278e-05 -5.24402e-05)
(317.763 -1.66122e-05 -5.57808e-05)
(317.764 -1.30829e-05 -6.0722e-05)
(317.765 -1.01495e-05 -6.60776e-05)
(317.765 -8.17312e-06 -7.14231e-05)
(317.766 -5.99604e-06 -7.6504e-05)
(317.766 -4.19041e-06 -7.95519e-05)
(317.766 -4.16592e-06 -7.92554e-05)
(317.767 -4.48944e-06 -7.71097e-05)
(317.767 -4.5743e-06 -7.38076e-05)
(317.768 -3.68165e-06 -7.00081e-05)
(317.77 -1.19573e-06 -6.61258e-05)
(317.77 3.09236e-06 -6.25133e-05)
(317.771 8.14695e-06 -5.90238e-05)
(317.771 1.25867e-05 -5.52132e-05)
(317.771 1.56002e-05 -5.20765e-05)
(317.771 2.05223e-05 -4.57255e-05)
(317.77 2.65229e-05 -3.62393e-05)
(317.767 3.39278e-05 -2.69544e-05)
(317.749 4.35158e-05 -2.12408e-05)
(317.632 5.3783e-05 -2.05573e-05)
(316.896 6.49493e-05 -2.32212e-05)
(312.312 7.05858e-05 -2.72647e-05)
(286.299 6.33153e-05 -2.39708e-05)
(183.747 3.43909e-05 -9.86627e-06)
(33.6898 4.34059e-06 -8.37547e-07)
(0.615898 7.26671e-08 -8.19613e-09)
(0.000801064 1.15664e-10 7.73027e-13)
(5.43676e-08 8.16715e-12 7.49778e-12)
(-7.42239e-12 7.6396e-12 7.05606e-12)
(-7.37267e-12 6.93632e-12 6.29359e-12)
(-7.17183e-12 6.64112e-12 4.60381e-12)
(-6.81702e-12 6.93521e-12 5.50417e-12)
(-5.65018e-12 7.21639e-12 5.39201e-12)
(-5.72654e-12 6.98102e-12 5.51501e-12)
(-5.47197e-12 6.8864e-12 6.74494e-12)
(-5.31171e-12 6.80713e-12 9.28929e-12)
(-4.66298e-12 6.55702e-12 1.10763e-11)
(-4.25002e-12 6.34436e-12 1.22208e-11)
(-3.47795e-12 6.17711e-12 1.27599e-11)
(-1.80795e-12 4.83578e-12 1.15834e-11)
(-1.46549e-12 3.78861e-12 9.3891e-12)
(-2.48146e-12 5.07378e-12 9.05744e-12)
(-4.40329e-12 5.33281e-12 8.57373e-12)
(-2.67591e-12 4.55077e-12 8.62393e-12)
(-1.00858e-13 4.67052e-12 8.29313e-12)
(3.00701e-13 4.4343e-12 8.98213e-12)
(7.07733e-13 3.82309e-12 7.40501e-12)
(1.17974e-12 3.05278e-12 6.58722e-12)
(1.21463e-12 2.31763e-12 7.31074e-12)
(2.42022e-12 1.68997e-12 9.16085e-12)
(3.38566e-12 8.1634e-13 1.01272e-11)
(3.24574e-12 4.24977e-13 8.82166e-12)
(4.35506e-12 1.84361e-12 7.60753e-12)
(5.2815e-12 1.76179e-12 4.05769e-12)
(7.20634e-12 8.88285e-13 9.13546e-13)
(9.52776e-12 2.83809e-12 -1.44678e-12)
(1.0542e-11 3.5753e-12 -3.74128e-12)
(1.04283e-11 4.23457e-12 -3.75815e-12)
(9.65456e-12 4.51925e-12 -3.67565e-12)
(9.10631e-12 4.60347e-12 -3.66582e-12)
(7.60316e-12 4.41084e-12 -4.43336e-12)
(6.9912e-12 5.31452e-12 -2.63442e-12)
(7.15273e-12 5.71066e-12 -1.5566e-12)
(6.92985e-12 6.28276e-12 -1.69843e-12)
(6.41485e-12 6.61003e-12 -8.80235e-13)
(4.39272e-12 6.78521e-12 -4.5031e-13)
(3.44886e-12 8.57925e-12 -9.73843e-13)
(1.08894e-12 9.09066e-12 -3.39589e-12)
(-5.25923e-13 7.13913e-12 -4.40439e-12)
(-2.58003e-12 7.05679e-12 -5.37346e-12)
(-3.13539e-12 5.8423e-12 -6.66073e-12)
(-1.34931e-12 5.8215e-12 -7.86562e-12)
(-1.37623e-13 5.46561e-12 -9.94057e-12)
(6.54251e-13 5.03798e-12 -1.07966e-11)
(1.82703e-12 4.16904e-12 -9.962e-12)
(3.92837e-12 3.78575e-12 -1.03293e-11)
(4.94566e-12 4.59981e-12 -1.06756e-11)
(5.63374e-12 4.83098e-12 -1.01029e-11)
(5.49863e-12 5.54731e-12 -1.04652e-11)
(4.46306e-12 5.54913e-12 -1.07557e-11)
(3.79795e-12 6.03779e-12 -1.04152e-11)
(2.77228e-12 5.51646e-12 -1.11027e-11)
(2.50658e-12 6.18851e-12 -1.0579e-11)
(3.20628e-12 6.25309e-12 -8.85983e-12)
(3.50739e-12 5.73524e-12 -9.34268e-12)
(3.6183e-12 5.26403e-12 -8.40338e-12)
(4.67952e-12 4.05116e-12 -8.89405e-12)
(6.03709e-12 2.5026e-12 -9.25717e-12)
(7.12638e-12 2.04826e-12 -7.69336e-12)
(8.64668e-12 2.44846e-12 -7.23836e-12)
(1.01576e-11 2.19258e-12 -7.25026e-12)
(1.08645e-11 2.28482e-12 -7.47934e-12)
(1.05676e-11 2.72476e-12 -5.60041e-12)
(1.11367e-11 3.36345e-12 -3.12736e-12)
(1.11407e-11 4.35885e-12 -1.68592e-13)
(1.08333e-11 5.3309e-12 2.74846e-12)
(9.03827e-12 4.89615e-12 4.57146e-12)
(8.61205e-12 4.28195e-12 5.47971e-12)
(7.93602e-12 4.37414e-12 5.46668e-12)
(6.80086e-12 4.46537e-12 5.34976e-12)
(6.00565e-12 4.01034e-12 4.99386e-12)
(5.72153e-12 3.1825e-12 2.48627e-12)
(4.97749e-12 3.57434e-12 -8.60405e-13)
(3.29035e-12 3.89201e-12 -4.40716e-12)
(2.21242e-12 4.83408e-12 -7.91808e-12)
(3.18969e-12 6.41825e-12 -1.07003e-11)
(3.47017e-12 8.46327e-12 -1.30997e-11)
(1.57502e-13 9.578e-12 -1.48933e-11)
(-2.36463e-12 1.02539e-11 -1.55262e-11)
(-4.39799e-12 9.75336e-12 -1.63382e-11)
(-6.08408e-12 8.88958e-12 -1.5073e-11)
(-7.93042e-12 8.68769e-12 -1.30323e-11)
(-9.53879e-12 8.08927e-12 -1.10761e-11)
(-9.17063e-12 8.21118e-12 -9.06529e-12)
(-1.04498e-11 7.26466e-12 -8.04007e-12)
(-1.01805e-11 6.32745e-12 -7.63377e-12)
(-9.06578e-12 6.81542e-12 -6.81406e-12)
(-8.9415e-12 6.74016e-12 -5.38944e-12)
(-9.6449e-12 7.74264e-12 -4.58271e-12)
(-9.62429e-12 7.60417e-12 -3.6271e-12)
(-1.00077e-11 7.3614e-12 -3.81253e-12)
(-9.64462e-12 5.96035e-12 -3.95978e-12)
(-8.7718e-12 4.75575e-12 -5.1205e-12)
(-9.24261e-12 4.24726e-12 -3.3373e-12)
(-7.41549e-12 3.58606e-12 -2.38953e-12)
(-5.78056e-12 3.11092e-12 -1.87977e-12)
(-5.59154e-12 2.8071e-12 -2.61735e-12)
(-5.35836e-12 1.74032e-12 -2.90167e-12)
(-4.85462e-12 1.0231e-12 -3.47799e-12)
(-3.53842e-12 1.93688e-12 -3.17361e-12)
(-1.35483e-12 3.23564e-12 -3.97784e-12)
(-1.70577e-12 4.66928e-12 -3.48251e-12)
(-1.79145e-12 5.59874e-12 -2.95364e-12)
(2.00367e-14 5.80972e-12 -2.72332e-12)
(2.88431e-13 6.91123e-12 -1.59367e-12)
(-1.15201e-12 8.12258e-12 -2.68218e-12)
(-2.08573e-12 9.10075e-12 -2.65259e-12)
(-1.91373e-12 9.84277e-12 -2.34645e-12)
(-2.23566e-12 1.03363e-11 -2.65048e-12)
(-4.20762e-12 1.09306e-11 -2.48774e-12)
(-6.29992e-12 1.08663e-11 -2.40887e-12)
(-7.44159e-12 8.70297e-12 -2.69866e-12)
(-8.02128e-12 6.7956e-12 -3.13294e-12)
(-7.05654e-12 6.29641e-12 -3.73552e-12)
(-5.59532e-12 5.27962e-12 -3.44671e-12)
(-3.68247e-12 4.61125e-12 -3.54074e-12)
(-2.61892e-12 4.44131e-12 -4.96211e-12)
(-6.86978e-13 3.69858e-12 -5.93106e-12)
(7.0645e-13 4.45884e-12 -7.77262e-12)
(2.81475e-12 4.49449e-12 -8.74937e-12)
(3.9649e-12 5.90552e-12 -9.48399e-12)
(3.3356e-12 5.9371e-12 -9.93326e-12)
(2.73268e-12 5.56924e-12 -9.95039e-12)
(2.24743e-12 5.51413e-12 -9.76233e-12)
(2.09806e-12 5.27533e-12 -9.22852e-12)
(1.47009e-12 6.06803e-12 -9.62185e-12)
(8.03135e-13 6.87696e-12 -8.66642e-12)
(-3.71738e-13 6.61126e-12 -9.11384e-12)
(-1.76798e-12 7.46879e-12 -9.1223e-12)
(-1.31138e-12 8.00336e-12 -8.99786e-12)
(-1.65586e-12 7.65461e-12 -8.80863e-12)
(-3.62332e-12 7.08491e-12 -8.00556e-12)
(-3.86653e-12 6.56305e-12 -5.59935e-12)
(-2.31708e-12 6.33578e-12 -3.20999e-12)
(-1.34641e-12 6.38387e-12 -3.80097e-13)
(2.66185e-13 6.56956e-12 2.18074e-12)
(4.50302e-13 6.2281e-12 3.77543e-12)
(2.99807e-13 6.59344e-12 4.04137e-12)
(1.14535e-13 7.20415e-12 4.02302e-12)
(-9.448e-13 7.54673e-12 4.74063e-12)
(-1.44792e-12 7.24042e-12 3.37778e-12)
(-7.86004e-13 7.15561e-12 2.97674e-12)
(-2.67543e-12 7.05905e-12 3.9628e-12)
(-4.1323e-12 6.14787e-12 6.05592e-12)
(-4.82761e-12 5.71354e-12 4.93672e-12)
(-4.75135e-12 6.26222e-12 4.9543e-12)
(-5.24775e-12 6.2313e-12 6.17552e-12)
(317.342 3.19492e-06 8.1628e-06)
(317.367 1.5028e-05 6.96085e-06)
(317.396 2.4575e-05 6.03962e-06)
(317.43 2.35157e-05 5.26978e-06)
(317.468 6.8733e-06 4.07402e-06)
(317.509 -1.40299e-05 2.30107e-06)
(317.551 -2.91904e-05 3.09057e-07)
(317.591 -3.1041e-05 -1.55846e-06)
(317.627 -1.62698e-05 -3.3085e-06)
(317.658 1.05525e-05 -5.06664e-06)
(317.681 3.66504e-05 -6.13301e-06)
(317.698 5.25967e-05 -6.61202e-06)
(317.709 5.29142e-05 -6.27231e-06)
(317.716 3.60888e-05 -5.19866e-06)
(317.72 9.12308e-06 -3.90596e-06)
(317.721 -1.64924e-05 -2.36049e-06)
(317.722 -3.46043e-05 -6.56787e-07)
(317.721 -4.36624e-05 5.82353e-07)
(317.721 -4.84459e-05 2.29083e-06)
(317.72 -3.91607e-05 3.1386e-06)
(317.719 -1.97601e-05 3.1839e-06)
(317.717 2.27173e-06 3.14467e-06)
(317.714 2.22235e-05 2.92285e-06)
(317.711 3.45341e-05 2.25586e-06)
(317.71 3.46336e-05 1.92648e-06)
(317.71 2.68224e-05 2.07833e-06)
(317.71 1.70195e-05 2.26395e-06)
(317.71 4.17206e-07 2.14773e-06)
(317.711 -1.60986e-05 1.69655e-06)
(317.712 -2.90372e-05 1.86443e-06)
(317.714 -3.55968e-05 1.97501e-06)
(317.715 -3.19302e-05 8.22002e-07)
(317.717 -1.85719e-05 -1.18535e-06)
(317.718 -1.64269e-07 -3.40494e-06)
(317.718 1.84347e-05 -5.27164e-06)
(317.719 2.99063e-05 -6.43723e-06)
(317.72 3.04072e-05 -7.05925e-06)
(317.721 2.10447e-05 -7.13738e-06)
(317.723 6.669e-06 -6.75573e-06)
(317.725 -8.57658e-06 -6.93469e-06)
(317.728 -2.06603e-05 -7.53421e-06)
(317.731 -2.78868e-05 -8.14932e-06)
(317.735 -2.85274e-05 -9.41564e-06)
(317.739 -2.3518e-05 -1.16727e-05)
(317.743 -1.44645e-05 -1.54854e-05)
(317.745 -5.21537e-06 -2.07561e-05)
(317.747 6.0764e-07 -2.60901e-05)
(317.749 2.59796e-06 -3.06403e-05)
(317.751 1.17905e-06 -3.4177e-05)
(317.752 -2.78888e-06 -3.66382e-05)
(317.754 -8.18989e-06 -3.79267e-05)
(317.756 -1.30063e-05 -3.81432e-05)
(317.758 -1.62997e-05 -3.78944e-05)
(317.761 -1.73187e-05 -3.82979e-05)
(317.763 -1.56358e-05 -3.99723e-05)
(317.764 -1.24629e-05 -4.2488e-05)
(317.765 -9.43259e-06 -4.55702e-05)
(317.765 -6.11249e-06 -4.95518e-05)
(317.766 -2.94278e-06 -5.27945e-05)
(317.766 -1.79042e-06 -5.30038e-05)
(317.766 -2.10306e-06 -5.09649e-05)
(317.767 -2.9842e-06 -4.79677e-05)
(317.767 -3.47601e-06 -4.40266e-05)
(317.768 -2.98785e-06 -3.94587e-05)
(317.77 -1.18597e-06 -3.46727e-05)
(317.77 1.62102e-06 -3.00177e-05)
(317.771 5.62299e-06 -2.54796e-05)
(317.771 1.05644e-05 -2.18057e-05)
(317.771 1.39136e-05 -1.99696e-05)
(317.771 1.82362e-05 -1.82216e-05)
(317.77 2.35264e-05 -1.78722e-05)
(317.767 2.99187e-05 -1.72969e-05)
(317.749 3.6531e-05 -1.54427e-05)
(317.632 4.27145e-05 -1.33533e-05)
(316.896 4.68666e-05 -1.14946e-05)
(312.312 4.72594e-05 -9.1211e-06)
(286.299 4.18441e-05 -5.75425e-06)
(183.747 2.61437e-05 -2.69792e-06)
(33.6898 4.60331e-06 -3.06086e-07)
(0.615898 8.00384e-08 -3.24529e-09)
(0.000801065 1.1335e-10 5.38666e-12)
(5.43684e-08 7.04655e-12 8.00102e-12)
(-7.20483e-12 6.22513e-12 7.55803e-12)
(-8.14083e-12 5.89311e-12 7.05825e-12)
(-7.39637e-12 6.34748e-12 6.56953e-12)
(-6.70321e-12 5.3569e-12 6.34105e-12)
(-5.83879e-12 5.15957e-12 6.21813e-12)