/*--------------------------------*- C++ -*----------------------------------*\
| =========                 |                                                 |
| \\      /  F ield         | OpenFOAM: The Open Source CFD Toolbox           |
|  \\    /   O peration     | Version:  2406                                  |
|   \\  /    A nd           | Website:  www.openfoam.com                      |
|    \\/     M anipulation  |                                                 |
\*---------------------------------------------------------------------------*/
FoamFile
{
    version     2.0;
    format      ascii;
    arch        "LSB;label=32;scalar=64";
    class       volVectorField;
    location    "0.07";
    object      U;
}
// * * * * * * * * * * * * * * * * * * * * * * * * * * * * * * * * * * * * * //

dimensions      [0 1 -1 0 0 0 0];

internalField   nonuniform List<vector> 
13988
(
(-4.39382e-12 1.36481e-11 5.19819e-12)
(7.87877e-13 1.18665e-11 1.82866e-11)
(-1.3863e-12 1.28163e-11 2.79931e-11)
(-1.52809e-12 1.08385e-11 2.63535e-11)
(-1.57673e-12 1.27229e-11 2.01277e-11)
(-1.17395e-12 1.08759e-11 1.40523e-11)
(2.99325e-12 1.20639e-11 8.68074e-12)
(1.34579e-12 1.50529e-11 2.00519e-12)
(-2.66e-12 1.8187e-11 -2.127e-12)
(-2.75563e-12 1.41413e-11 -4.53001e-12)
(-5.89808e-13 1.58255e-11 -1.23437e-11)
(1.16051e-12 1.28688e-11 -2.43744e-11)
(4.89607e-12 1.16086e-11 -3.32882e-11)
(2.52596e-12 1.12207e-11 -3.04537e-11)
(1.10006e-12 1.43204e-11 -3.03082e-11)
(2.7187e-12 1.31412e-11 -2.83018e-11)
(3.99354e-13 1.6703e-11 -2.34921e-11)
(1.62121e-12 1.19317e-11 -1.62927e-11)
(2.49975e-12 1.27535e-11 -1.60157e-11)
(1.45048e-12 1.04406e-11 -1.04758e-11)
(3.06201e-12 1.03113e-11 -8.63135e-12)
(3.50476e-12 1.2778e-11 -8.302e-12)
(-4.89026e-13 1.45132e-11 -8.34011e-12)
(4.98952e-13 1.43188e-11 -1.40476e-11)
(3.7421e-12 1.66369e-11 -2.18479e-11)
(3.55221e-12 1.22661e-11 -2.41152e-11)
(6.03613e-12 1.39692e-11 -2.36016e-11)
(7.51618e-12 1.19527e-11 -1.16057e-11)
(2.52288e-12 1.26244e-11 3.4497e-12)
(4.68479e-12 1.14397e-11 1.14887e-11)
(5.41454e-12 1.53786e-11 1.18764e-11)
(5.57817e-12 1.28678e-11 1.61634e-11)
(5.49248e-12 1.59331e-11 2.17777e-11)
(2.92442e-12 1.654e-11 2.10384e-11)
(2.75763e-12 1.92866e-11 2.1305e-11)
(3.37462e-12 1.88229e-11 1.85506e-11)
(2.45222e-12 1.78713e-11 1.95814e-11)
(3.06442e-12 1.78904e-11 1.76931e-11)
(1.63162e-12 1.39201e-11 1.37421e-11)
(8.4855e-13 1.50844e-11 1.095e-11)
(2.18603e-12 1.28671e-11 7.05855e-12)
(-2.30183e-13 1.24781e-11 4.28895e-12)
(1.70347e-12 1.42823e-11 1.02075e-12)
(3.87782e-12 1.24772e-11 1.60264e-12)
(2.82523e-12 1.31914e-11 -2.46776e-12)
(1.46794e-12 1.4336e-11 -4.23697e-12)
(2.76495e-12 1.61312e-11 -5.12934e-12)
(2.21731e-12 1.2316e-11 -2.2299e-12)
(1.42784e-12 1.00658e-11 3.30547e-12)
(6.27077e-13 1.25745e-11 9.78496e-12)
(-2.65918e-12 1.4201e-11 1.4013e-11)
(-9.00519e-13 1.32986e-11 2.01033e-11)
(1.30132e-12 1.42594e-11 1.44411e-11)
(1.6996e-12 1.06331e-11 1.2604e-11)
(-2.09584e-12 1.15661e-11 1.23474e-11)
(-3.88678e-12 1.10626e-11 5.48139e-12)
(-8.34503e-12 9.33903e-12 1.89969e-12)
(-9.47741e-12 1.30828e-11 2.81689e-13)
(-4.02202e-12 1.34752e-11 -6.61531e-12)
(-3.24731e-13 1.14921e-11 -1.35604e-11)
(-2.94099e-12 1.30092e-11 -1.65369e-11)
(-5.03841e-12 1.23362e-11 -1.55493e-11)
(-2.26214e-12 1.20325e-11 -1.41587e-11)
(-1.0528e-14 1.1153e-11 -1.21074e-11)
(-7.2595e-13 1.39536e-11 -1.1207e-11)
(-3.22857e-12 1.35805e-11 -8.88253e-12)
(-6.85061e-13 1.40903e-11 -6.01476e-12)
(3.08437e-12 1.20169e-11 -1.4086e-12)
(2.80418e-13 1.29733e-11 1.57939e-13)
(1.74054e-12 1.50279e-11 6.93788e-15)
(2.53387e-12 1.48388e-11 -9.14258e-13)
(4.91444e-13 1.60762e-11 -5.09044e-12)
(2.13341e-12 1.31026e-11 -9.39684e-12)
(-4.50742e-13 1.4124e-11 -1.33899e-11)
(-1.84257e-12 1.16907e-11 -1.47728e-11)
(-1.45408e-13 1.33836e-11 -1.61308e-11)
(1.8418e-12 1.2542e-11 -1.47218e-11)
(2.47194e-12 1.46137e-11 -1.49962e-11)
(2.98522e-12 1.3542e-11 -1.65443e-11)
(4.70929e-12 1.43915e-11 -1.91318e-11)
(2.87948e-12 1.413e-11 -1.62297e-11)
(-4.30168e-13 1.25559e-11 -1.04924e-11)
(-3.76948e-12 1.25093e-11 -1.1225e-11)
(-4.47601e-12 1.19506e-11 -1.11698e-11)
(-1.78873e-12 1.12452e-11 -1.00286e-11)
(5.82236e-13 1.19031e-11 -6.97345e-12)
(-1.61993e-12 1.22895e-11 3.30471e-12)
(1.22357e-12 1.38317e-11 7.57514e-12)
(9.77568e-13 1.13379e-11 1.09804e-11)
(-2.5955e-12 1.35899e-11 1.00977e-11)
(-7.41466e-12 1.25772e-11 6.2489e-12)
(-6.81756e-12 1.37109e-11 1.20567e-12)
(-6.04904e-12 1.31845e-11 -2.13118e-12)
(-7.95225e-12 1.55048e-11 -4.49658e-12)
(-3.40636e-12 1.32856e-11 -3.6898e-12)
(1.17316e-12 1.66237e-11 -5.60063e-12)
(1.49379e-12 1.59348e-11 4.27604e-12)
(4.77267e-12 1.35161e-11 1.49848e-11)
(5.50338e-12 1.51244e-11 2.20588e-11)
(3.75644e-12 1.54502e-11 2.24342e-11)
(3.66151e-12 1.76041e-11 1.68986e-11)
(-2.03329e-12 1.24442e-11 -3.70773e-12)
(7.1339e-13 1.03214e-11 1.08034e-11)
(-1.45114e-12 1.44927e-11 1.96995e-11)
(-1.8786e-12 1.32514e-11 1.94177e-11)
(-8.9306e-13 1.29513e-11 1.61821e-11)
(9.64535e-13 9.47713e-12 1.55837e-11)
(2.25499e-12 1.27299e-11 9.51272e-12)
(-1.24238e-12 1.27762e-11 1.37721e-12)
(-3.44549e-12 1.35405e-11 -5.33022e-12)
(-8.08268e-13 1.13512e-11 -1.004e-11)
(-9.66445e-13 1.28221e-11 -1.64584e-11)
(2.28723e-12 1.3262e-11 -2.11557e-11)
(4.8352e-12 1.41293e-11 -2.75447e-11)
(1.82336e-12 1.3165e-11 -2.74281e-11)
(1.37611e-12 9.41518e-12 -2.68162e-11)
(2.02471e-12 1.14229e-11 -2.49015e-11)
(1.45394e-12 1.35122e-11 -2.14519e-11)
(2.78304e-12 1.21911e-11 -1.38703e-11)
(2.73148e-12 1.17091e-11 -1.39146e-11)
(2.96551e-12 1.12446e-11 -7.26721e-12)
(1.18261e-12 1.15424e-11 -7.04281e-12)
(5.35139e-13 1.51803e-11 -5.96226e-12)
(1.2572e-12 1.69807e-11 -7.7793e-12)
(1.10753e-12 1.27388e-11 -1.24421e-11)
(2.92749e-12 1.35781e-11 -1.90971e-11)
(4.86037e-12 1.10278e-11 -2.01026e-11)
(5.95513e-12 1.12767e-11 -2.11405e-11)
(6.0922e-12 1.29209e-11 -8.54514e-12)
(3.69524e-12 1.62298e-11 8.75141e-12)
(4.28232e-12 1.16313e-11 1.74756e-11)
(4.6372e-12 1.43449e-11 1.66134e-11)
(5.1776e-12 1.21679e-11 2.14138e-11)
(3.49483e-12 1.71032e-11 2.73968e-11)
(5.89056e-13 1.61183e-11 2.50031e-11)
(9.86409e-13 1.83887e-11 2.23347e-11)
(4.94241e-12 1.85289e-11 1.95358e-11)
(3.5918e-12 1.7465e-11 1.98109e-11)
(3.87811e-12 1.52518e-11 1.50335e-11)
(1.5384e-12 1.42776e-11 1.4333e-11)
(7.04107e-13 1.22223e-11 1.04875e-11)
(2.82005e-12 1.07355e-11 7.81789e-12)
(-5.82915e-13 1.101e-11 7.51253e-12)
(1.82638e-12 1.14924e-11 1.5833e-12)
(3.16005e-12 1.10919e-11 -1.93639e-12)
(5.25966e-13 1.23994e-11 -4.56907e-12)
(1.3659e-12 1.25623e-11 -6.25169e-12)
(3.62229e-12 1.31271e-11 -7.98978e-12)
(5.10413e-12 1.16351e-11 -2.48491e-12)
(1.5515e-12 9.3847e-12 3.18553e-12)
(-1.50004e-12 1.32053e-11 9.53776e-12)
(-2.01931e-12 1.29364e-11 1.67312e-11)
(-1.67566e-12 1.20562e-11 2.10783e-11)
(1.62451e-12 1.17859e-11 1.72053e-11)
(2.54816e-12 1.29637e-11 1.20132e-11)
(-3.103e-12 1.27914e-11 8.74806e-12)
(-3.94658e-12 1.11169e-11 3.23885e-12)
(-7.70473e-12 1.18471e-11 1.18805e-12)
(-9.40583e-12 1.19614e-11 1.46606e-12)
(-3.86724e-12 9.52534e-12 -6.44782e-12)
(-2.49483e-12 1.21061e-11 -1.46863e-11)
(-4.31907e-12 1.44424e-11 -1.9257e-11)
(-3.38367e-12 1.18116e-11 -1.54881e-11)
(-1.69239e-12 1.10207e-11 -1.04228e-11)
(-2.65327e-12 1.25139e-11 -9.51414e-12)
(-1.89688e-12 1.49585e-11 -9.78284e-12)
(-1.33083e-12 1.49934e-11 -6.10761e-12)
(7.41612e-13 1.36185e-11 -5.68175e-12)
(2.2504e-12 1.31103e-11 1.07263e-12)
(-5.16433e-13 1.5038e-11 3.60938e-12)
(1.80586e-12 1.42338e-11 1.43112e-12)
(2.30355e-12 1.64639e-11 2.02569e-12)
(1.03805e-12 1.68497e-11 -2.11449e-12)
(5.30251e-13 1.42001e-11 -1.10378e-11)
(-6.88451e-13 1.69908e-11 -1.79092e-11)
(-7.21677e-13 1.62089e-11 -1.55685e-11)
(-4.83778e-13 1.64574e-11 -1.41704e-11)
(1.50566e-12 1.56053e-11 -1.25096e-11)
(3.25359e-12 1.52736e-11 -1.31875e-11)
(3.78664e-12 1.48322e-11 -1.78692e-11)
(2.89737e-12 1.67425e-11 -1.95201e-11)
(2.60149e-12 1.71828e-11 -1.6674e-11)
(3.49032e-13 1.39625e-11 -8.75642e-12)
(-2.96063e-12 1.34404e-11 -7.84526e-12)
(-2.49304e-12 1.14725e-11 -7.78739e-12)
(-1.63253e-12 9.60758e-12 -6.22332e-12)
(-3.70237e-13 1.00835e-11 -6.2207e-12)
(-1.29449e-12 1.11119e-11 6.27561e-13)
(6.41111e-13 1.2635e-11 6.39146e-12)
(-6.87628e-13 1.42431e-11 1.03832e-11)
(-3.70942e-12 1.607e-11 1.14638e-11)
(-5.86043e-12 1.3253e-11 8.5019e-12)
(-6.73888e-12 1.12445e-11 6.47767e-13)
(-7.06404e-12 1.53857e-11 -1.66884e-12)
(-6.76953e-12 1.37389e-11 -5.81048e-12)
(-4.26071e-12 1.28267e-11 -4.68591e-12)
(-1.25695e-12 1.45422e-11 -7.94534e-12)
(3.88827e-12 1.51729e-11 1.86571e-12)
(5.30291e-12 1.43517e-11 1.39589e-11)
(4.27928e-12 1.64132e-11 2.305e-11)
(2.81708e-12 1.53862e-11 2.3276e-11)
(-2.84552e-12 7.45148e-12 -4.81181e-12)
(-9.09653e-13 1.21738e-11 3.93188e-12)
(-2.24994e-12 1.10028e-11 1.17302e-11)
(-4.58737e-13 1.16763e-11 1.0882e-11)
(8.06531e-13 7.31869e-12 1.10395e-11)
(-6.75895e-13 6.74324e-12 1.08973e-11)
(-1.09299e-13 1.20704e-11 6.76482e-12)
(1.86668e-12 1.38523e-11 -3.27581e-13)
(-1.79986e-12 1.01097e-11 -9.22301e-12)
(-1.60282e-12 8.15156e-12 -1.57134e-11)
(-1.74644e-12 1.0842e-11 -1.98528e-11)
(-3.6135e-13 1.18217e-11 -2.06619e-11)
(3.49089e-12 1.42169e-11 -2.18338e-11)
(5.8372e-12 1.41392e-11 -2.49935e-11)
(2.85656e-12 8.92901e-12 -2.15655e-11)
(-9.36414e-13 1.18025e-11 -2.00622e-11)
(1.97997e-13 1.14222e-11 -1.7554e-11)
(2.47211e-12 1.14427e-11 -1.35343e-11)
(4.20866e-12 1.19923e-11 -1.06721e-11)
(2.4322e-12 1.11788e-11 -7.89997e-12)
(3.99695e-13 1.3406e-11 -7.01567e-12)
(7.07998e-13 1.58447e-11 -7.21333e-12)
(1.36459e-12 1.52954e-11 -6.91554e-12)
(2.288e-12 1.39006e-11 -1.19976e-11)
(4.52329e-12 1.28845e-11 -1.51757e-11)
(4.48458e-12 1.34987e-11 -1.46181e-11)
(4.24184e-12 1.22747e-11 -1.43326e-11)
(2.89569e-12 1.11748e-11 -4.50513e-12)
(3.74928e-12 1.30871e-11 7.61338e-12)
(4.20453e-12 1.26663e-11 1.67298e-11)
(4.891e-12 1.20445e-11 2.27822e-11)
(4.37107e-12 1.38142e-11 2.71036e-11)
(1.55464e-12 1.50501e-11 2.93342e-11)
(4.74465e-13 1.74429e-11 2.71808e-11)
(6.69748e-13 1.73993e-11 2.10482e-11)
(4.0433e-12 1.83745e-11 1.79665e-11)
(5.55255e-12 1.83254e-11 1.76077e-11)
(4.9528e-12 1.33551e-11 1.60339e-11)
(2.27171e-12 1.40772e-11 1.50145e-11)
(1.66583e-12 1.38476e-11 1.03235e-11)
(2.14985e-12 1.3517e-11 6.19841e-12)
(-1.10575e-12 1.18794e-11 4.36275e-12)
(1.7442e-12 1.01759e-11 -5.28629e-13)
(3.52647e-12 1.03686e-11 -4.24085e-12)
(1.56816e-12 9.44618e-12 -6.99799e-12)
(1.32734e-12 6.29607e-12 -7.15299e-12)
(3.55657e-12 7.83902e-12 -5.45675e-12)
(4.21095e-12 7.71125e-12 -1.72043e-12)
(8.93015e-13 1.03263e-11 1.26841e-12)
(-1.11575e-12 1.32509e-11 6.61144e-12)
(-1.49154e-12 1.23114e-11 1.22531e-11)
(-1.43253e-13 1.22983e-11 1.41275e-11)
(1.68896e-13 1.04053e-11 1.37373e-11)
(7.25911e-13 1.07934e-11 1.05769e-11)
(-1.55587e-12 1.14843e-11 6.91593e-12)
(-3.9871e-12 1.04063e-11 1.79216e-12)
(-9.50999e-12 1.28105e-11 -2.20358e-12)
(-8.44727e-12 1.29511e-11 -6.38033e-12)
(-3.70544e-12 1.16956e-11 -1.04046e-11)
(-3.912e-12 1.37504e-11 -1.5745e-11)
(-2.90356e-12 1.31439e-11 -1.87431e-11)
(-2.89827e-12 1.05454e-11 -1.58799e-11)
(-2.60892e-12 1.01388e-11 -1.23269e-11)
(-2.59177e-12 1.2132e-11 -1.12461e-11)
(-2.40782e-12 1.39492e-11 -1.07226e-11)
(-1.94477e-12 1.43892e-11 -6.7765e-12)
(2.39724e-13 1.52684e-11 -8.41604e-12)
(1.64652e-12 1.48752e-11 -5.50361e-12)
(-9.94672e-13 1.71963e-11 -3.37323e-12)
(1.03968e-12 1.78962e-11 -3.38988e-12)
(1.42042e-12 1.96089e-11 -5.6902e-12)
(1.73034e-12 1.73485e-11 -8.11914e-12)
(3.00949e-13 1.49526e-11 -1.16883e-11)
(-1.60813e-12 1.59168e-11 -1.4419e-11)
(-1.81611e-12 1.92544e-11 -1.36374e-11)
(-2.00078e-13 1.93099e-11 -1.45858e-11)
(2.3701e-12 1.63775e-11 -1.50809e-11)
(3.56709e-12 1.71211e-11 -1.52619e-11)
(2.75544e-12 1.82799e-11 -1.94946e-11)
(2.88024e-12 1.97768e-11 -1.98298e-11)
(5.13675e-12 1.83317e-11 -1.84574e-11)
(1.29832e-12 1.40916e-11 -1.20074e-11)
(-2.65303e-12 1.28339e-11 -8.37691e-12)
(-1.48054e-12 1.15313e-11 -9.39118e-12)
(-9.42264e-13 1.00235e-11 -9.88163e-12)
(-1.53226e-12 1.13904e-11 -1.02271e-11)
(-2.82243e-12 9.34997e-12 -8.49684e-12)
(-2.61306e-13 7.89705e-12 -3.22887e-12)
(-7.79393e-13 1.18714e-11 8.73765e-13)
(-2.73872e-12 1.15382e-11 3.18489e-12)
(-4.73739e-12 1.38571e-11 2.93663e-12)
(-8.37763e-12 1.51136e-11 -3.35606e-12)
(-6.74024e-12 1.84894e-11 -8.4998e-12)
(-5.40682e-12 1.62259e-11 -8.46132e-12)
(-4.88098e-12 1.38099e-11 -6.88175e-12)
(-3.25177e-13 1.20032e-11 -7.03664e-12)
(3.20173e-12 1.12778e-11 5.28342e-13)
(4.36006e-12 1.49295e-11 1.01716e-11)
(5.74198e-12 1.43172e-11 1.798e-11)
(2.09134e-12 1.51756e-11 1.88461e-11)
(-1.24903e-12 7.06253e-12 1.3251e-14)
(-6.3619e-13 6.19902e-12 5.69539e-12)
(8.33749e-13 4.82798e-12 4.30476e-12)
(2.72369e-12 6.94838e-12 3.56641e-12)
(-2.45829e-12 7.43221e-12 2.13192e-12)
(-3.36941e-12 1.04245e-11 -9.6517e-13)
(1.83463e-13 1.42355e-11 -4.98421e-12)
(6.38061e-13 1.17056e-11 -1.09696e-11)
(-1.95129e-12 9.63104e-12 -1.63105e-11)
(-1.38175e-12 1.15904e-11 -1.89787e-11)
(3.00737e-13 9.67071e-12 -1.68887e-11)
(9.84564e-13 9.31374e-12 -1.76985e-11)
(4.62534e-12 1.06324e-11 -1.84713e-11)
(3.81407e-12 1.20319e-11 -1.70374e-11)
(-1.24526e-12 1.32876e-11 -1.55901e-11)
(1.07917e-12 1.26773e-11 -1.57235e-11)
(2.43507e-12 1.14046e-11 -1.31421e-11)
(2.85707e-12 1.22222e-11 -8.88906e-12)
(2.41629e-12 1.20936e-11 -6.24465e-12)
(-1.02176e-12 1.24372e-11 -6.19579e-12)
(7.73786e-14 1.18647e-11 -5.70587e-12)
(3.0211e-12 1.17252e-11 -6.87082e-12)
(2.62372e-12 1.2036e-11 -7.86131e-12)
(4.46271e-12 1.0658e-11 -7.59104e-12)
(4.8735e-12 9.7856e-12 -6.11958e-12)
(6.64125e-12 9.88123e-12 -5.62371e-12)
(5.23057e-12 9.31358e-12 9.39799e-13)
(2.18005e-12 8.92252e-12 8.41991e-12)
(3.95121e-12 1.2916e-11 1.70253e-11)
(4.34516e-12 1.02745e-11 2.73075e-11)
(2.86531e-12 1.52643e-11 3.03053e-11)
(5.27538e-13 1.47329e-11 3.36775e-11)
(-6.71042e-13 1.64958e-11 2.67954e-11)
(2.60178e-13 1.72156e-11 1.69772e-11)
(4.36419e-12 1.7933e-11 1.66071e-11)
(7.45116e-12 1.66922e-11 1.53335e-11)
(7.05754e-12 1.50901e-11 1.59179e-11)
(7.04433e-13 1.44826e-11 1.47114e-11)
(3.8133e-13 1.54501e-11 9.36442e-12)
(3.81677e-12 1.58437e-11 5.1527e-12)
(1.58574e-12 1.32453e-11 3.245e-12)
(2.78075e-12 1.18111e-11 2.61393e-13)
(2.90515e-12 1.1346e-11 -4.20252e-12)
(2.74065e-12 1.02288e-11 -6.67293e-12)
(2.64587e-12 8.01138e-12 -5.44031e-12)
(2.65892e-12 6.30031e-12 -4.28765e-12)
(2.64729e-12 9.01288e-12 -3.61416e-12)
(-1.66355e-12 1.08616e-11 -1.73106e-12)
(-1.64202e-12 1.0877e-11 4.76945e-12)
(-8.51216e-13 1.04093e-11 1.15143e-11)
(-4.61025e-13 9.93134e-12 8.46295e-12)
(2.06331e-12 1.05115e-11 4.40322e-12)
(1.70021e-12 9.74619e-12 6.99667e-12)
(-2.25361e-12 1.10892e-11 6.9937e-12)
(-5.71121e-12 1.2956e-11 2.93031e-12)
(-9.55722e-12 1.53102e-11 -5.02282e-12)
(-8.10409e-12 1.13633e-11 -1.25253e-11)
(-4.61237e-12 1.36639e-11 -1.35159e-11)
(-4.66828e-12 1.30264e-11 -1.59372e-11)
(-2.3245e-12 1.38856e-11 -1.69011e-11)
(-1.28789e-12 1.47415e-11 -1.53505e-11)
(-2.8172e-12 1.30664e-11 -1.36444e-11)
(-4.46081e-12 1.53788e-11 -1.24672e-11)
(-2.92389e-12 1.58569e-11 -1.38933e-11)
(-2.023e-12 1.68153e-11 -9.57756e-12)
(-5.89926e-14 1.51358e-11 -1.07203e-11)
(3.69315e-13 1.63647e-11 -1.14206e-11)
(-2.238e-12 1.56051e-11 -1.36325e-11)
(8.30716e-13 1.53126e-11 -1.76163e-11)
(2.32333e-12 1.45698e-11 -1.76169e-11)
(2.82932e-12 1.29048e-11 -1.50624e-11)
(5.98271e-13 1.54231e-11 -1.2212e-11)
(-3.81902e-12 1.34314e-11 -1.30109e-11)
(-4.15891e-12 1.63948e-11 -1.37927e-11)
(1.10711e-12 1.55462e-11 -1.46233e-11)
(2.94947e-12 1.44263e-11 -1.59953e-11)
(2.25122e-12 1.64406e-11 -1.8436e-11)
(3.04121e-12 1.63795e-11 -2.24317e-11)
(3.65796e-12 1.57414e-11 -1.92637e-11)
(6.65553e-12 1.58439e-11 -1.63646e-11)
(3.28845e-12 1.40032e-11 -1.19561e-11)
(-1.09881e-12 1.23539e-11 -7.90803e-12)
(-4.87306e-13 1.17038e-11 -6.60989e-12)
(-2.47714e-12 1.32946e-11 -1.31724e-11)
(-1.06653e-12 1.32179e-11 -2.00905e-11)
(1.38962e-12 1.18762e-11 -1.7721e-11)
(-1.38144e-12 9.42361e-12 -1.494e-11)
(-4.19167e-12 1.22312e-11 -1.31209e-11)
(-6.33591e-12 1.51886e-11 -1.0077e-11)
(-8.6698e-12 1.5366e-11 -8.33436e-12)
(-1.08699e-11 1.6586e-11 -1.13708e-11)
(-8.74673e-12 1.56283e-11 -1.44843e-11)
(-3.36612e-12 1.43751e-11 -1.3205e-11)
(-2.10294e-12 1.23886e-11 -7.73506e-12)
(1.37136e-12 9.07728e-12 -6.32791e-12)
(3.12867e-12 1.18635e-11 -2.25195e-13)
(4.0829e-12 9.4148e-12 6.0311e-12)
(4.819e-12 1.29315e-11 1.01464e-11)
(-9.31838e-13 6.47181e-12 -1.59282e-12)
(-6.24933e-13 5.37275e-12 -1.84416e-12)
(-7.77193e-13 3.0448e-12 -9.67961e-13)
(-1.25634e-12 7.67377e-12 -2.01357e-12)
(-3.35653e-12 9.67227e-12 -5.42682e-12)
(-4.41281e-12 6.77762e-12 -7.94127e-12)
(-8.78311e-13 9.2015e-12 -9.58919e-12)
(7.74473e-13 9.89591e-12 -1.31243e-11)
(-1.86486e-12 1.02874e-11 -1.65921e-11)
(-6.94779e-13 8.65188e-12 -1.7195e-11)
(2.36731e-12 9.7191e-12 -1.51517e-11)
(3.35358e-12 7.5369e-12 -1.31968e-11)
(5.77678e-12 6.34207e-12 -1.38723e-11)
(7.34502e-13 9.79849e-12 -1.37191e-11)
(-3.48159e-12 1.14569e-11 -1.51572e-11)
(-1.33475e-13 1.1957e-11 -1.46797e-11)
(2.15338e-12 1.16051e-11 -1.32366e-11)
(2.42262e-12 1.29207e-11 -8.19496e-12)
(2.25386e-12 1.4113e-11 -4.4354e-12)
(1.0183e-12 1.23491e-11 -4.7007e-12)
(1.64658e-12 8.88685e-12 -2.74557e-12)
(1.97908e-12 9.12824e-12 -4.46883e-12)
(3.65458e-12 8.50952e-12 -5.24343e-12)
(5.79556e-12 7.41686e-12 -1.50598e-13)
(4.31529e-12 7.87035e-12 1.75916e-12)
(3.92768e-12 8.73921e-12 2.52646e-12)
(3.83868e-12 1.137e-11 6.69912e-12)
(1.8633e-12 9.23817e-12 8.92887e-12)
(3.32756e-12 1.26685e-11 1.47944e-11)
(3.99341e-12 1.18799e-11 2.56972e-11)
(8.06682e-13 1.47873e-11 2.95774e-11)
(9.11543e-13 1.46478e-11 3.39445e-11)
(-5.89131e-13 1.58572e-11 2.93192e-11)
(-4.75405e-13 1.58342e-11 2.05944e-11)
(3.59492e-12 1.74451e-11 2.086e-11)
(7.61639e-12 1.55737e-11 1.96644e-11)
(6.84784e-12 1.69838e-11 1.55533e-11)
(1.10712e-12 1.68193e-11 1.36562e-11)
(-3.91061e-13 1.41627e-11 7.87443e-12)
(3.59464e-12 1.3271e-11 2.84089e-12)
(1.91204e-12 1.23942e-11 5.45403e-13)
(2.58019e-12 1.19793e-11 -2.13335e-12)
(4.77923e-12 1.07808e-11 -3.99691e-12)
(4.64978e-12 8.3663e-12 -5.6357e-12)
(4.1727e-12 9.1554e-12 -4.64556e-12)
(2.53013e-12 7.48759e-12 -4.41942e-12)
(3.44787e-13 1.07308e-11 -5.5191e-12)
(-8.13281e-13 1.11178e-11 -4.63427e-12)
(-4.90756e-13 1.17589e-11 2.22426e-12)
(-3.81811e-13 1.30538e-11 6.7136e-12)
(7.48549e-14 1.0455e-11 4.52737e-12)
(2.85914e-13 1.08589e-11 2.67867e-13)
(4.44146e-13 1.39217e-11 4.6762e-12)
(-2.81307e-12 1.33353e-11 6.77687e-12)
(-6.45272e-12 1.49933e-11 5.82237e-12)
(-6.83192e-12 1.42232e-11 -3.72842e-12)
(-6.72128e-12 1.06114e-11 -1.1332e-11)
(-5.4169e-12 1.205e-11 -1.54527e-11)
(-4.2379e-12 1.33764e-11 -1.44862e-11)
(-4.64928e-12 1.46658e-11 -1.5382e-11)
(-2.10352e-12 1.60468e-11 -1.43253e-11)
(-3.26243e-12 1.67394e-11 -1.30708e-11)
(-4.71141e-12 1.80482e-11 -1.23631e-11)
(-3.10712e-12 1.47823e-11 -1.22099e-11)
(-8.56089e-13 1.60428e-11 -1.11774e-11)
(1.14528e-12 1.29778e-11 -1.08044e-11)
(1.7912e-12 1.36854e-11 -1.2905e-11)
(-5.36813e-13 1.13743e-11 -1.83439e-11)
(1.39704e-12 1.20256e-11 -2.63227e-11)
(3.6969e-12 1.25084e-11 -2.42061e-11)
(1.17596e-12 1.04442e-11 -1.72826e-11)
(2.39691e-13 1.36918e-11 -1.26156e-11)
(-3.12543e-12 1.31392e-11 -1.19064e-11)
(-4.95581e-12 1.2826e-11 -1.30215e-11)
(5.12307e-14 1.30679e-11 -1.41045e-11)
(2.43494e-12 1.37293e-11 -1.60894e-11)
(2.45922e-12 1.23067e-11 -1.82297e-11)
(3.32287e-12 1.10294e-11 -1.97465e-11)
(3.39686e-12 9.66364e-12 -1.76753e-11)
(6.49436e-12 1.1162e-11 -1.48284e-11)
(3.74626e-12 1.37508e-11 -1.04839e-11)
(-5.26276e-13 1.29552e-11 -6.41649e-12)
(-1.72756e-12 1.40128e-11 -8.33666e-12)
(-2.71246e-12 1.33879e-11 -1.55595e-11)
(-3.93226e-13 1.35619e-11 -2.29923e-11)
(1.56302e-12 1.5212e-11 -2.29065e-11)
(-1.3579e-12 1.57096e-11 -2.01691e-11)
(-5.18226e-12 1.67538e-11 -2.13843e-11)
(-4.25924e-12 1.62097e-11 -2.21144e-11)
(-5.96282e-12 1.39948e-11 -1.93886e-11)
(-1.04619e-11 1.258e-11 -1.93982e-11)
(-6.35402e-12 1.16529e-11 -1.94129e-11)
(-2.00057e-12 1.17856e-11 -1.85871e-11)
(-1.96055e-12 1.09468e-11 -1.29376e-11)
(3.84937e-13 7.33346e-12 -7.65674e-12)
(3.71548e-12 1.03466e-11 -3.28587e-12)
(4.20665e-12 8.08167e-12 1.70135e-12)
(2.1301e-12 1.16273e-11 5.46032e-12)
(-2.69667e-13 7.666e-12 2.18664e-12)
(7.15361e-13 5.94305e-12 -2.2896e-14)
(-1.97639e-12 5.21628e-12 -1.87899e-12)
(-3.66982e-12 6.2076e-12 -5.16763e-12)
(-1.38402e-12 5.96846e-12 -9.1337e-12)
(-3.44664e-12 5.10994e-12 -1.20615e-11)
(-2.70464e-12 6.21409e-12 -1.38909e-11)
(-7.52375e-13 8.48212e-12 -1.40427e-11)
(-1.46188e-12 9.16539e-12 -1.57429e-11)
(-1.37514e-12 7.88344e-12 -1.32781e-11)
(2.0986e-12 7.27841e-12 -1.16039e-11)
(3.94665e-12 3.94467e-12 -1.07739e-11)
(3.73185e-12 6.45476e-12 -1.01357e-11)
(-1.97032e-13 6.62987e-12 -9.65595e-12)
(-3.66006e-12 6.09611e-12 -1.02569e-11)
(3.82967e-13 8.20058e-12 -1.14311e-11)
(1.86921e-12 9.36597e-12 -1.06605e-11)
(9.26824e-13 1.1266e-11 -8.54067e-12)
(2.49247e-12 1.20823e-11 -5.75698e-12)
(2.59714e-12 1.10625e-11 -4.766e-12)
(2.31418e-12 1.03184e-11 -2.76421e-12)
(2.36315e-12 8.1098e-12 -1.64057e-12)
(3.44791e-12 1.03011e-11 1.51251e-12)
(4.66639e-12 1.17493e-11 5.23824e-12)
(3.94774e-12 1.23183e-11 4.86012e-12)
(3.5356e-12 1.27967e-11 5.86805e-12)
(4.93561e-12 1.15953e-11 8.14254e-12)
(2.26085e-12 1.04224e-11 8.37725e-12)
(1.7556e-12 8.80268e-12 1.26633e-11)
(4.3024e-12 1.18037e-11 1.98651e-11)
(9.21049e-13 1.15197e-11 2.85804e-11)
(-4.85647e-13 1.24509e-11 3.53481e-11)
(-2.61609e-12 1.45753e-11 3.11798e-11)
(-2.08439e-12 1.54321e-11 2.46126e-11)
(3.94687e-12 1.52694e-11 2.34999e-11)
(8.45096e-12 1.60273e-11 1.95265e-11)
(6.36951e-12 1.61547e-11 1.44843e-11)
(8.56737e-13 1.49505e-11 1.16271e-11)
(1.51032e-12 1.07051e-11 7.11665e-12)
(4.44465e-12 9.20618e-12 3.21157e-12)
(2.55899e-12 8.55302e-12 1.53197e-12)
(3.74207e-12 8.4485e-12 -1.00527e-12)
(5.38911e-12 6.52983e-12 -2.38158e-12)
(4.28768e-12 5.91075e-12 -2.96545e-12)
(4.05431e-12 7.25275e-12 -2.76188e-12)
(1.37117e-12 7.58886e-12 -2.08232e-12)
(-7.0924e-13 9.65798e-12 -2.66274e-12)
(-1.14362e-12 9.1793e-12 -1.94941e-12)
(-2.08405e-12 1.27766e-11 2.18305e-12)
(5.69211e-14 1.13851e-11 4.16934e-12)
(9.99281e-13 1.14562e-11 3.2714e-12)
(-5.85762e-13 9.99916e-12 1.98554e-12)
(-2.19454e-13 1.2345e-11 3.83143e-12)
(-2.33595e-12 1.13063e-11 6.19912e-12)
(-4.98469e-12 1.35221e-11 5.53807e-12)
(-5.53355e-12 1.34949e-11 5.71179e-13)
(-6.45363e-12 1.09769e-11 -5.65541e-12)
(-5.95241e-12 1.01175e-11 -1.18724e-11)
(-7.15769e-12 1.29544e-11 -1.25345e-11)
(-4.68559e-12 1.49743e-11 -1.34424e-11)
(-2.49147e-12 1.37913e-11 -1.29027e-11)
(-4.81967e-12 1.76765e-11 -1.24146e-11)
(-3.73261e-12 1.3548e-11 -1.19015e-11)
(-2.25786e-12 9.58156e-12 -1.16275e-11)
(-5.11109e-13 1.13247e-11 -1.00394e-11)
(2.23135e-12 1.19847e-11 -7.66535e-12)
(1.7716e-12 9.53565e-12 -1.08913e-11)
(-7.2696e-13 1.12785e-11 -1.75585e-11)
(2.62287e-13 1.15225e-11 -2.56703e-11)
(4.19376e-12 1.12863e-11 -2.42369e-11)
(3.1021e-12 1.1123e-11 -1.66459e-11)
(-1.27693e-12 1.08359e-11 -1.16415e-11)
(-3.6856e-12 1.50759e-11 -1.07595e-11)
(-4.73358e-12 1.16303e-11 -1.0548e-11)
(2.78127e-14 1.42084e-11 -1.16655e-11)
(4.29319e-12 1.3313e-11 -1.36959e-11)
(3.6059e-12 1.22664e-11 -1.53031e-11)
(4.32149e-12 9.91335e-12 -1.54748e-11)
(3.2583e-12 8.49945e-12 -1.48297e-11)
(3.42284e-12 1.1382e-11 -1.29097e-11)
(2.97823e-12 1.21797e-11 -1.01099e-11)
(-6.07413e-14 1.38981e-11 -8.98673e-12)
(-8.35905e-13 1.29416e-11 -9.62256e-12)
(-2.58891e-12 1.09807e-11 -1.45211e-11)
(-1.65043e-12 1.11859e-11 -1.89725e-11)
(2.74525e-13 1.23963e-11 -1.99211e-11)
(-2.33156e-12 1.39809e-11 -2.04441e-11)
(-3.62427e-12 1.36882e-11 -2.46197e-11)
(-3.31697e-12 1.07989e-11 -2.61633e-11)
(-6.00156e-12 1.41677e-11 -2.5164e-11)
(-9.03521e-12 1.65079e-11 -2.53486e-11)
(-7.62764e-12 1.429e-11 -2.43718e-11)
(-1.8836e-12 1.43441e-11 -2.28606e-11)
(2.90377e-12 1.14405e-11 -2.03772e-11)
(1.24374e-12 9.63456e-12 -1.34623e-11)
(2.79689e-12 7.76603e-12 -5.82864e-12)
(3.76101e-12 7.96186e-12 2.38797e-13)
(5.45476e-13 8.99829e-12 4.23293e-12)
(1.26113e-12 6.02041e-12 8.90262e-12)
(3.35185e-13 5.77028e-12 4.23277e-12)
(-2.75323e-12 6.93188e-12 -2.11194e-12)
(-2.38409e-12 7.2578e-12 -8.50935e-12)
(-2.33349e-12 6.0615e-12 -1.28743e-11)
(-3.67361e-12 7.73579e-12 -1.5314e-11)
(-3.25949e-12 5.36382e-12 -1.41426e-11)
(-2.44984e-12 7.06494e-12 -1.32747e-11)
(-1.58994e-12 8.58036e-12 -1.26737e-11)
(1.50552e-13 6.96398e-12 -1.03024e-11)
(4.36031e-12 5.84174e-12 -9.85854e-12)
(2.46828e-12 5.92932e-12 -9.0234e-12)
(9.36262e-13 7.99309e-12 -6.74866e-12)
(1.14862e-12 9.8964e-12 -5.38528e-12)
(-3.3076e-12 9.27499e-12 -4.45323e-12)
(-1.52139e-12 9.27766e-12 -7.25842e-12)
(3.25023e-13 1.26083e-11 -6.60477e-12)
(1.09278e-12 1.0979e-11 -5.97154e-12)
(1.56425e-12 1.14208e-11 -4.85512e-12)
(1.51953e-12 1.38857e-11 -4.03252e-12)
(3.62166e-12 1.35625e-11 -2.53996e-12)
(2.45535e-12 1.08052e-11 9.02019e-13)
(1.24347e-12 1.28251e-11 6.04345e-12)
(3.41653e-12 1.31037e-11 8.15359e-12)
(2.99923e-12 1.25444e-11 6.45869e-12)
(4.51076e-12 1.20019e-11 6.12414e-12)
(5.60631e-12 1.05569e-11 7.02362e-12)
(3.39281e-12 1.122e-11 7.46485e-12)
(1.01212e-12 9.80999e-12 9.90138e-12)
(3.57457e-13 1.45345e-11 1.60073e-11)
(1.91208e-12 1.40795e-11 2.56169e-11)
(-1.86345e-12 1.54649e-11 3.2426e-11)
(-4.21712e-12 1.58983e-11 3.05819e-11)
(-2.49067e-12 1.42461e-11 2.70524e-11)
(3.21762e-12 1.59411e-11 2.52824e-11)
(7.73354e-12 1.64913e-11 1.64592e-11)
(7.86095e-12 1.92849e-11 1.20277e-11)
(5.27253e-12 1.56913e-11 8.32706e-12)
(4.94929e-12 1.065e-11 5.29028e-12)
(5.19094e-12 1.07608e-11 1.97061e-12)
(3.17808e-12 9.81263e-12 2.00603e-12)
(3.71094e-12 8.67429e-12 1.05474e-12)
(5.8944e-12 9.29848e-12 1.84127e-13)
(4.22318e-12 1.04394e-11 -2.81807e-13)
(1.9259e-12 1.06056e-11 8.24404e-13)
(-8.3299e-13 1.22785e-11 1.31344e-12)
(-1.0198e-12 1.29361e-11 9.77388e-13)
(-2.27531e-12 1.25944e-11 2.27464e-13)
(-1.85707e-12 1.35792e-11 4.28112e-13)
(1.14523e-12 1.35793e-11 3.07058e-12)
(2.10055e-12 1.28888e-11 4.5771e-12)
(5.47221e-13 1.18318e-11 3.77916e-12)
(-1.11217e-12 1.24268e-11 6.30593e-12)
(-3.60113e-12 1.49501e-11 7.19353e-12)
(-6.51977e-12 1.67042e-11 5.8703e-12)
(-4.5401e-12 1.65099e-11 4.15974e-12)
(-4.29669e-12 1.25474e-11 2.15197e-12)
(-6.93287e-12 1.36655e-11 -4.75892e-12)
(-8.5078e-12 1.18002e-11 -7.63137e-12)
(-5.5113e-12 1.21816e-11 -9.63368e-12)
(-5.55744e-12 1.34748e-11 -1.08992e-11)
(-4.15563e-12 1.64027e-11 -1.14532e-11)
(1.48037e-12 1.30141e-11 -1.1096e-11)
(-1.33797e-12 1.11544e-11 -1.04442e-11)
(-2.41783e-12 1.16678e-11 -8.8264e-12)
(1.35686e-12 1.24262e-11 -6.00843e-12)
(1.98671e-12 1.18159e-11 -1.09251e-11)
(-2.30265e-12 1.28193e-11 -1.56966e-11)
(1.01925e-12 1.22903e-11 -2.03888e-11)
(4.02356e-12 1.1987e-11 -1.75208e-11)
(1.94845e-12 1.58585e-11 -1.28923e-11)
(-2.88246e-12 1.58231e-11 -1.00093e-11)
(-1.72043e-12 1.44322e-11 -8.56691e-12)
(-2.58816e-12 1.15144e-11 -8.3749e-12)
(-8.51489e-13 1.12699e-11 -9.70191e-12)
(3.84149e-12 1.19455e-11 -1.06118e-11)
(5.18692e-12 1.13325e-11 -1.18998e-11)
(5.80993e-12 1.06328e-11 -1.25067e-11)
(2.57304e-12 1.22068e-11 -1.33923e-11)
(3.09168e-12 1.2277e-11 -1.36879e-11)
(2.15927e-12 1.25956e-11 -9.69153e-12)
(-2.58302e-13 1.30871e-11 -1.03615e-11)
(5.48326e-13 1.21955e-11 -1.15252e-11)
(-6.01333e-13 1.21281e-11 -1.21083e-11)
(-1.84662e-12 1.03434e-11 -1.22299e-11)
(-6.92472e-13 1.25558e-11 -1.4318e-11)
(-1.93216e-12 1.30174e-11 -1.83822e-11)
(-2.10195e-12 1.2147e-11 -2.28556e-11)
(-5.07835e-12 1.11555e-11 -2.55592e-11)
(-9.87356e-12 1.29917e-11 -2.63434e-11)
(-9.51263e-12 1.32247e-11 -2.96794e-11)
(-4.66278e-12 1.25947e-11 -2.92752e-11)
(-4.6038e-13 1.05687e-11 -2.51359e-11)
(2.35689e-12 8.32938e-12 -2.58559e-11)
(2.56456e-12 8.88682e-12 -1.75668e-11)
(3.88364e-12 8.04706e-12 -7.0835e-12)
(2.05569e-12 8.05048e-12 3.74055e-13)
(8.30006e-13 1.10003e-11 4.26062e-12)
(1.2083e-12 1.12639e-11 1.37388e-11)
(2.45718e-13 9.39263e-12 7.02452e-12)
(-4.03579e-12 1.28854e-11 -2.9541e-12)
(-2.2449e-12 1.2147e-11 -1.10834e-11)
(-2.21095e-12 1.26073e-11 -1.34742e-11)
(-2.20843e-12 1.20763e-11 -1.34545e-11)
(-1.67771e-12 1.03501e-11 -1.29538e-11)
(-2.95871e-12 1.07e-11 -1.20743e-11)
(-1.49055e-12 1.10096e-11 -1.07536e-11)
(1.04568e-12 1.14224e-11 -9.77855e-12)
(2.40746e-12 1.20835e-11 -9.49079e-12)
(1.12663e-12 1.3944e-11 -8.39154e-12)
(-6.59723e-13 1.484e-11 -5.6538e-12)
(-4.20643e-13 1.85183e-11 -5.12281e-12)
(-2.48457e-12 1.68344e-11 -4.43877e-12)
(-2.80887e-12 1.54955e-11 -4.83082e-12)
(2.93526e-13 1.85118e-11 -4.65269e-12)
(2.97035e-12 1.68221e-11 -3.79784e-12)
(2.99634e-14 1.58972e-11 -3.67015e-12)
(2.43083e-13 1.65324e-11 -2.92516e-12)
(5.03423e-12 1.63166e-11 -1.81939e-12)
(3.30753e-12 1.79287e-11 3.74669e-13)
(2.00401e-12 1.66051e-11 3.05166e-12)
(4.36639e-12 1.72175e-11 4.2665e-12)
(4.3359e-12 1.71876e-11 4.36289e-12)
(4.86203e-12 1.50667e-11 4.79529e-12)
(5.21392e-12 1.6044e-11 6.18445e-12)
(2.26212e-12 1.58276e-11 9.43285e-12)
(-1.49844e-12 1.74979e-11 9.8358e-12)
(-9.08104e-13 2.11679e-11 1.29017e-11)
(9.6055e-13 2.03059e-11 1.85232e-11)
(-3.74219e-12 1.75844e-11 2.26023e-11)
(-3.64278e-12 1.54045e-11 2.46092e-11)
(-2.59819e-12 1.39295e-11 2.34726e-11)
(1.60076e-12 1.66605e-11 2.1581e-11)
(4.91738e-12 1.70441e-11 1.37766e-11)
(7.28147e-12 2.10063e-11 7.65007e-12)
(9.70196e-12 2.05793e-11 4.62649e-12)
(7.67693e-12 1.74114e-11 3.77152e-12)
(5.63179e-12 1.81114e-11 3.32487e-12)
(3.99662e-12 1.61169e-11 2.42904e-12)
(4.01391e-12 1.33562e-11 2.57154e-12)
(3.57883e-12 1.57576e-11 2.43043e-12)
(2.25474e-12 1.73713e-11 2.99341e-12)
(1.83088e-12 1.92221e-11 3.33074e-12)
(-6.32583e-13 1.92325e-11 3.80642e-12)
(-7.9497e-13 1.7859e-11 4.70565e-12)
(-1.04575e-12 1.73905e-11 5.47285e-12)
(-2.76752e-12 1.60705e-11 4.44395e-12)
(1.03231e-12 1.93077e-11 4.7183e-12)
(3.57166e-12 1.72902e-11 5.88678e-12)
(2.78483e-14 1.83907e-11 5.83232e-12)
(-2.64376e-12 1.98346e-11 8.58773e-12)
(-5.02449e-12 2.26406e-11 7.71662e-12)
(-5.56861e-12 2.14975e-11 4.72144e-12)
(-2.42851e-12 2.14771e-11 4.40488e-12)
(-4.1617e-12 2.00921e-11 3.70229e-12)
(-6.15989e-12 1.77479e-11 2.35487e-12)
(-6.13037e-12 1.60159e-11 -2.88989e-12)