/*--------------------------------*- C++ -*----------------------------------*\
| =========                 |                                                 |
| \\      /  F ield         | OpenFOAM: The Open Source CFD Toolbox           |
|  \\    /   O peration     | Version:  2406                                  |
|   \\  /    A nd           | Website:  www.openfoam.com                      |
|    \\/     M anipulation  |                                                 |
\*---------------------------------------------------------------------------*/
FoamFile
{
    version     2.0;
    format      ascii;
    arch        "LSB;label=32;scalar=64";
    class       volScalarField;
    location    "0.065";
    object      Ma;
}
// * * * * * * * * * * * * * * * * * * * * * * * * * * * * * * * * * * * * * //

dimensions      [0 0 0 0 0 0 0];

internalField   nonuniform List<scalar> 
13988
(
4.11365e-14
5.85816e-14
9.94358e-14
8.03799e-14
6.56562e-14
5.66949e-14
4.79952e-14
4.98758e-14
4.63069e-14
4.21938e-14
7.67495e-14
8.90797e-14
9.16026e-14
9.03227e-14
9.04602e-14
6.90488e-14
6.00974e-14
5.711e-14
5.32679e-14
5.47321e-14
6.07402e-14
6.90652e-14
5.96896e-14
6.68901e-14
7.30144e-14
7.78585e-14
8.81925e-14
5.33413e-14
4.0271e-14
4.42339e-14
5.36622e-14
4.95132e-14
5.21461e-14
7.35068e-14
8.72813e-14
1.099e-13
1.03574e-13
9.14739e-14
6.88188e-14
5.7468e-14
3.71345e-14
2.95229e-14
2.52454e-14
1.85431e-14
2.99555e-14
3.27238e-14
3.98487e-14
3.0961e-14
3.74786e-14
4.23554e-14
6.82253e-14
7.4106e-14
8.43975e-14
6.06541e-14
4.13018e-14
4.5599e-14
3.38823e-14
4.38949e-14
4.40876e-14
4.14975e-14
5.19582e-14
6.30477e-14
7.41976e-14
6.09243e-14
6.16523e-14
5.27493e-14
4.63247e-14
3.91556e-14
4.1472e-14
4.8192e-14
4.76551e-14
4.54568e-14
4.70716e-14
5.00091e-14
4.5547e-14
6.53737e-14
5.91803e-14
5.97602e-14
7.04938e-14
8.48685e-14
7.51281e-14
8.50556e-14
8.35083e-14
9.15901e-14
7.44672e-14
5.86491e-14
4.0661e-14
2.95776e-14
3.7891e-14
4.34371e-14
4.93413e-14
5.21769e-14
5.20187e-14
5.49389e-14
6.12564e-14
6.70609e-14
6.31076e-14
5.82848e-14
8.41346e-14
8.46332e-14
7.21867e-14
5.33293e-14
5.58485e-14
8.81711e-14
7.07127e-14
6.16135e-14
6.11583e-14
6.39099e-14
5.84512e-14
4.08679e-14
4.13567e-14
6.1559e-14
7.1323e-14
7.19316e-14
7.63605e-14
7.90396e-14
7.82427e-14
6.94717e-14
5.603e-14
5.58184e-14
4.66166e-14
5.49509e-14
6.35477e-14
6.59276e-14
6.26902e-14
6.75176e-14
6.63313e-14
6.81281e-14
5.77115e-14
5.31327e-14
5.80021e-14
5.94597e-14
6.24885e-14
7.46393e-14
9.85506e-14
1.05541e-13
1.18898e-13
1.14823e-13
9.95794e-14
7.29577e-14
5.14645e-14
4.41592e-14
3.42957e-14
2.11927e-14
2.16619e-14
2.18302e-14
3.47045e-14
4.57996e-14
3.81717e-14
3.62559e-14
4.17987e-14
6.22708e-14
6.49183e-14
6.72698e-14
5.56413e-14
3.81096e-14
3.45302e-14
4.65329e-14
5.16349e-14
4.73529e-14
5.60477e-14
6.3959e-14
5.73293e-14
6.17998e-14
6.09434e-14
6.91412e-14
6.09108e-14
4.99439e-14
4.29758e-14
5.03154e-14
5.34513e-14
5.72191e-14
5.11405e-14
5.72793e-14
5.20815e-14
5.28008e-14
6.2259e-14
6.79296e-14
6.8685e-14
7.08522e-14
7.72747e-14
7.25584e-14
7.36945e-14
7.69086e-14
6.96698e-14
6.21343e-14
5.71904e-14
4.26675e-14
4.11931e-14
5.08439e-14
5.06098e-14
4.62251e-14
4.94564e-14
5.82339e-14
6.22821e-14
5.9008e-14
6.24228e-14
5.70141e-14
6.34607e-14
7.95631e-14
7.72688e-14
4.76262e-14
5.06008e-14
7.14163e-14
6.64755e-14
5.49729e-14
5.06782e-14
5.6951e-14
5.96098e-14
5.03475e-14
5.45892e-14
6.46419e-14
6.95998e-14
7.40461e-14
7.29837e-14
7.19842e-14
7.91383e-14
6.83605e-14
5.87334e-14
5.83558e-14
5.2988e-14
6.05656e-14
6.5364e-14
6.63833e-14
6.97387e-14
7.12287e-14
7.16804e-14
6.23469e-14
4.75964e-14
4.3842e-14
5.82976e-14
6.26336e-14
7.93836e-14
9.77349e-14
1.13863e-13
1.19e-13
1.29762e-13
1.20933e-13
1.04358e-13
7.87045e-14
5.60752e-14
4.3879e-14
4.5807e-14
3.83762e-14
3.66224e-14
3.65935e-14
3.69223e-14
3.57365e-14
4.05093e-14
3.5365e-14
5.06376e-14
6.34949e-14
6.92362e-14
6.72368e-14
5.93904e-14
4.33278e-14
3.55604e-14
5.14679e-14
5.77507e-14
6.07605e-14
7.13507e-14
6.70623e-14
5.66458e-14
5.57089e-14
5.84725e-14
6.49998e-14
6.83599e-14
5.96148e-14
4.90592e-14
5.72038e-14
6.08833e-14
6.00562e-14
5.89514e-14
6.36716e-14
5.47634e-14
6.45682e-14
6.91097e-14
6.9512e-14
7.70821e-14
8.10923e-14
8.22151e-14
7.92621e-14
7.67687e-14
7.15431e-14
6.22855e-14
6.18967e-14
6.71271e-14
5.46931e-14
4.33212e-14
4.85872e-14
4.7397e-14
5.28922e-14
6.38652e-14
6.99598e-14
7.22131e-14
6.63671e-14
6.0584e-14
5.14773e-14
6.56748e-14
7.62501e-14
8.12656e-14
3.58512e-14
4.77688e-14
5.16243e-14
5.15399e-14
4.23416e-14
4.48384e-14
5.07137e-14
4.79332e-14
5.7017e-14
6.15979e-14
6.0321e-14
6.34339e-14
6.23039e-14
5.80803e-14
6.38278e-14
6.32112e-14
5.7701e-14
5.9739e-14
5.43581e-14
5.64159e-14
6.05951e-14
6.10921e-14
6.50348e-14
6.38828e-14
6.10775e-14
6.11264e-14
4.85561e-14
4.12236e-14
5.29199e-14
6.75305e-14
8.5405e-14
1.07213e-13
1.1676e-13
1.20173e-13
1.32006e-13
1.17123e-13
9.75485e-14
7.9824e-14
6.14108e-14
4.81559e-14
4.88655e-14
5.00375e-14
4.64541e-14
4.79762e-14
3.91972e-14
3.16834e-14
3.7706e-14
3.80612e-14
4.92357e-14
6.06432e-14
6.32546e-14
5.81977e-14
5.82405e-14
5.1157e-14
4.42041e-14
5.34316e-14
6.46262e-14
6.95655e-14
7.15219e-14
6.70048e-14
6.37232e-14
5.91207e-14
6.22902e-14
6.81789e-14
6.83115e-14
5.98328e-14
5.88781e-14
6.04343e-14
5.78498e-14
5.80587e-14
5.40193e-14
5.67495e-14
5.31005e-14
6.00661e-14
5.98175e-14
6.89375e-14
7.8736e-14
8.87243e-14
8.09572e-14
7.73563e-14
6.92817e-14
6.32791e-14
6.03368e-14
6.40217e-14
7.54888e-14
6.7833e-14
6.14229e-14
6.33261e-14
6.6245e-14
7.1572e-14
8.08118e-14
7.76523e-14
7.69521e-14
6.59692e-14
5.68697e-14
5.16482e-14
5.32061e-14
6.91314e-14
4.06695e-14
4.06363e-14
3.08982e-14
3.53518e-14
3.80021e-14
4.52012e-14
4.25833e-14
4.96479e-14
4.89303e-14
5.15301e-14
4.50329e-14
4.39256e-14
4.54138e-14
4.66361e-14
4.15e-14
4.99098e-14
4.91098e-14
5.44005e-14
5.07531e-14
5.28287e-14
5.10064e-14
4.92546e-14
4.42511e-14
3.96169e-14
3.91541e-14
5.36468e-14
5.04551e-14
4.25545e-14
4.67882e-14
6.90129e-14
9.05958e-14
1.0697e-13
1.10811e-13
1.10542e-13
1.23412e-13
1.07316e-13
8.54574e-14
7.40542e-14
5.74742e-14
4.97113e-14
4.11167e-14
5.03382e-14
4.69039e-14
4.32606e-14
3.49609e-14
3.30348e-14
3.43214e-14
3.9988e-14
3.69945e-14
4.71874e-14
5.05621e-14
4.82144e-14
4.80881e-14
4.72766e-14
3.77359e-14
5.11929e-14
6.11068e-14
7.5623e-14
6.82654e-14
6.97332e-14
7.0834e-14
6.54866e-14
6.25503e-14
6.53592e-14
6.20563e-14
6.18351e-14
5.4751e-14
5.47853e-14
6.6308e-14
5.9664e-14
5.43305e-14
4.69875e-14
5.09489e-14
4.78345e-14
5.57165e-14
6.85648e-14
7.61274e-14
7.49505e-14
7.49524e-14
6.59923e-14
6.91037e-14
6.42198e-14
6.55177e-14
6.01048e-14
6.6133e-14
6.86453e-14
7.74312e-14
7.85288e-14
8.90239e-14
9.07979e-14
8.24764e-14
7.73747e-14
7.80269e-14
6.63186e-14
5.73085e-14
4.41389e-14
4.41186e-14
5.10456e-14
2.44515e-14
2.38617e-14
1.63567e-14
2.03756e-14
3.52419e-14
4.93742e-14
4.4624e-14
4.46297e-14
3.5145e-14
3.47073e-14
3.36258e-14
2.49881e-14
2.47991e-14
3.05724e-14
2.61502e-14
3.07969e-14
3.09315e-14
5.04886e-14
4.30212e-14
4.28331e-14
4.46596e-14
3.19876e-14
2.21456e-14
3.18052e-14
2.99933e-14
3.8117e-14
4.34516e-14
3.62176e-14
4.19486e-14
6.4191e-14
9.01795e-14
1.04168e-13
9.96193e-14
8.98224e-14
9.5947e-14
8.21199e-14
6.13159e-14
6.10308e-14
5.13697e-14
3.14083e-14
2.37311e-14
2.895e-14
2.05704e-14
2.23883e-14
2.14563e-14
1.85452e-14
2.23824e-14
2.41925e-14
3.12474e-14
4.05795e-14
4.63216e-14
4.13507e-14
3.98465e-14
3.4331e-14
2.85684e-14
3.81232e-14
4.34341e-14
5.0708e-14
5.55803e-14
6.15528e-14
5.50064e-14
6.54303e-14
5.38394e-14
5.48253e-14
5.41363e-14
5.22643e-14
4.78275e-14
5.75142e-14
7.63881e-14
5.55496e-14
4.66831e-14
4.03276e-14
5.14684e-14
4.22784e-14
5.39473e-14
5.95046e-14
6.4517e-14
5.61049e-14
5.69124e-14
5.80143e-14
5.48766e-14
5.15231e-14
5.77094e-14
4.73642e-14
5.47103e-14
5.73456e-14
7.22222e-14
8.15791e-14
1.02053e-13
9.83625e-14
8.91664e-14
8.8394e-14
8.63974e-14
7.56411e-14
6.5465e-14
4.73549e-14
3.32303e-14
4.40316e-14
9.84759e-15
1.38744e-14
1.36498e-14
2.07236e-14
4.43122e-14
6.48417e-14
5.02845e-14
3.34759e-14
2.67055e-14
2.28289e-14
2.65153e-14
2.11908e-14
1.49664e-14
1.63487e-14
2.22429e-14
2.83635e-14
3.09321e-14
3.68594e-14
3.94403e-14
3.61901e-14
3.14835e-14
2.55814e-14
2.75009e-14
3.36145e-14
2.37834e-14
2.28975e-14
3.53213e-14
3.05252e-14
3.78581e-14
6.00468e-14
9.01189e-14
1.01301e-13
9.85598e-14
7.78058e-14
8.1332e-14
6.24408e-14
5.98659e-14
4.91369e-14
4.66047e-14
3.33338e-14
2.15448e-14
1.57914e-14
1.68805e-14
1.52383e-14
2.31582e-14
2.15942e-14
2.93552e-14
2.68957e-14
2.96886e-14
3.89148e-14
3.73011e-14
3.26636e-14
3.85027e-14
3.44348e-14
4.00611e-14
3.27133e-14
3.36106e-14
3.66674e-14
4.29049e-14
3.88636e-14
4.0569e-14
5.15579e-14
5.32282e-14
5.21149e-14
5.64214e-14
4.75632e-14
5.60345e-14
5.91657e-14
6.54762e-14
5.66119e-14
4.28147e-14
4.39143e-14
4.415e-14
4.41586e-14
4.20139e-14
4.83817e-14
4.77144e-14
5.33208e-14
5.19764e-14
5.71923e-14
4.40912e-14
4.82444e-14
5.93775e-14
5.33687e-14
5.86105e-14
5.92168e-14
6.2997e-14
8.1239e-14
9.52868e-14
8.73465e-14
8.43835e-14
9.15257e-14
8.15961e-14
8.41274e-14
5.86925e-14
4.36438e-14
2.94372e-14
4.71836e-14
2.78276e-14
2.08673e-14
3.20402e-14
4.02733e-14
5.38557e-14
5.57761e-14
5.24231e-14
3.79963e-14
3.99766e-14
2.85564e-14
2.98924e-14
3.05426e-14
2.45862e-14
3.05684e-14
3.91597e-14
4.31575e-14
5.26129e-14
4.68609e-14
5.17539e-14
4.8727e-14
4.66265e-14
4.19611e-14
3.91668e-14
3.79712e-14
4.07695e-14
3.28438e-14
4.15504e-14
4.26956e-14
5.13939e-14
6.82237e-14
8.44581e-14
8.89441e-14
8.45438e-14
7.02483e-14
6.91657e-14
6.23531e-14
6.766e-14
5.8631e-14
5.08485e-14
5.23883e-14
4.32391e-14
2.87378e-14
3.62747e-14
3.39143e-14
4.28581e-14
4.36781e-14
4.99585e-14
4.6237e-14
4.15013e-14
4.7316e-14
4.78699e-14
4.92816e-14
5.48766e-14
5.37003e-14
5.33e-14
4.79227e-14
5.02606e-14
4.2971e-14
3.96389e-14
3.91489e-14
5.12846e-14
5.05194e-14
6.14353e-14
6.81753e-14
6.75109e-14
6.6071e-14
7.40078e-14
6.443e-14
6.06314e-14
6.79927e-14
6.28534e-14
6.08109e-14
5.05834e-14
5.73672e-14
4.85722e-14
4.92871e-14
4.39915e-14
5.52974e-14
5.69357e-14
6.013e-14
5.51537e-14
5.03115e-14
4.99575e-14
5.86978e-14
5.86582e-14
6.85858e-14
7.17962e-14
8.1956e-14
7.88489e-14
7.45511e-14
7.54616e-14
7.9219e-14
7.48862e-14
7.36096e-14
5.03966e-14
4.3422e-14
3.79642e-14
4.80422e-14
4.74433e-14
4.58202e-14
5.39504e-14
5.91109e-14
6.36574e-14
6.09344e-14
6.47946e-14
6.07902e-14
5.84287e-14
5.21104e-14
5.04525e-14
4.96011e-14
4.72208e-14
4.46831e-14
5.07196e-14
5.42571e-14
5.88718e-14
5.79234e-14
5.47437e-14
5.00775e-14
5.87432e-14
5.89404e-14
5.79052e-14
5.93459e-14
6.50276e-14
5.95951e-14
6.58502e-14
6.17942e-14
6.58608e-14
7.11312e-14
7.98312e-14
7.31822e-14
7.29167e-14
6.97564e-14
6.96981e-14
6.32184e-14
6.78861e-14
6.86366e-14
6.61258e-14
6.08697e-14
6.41102e-14
5.34303e-14
5.61054e-14
5.94905e-14
6.06897e-14
5.97849e-14
6.15027e-14
6.09183e-14
6.28444e-14
6.14969e-14
6.5876e-14
7.01521e-14
7.47612e-14
6.99491e-14
6.41423e-14
5.77949e-14
6.44644e-14
5.75677e-14
6.31209e-14
6.20169e-14
6.73273e-14
6.83715e-14
7.52826e-14
8.09645e-14
8.55913e-14
8.12161e-14
7.58455e-14
8.04725e-14
8.16874e-14
8.26414e-14
7.37225e-14
7.55856e-14
6.72434e-14
7.079e-14
6.50282e-14
6.48089e-14
6.19528e-14
6.23053e-14
5.971e-14
6.59932e-14
6.41697e-14
6.60198e-14
6.4871e-14
6.92676e-14
7.52185e-14
8.5874e-14
8.86341e-14
9.09668e-14
8.39405e-14
8.188e-14
8.60256e-14
8.41222e-14
8.44303e-14
7.80677e-14
6.30515e-14
5.60156e-14
5.18084e-14
4.96223e-14
4.49721e-14
5.42455e-14
5.87716e-14
5.78315e-14
5.60464e-14
5.87868e-14
6.05063e-14
6.03916e-14
5.441e-14
5.30886e-14
5.31996e-14
5.89794e-14
5.19078e-14
5.15208e-14
5.45345e-14
5.59379e-14
5.16016e-14
5.92362e-14
5.88125e-14
5.48321e-14
5.91616e-14
6.29083e-14
5.98255e-14
6.24274e-14
6.2103e-14
6.52876e-14
6.75421e-14
6.8171e-14
7.00687e-14
6.67273e-14
6.69585e-14
6.74577e-14
5.98037e-14
6.09479e-14
5.71846e-14
5.63137e-14
5.12456e-14
5.89911e-14
6.14346e-14
6.15483e-14
6.18676e-14
6.24835e-14
5.60089e-14
6.18432e-14
5.99699e-14
6.33024e-14
6.35448e-14
6.58528e-14
6.89686e-14
6.81487e-14
6.97106e-14
7.34414e-14
7.30851e-14
6.96172e-14
6.0469e-14
5.87428e-14
6.23687e-14
6.08713e-14
6.12521e-14
6.50114e-14
6.66978e-14
6.63901e-14
7.02145e-14
7.4643e-14
7.58139e-14
7.46652e-14
6.84328e-14
7.36538e-14
7.28383e-14
7.51917e-14
6.72025e-14
6.33095e-14
6.48531e-14
6.24256e-14
5.60555e-14
5.17433e-14
5.06036e-14
5.54675e-14
6.2442e-14
6.26912e-14
6.8848e-14
7.02694e-14
6.88621e-14
7.09741e-14
7.07901e-14
7.74892e-14
7.98921e-14
7.66285e-14
7.22923e-14
6.89961e-14
7.15215e-14
6.95385e-14
7.303e-14
6.69595e-14
6.1281e-14
5.20812e-14
5.51165e-14
5.10337e-14
3.52451e-14
4.99178e-14
4.6088e-14
4.05147e-14
4.12229e-14
4.77645e-14
4.19679e-14
3.92632e-14
3.53843e-14
3.97042e-14
3.94213e-14
4.20536e-14
3.33783e-14
3.9001e-14
4.15701e-14
3.74793e-14
3.24447e-14
4.16735e-14
4.05797e-14
4.68304e-14
4.6092e-14
5.11951e-14
4.66572e-14
4.36443e-14
4.49339e-14
4.72643e-14
4.74307e-14
5.066e-14
4.86525e-14
4.82519e-14
4.28873e-14
4.97476e-14
3.74247e-14
4.18615e-14
4.06403e-14
3.82816e-14
2.9584e-14
3.81903e-14
3.80279e-14
4.74182e-14
4.09361e-14
4.78189e-14
4.27674e-14
4.53219e-14
4.39713e-14
5.15722e-14
4.77365e-14
5.53808e-14
5.49897e-14
6.07201e-14
6.28687e-14
7.08051e-14
6.25531e-14
5.20239e-14
4.29904e-14
4.53381e-14
4.02673e-14
4.17222e-14
4.07912e-14
4.68422e-14
4.98398e-14
4.37512e-14
4.52318e-14
5.40156e-14
5.33194e-14
5.60058e-14
5.32735e-14
4.96837e-14
4.81043e-14
4.83661e-14
4.89465e-14
4.40478e-14
5.21117e-14
4.36254e-14
3.52488e-14
3.71863e-14
3.34465e-14
3.92963e-14
4.24155e-14
4.0068e-14
4.72527e-14
4.96289e-14
5.11241e-14
5.04085e-14
4.51386e-14
4.53828e-14
5.08826e-14
5.14249e-14
5.09322e-14
4.3741e-14
3.89869e-14
4.01096e-14
4.1671e-14
4.19726e-14
3.99354e-14
3.3573e-14
3.76506e-14
3.29835e-14
3.97336e-14
4.98462e-14
3.93767e-14
2.81387e-14
2.77514e-14
2.43861e-14
2.24121e-14
2.57663e-14
2.72638e-14
3.0662e-14
3.05114e-14
3.11199e-14
3.15907e-14
3.0049e-14
2.85438e-14
1.72629e-14
2.33045e-14
2.25288e-14
2.13062e-14
2.57374e-14
3.21119e-14
3.3864e-14
3.61562e-14
2.78811e-14
2.80647e-14
2.93558e-14
2.8891e-14
3.7056e-14
3.46213e-14
3.16038e-14
2.75633e-14
3.5351e-14
4.25217e-14
3.36056e-14
2.87311e-14
2.5267e-14
2.93577e-14
2.95846e-14
3.23702e-14
2.91549e-14
3.67425e-14
3.99847e-14
3.93517e-14
3.2799e-14
3.84515e-14
4.46054e-14
4.82935e-14
5.58676e-14
6.14697e-14
5.8413e-14
6.13664e-14
6.24825e-14
5.54598e-14
4.08055e-14
3.48402e-14
3.30338e-14
3.69701e-14
3.48405e-14
4.25685e-14
3.63899e-14
3.70999e-14
3.42137e-14
3.7946e-14
3.68893e-14
2.99841e-14
3.4325e-14
3.76905e-14
3.42888e-14
3.12887e-14
3.4294e-14
3.39529e-14
4.13344e-14
3.30199e-14
3.12342e-14
2.73496e-14
3.14441e-14
3.31082e-14
2.94719e-14
2.64839e-14
2.14804e-14
2.73515e-14
2.45537e-14
2.66973e-14
2.74415e-14
2.79234e-14
3.43005e-14
3.64339e-14
3.22447e-14
2.771e-14
2.97535e-14
2.59751e-14
2.49705e-14
1.82903e-14
2.35348e-14
2.33224e-14
1.73925e-14
1.71305e-14
1.96552e-14
2.861e-14
3.54525e-14
2.68836e-14
1.77846e-14
1.04418e-14
1.04214e-14
1.28566e-14
1.9092e-14
1.88795e-14
2.36652e-14
3.48758e-14
3.09647e-14
2.86005e-14
2.54558e-14
1.95615e-14
1.12779e-14
1.27925e-14
8.44836e-15
1.05124e-14
1.52754e-14
1.4961e-14
2.133e-14
2.27154e-14
2.04768e-14
1.7945e-14
1.81184e-14
1.12711e-14
2.11304e-14
3.03199e-14
3.4378e-14
3.42363e-14
4.32485e-14
5.05465e-14
4.83876e-14
4.05591e-14
3.91681e-14
3.23412e-14
2.24932e-14
2.8786e-14
2.72801e-14
2.87187e-14
3.14653e-14
3.40107e-14
2.86492e-14
3.28289e-14
4.57337e-14
5.90704e-14
5.84891e-14
6.58773e-14
6.13402e-14
5.99216e-14
5.81795e-14
4.99117e-14
4.29189e-14
3.07694e-14
3.38035e-14
3.56623e-14
3.34364e-14
3.19546e-14
2.92068e-14
2.87505e-14
2.93708e-14
3.15153e-14
1.47883e-14
1.5211e-14
2.31174e-14
2.76291e-14
2.70497e-14
2.39934e-14
2.89676e-14
2.846e-14
2.8792e-14
1.82125e-14
1.51243e-14
1.75951e-14
1.41666e-14
1.80298e-14
1.52304e-14
1.07135e-14
5.42118e-15
6.21457e-15
6.78867e-15
1.42601e-14
1.52419e-14
1.39871e-14
2.01942e-14
2.45332e-14
1.60032e-14
9.81856e-15
1.06517e-14
1.83102e-14
1.52472e-14
2.20007e-14
1.68099e-14
1.37647e-14
1.61169e-14
2.03384e-14
3.46017e-14
1.69101e-14
1.9994e-14
1.30197e-14
9.42758e-15
1.29291e-14
1.33066e-14
1.39765e-14
1.84283e-14
1.72012e-14
2.49826e-14
3.75277e-14
3.14536e-14
2.01699e-14
1.69642e-14
2.11589e-14
1.00624e-14
7.00187e-15
1.52096e-14
1.96162e-14
1.45438e-14
8.94258e-15
1.72124e-14
2.33706e-14
2.55681e-14
2.28765e-14
2.81599e-14
1.44837e-14
1.69893e-14
2.42165e-14
3.31339e-14
4.52283e-14
5.65949e-14
7.69609e-14
8.21998e-14
8.54599e-14
8.2642e-14
6.1691e-14
2.90797e-14
2.61896e-14
3.64973e-14
4.03118e-14
3.33551e-14
3.01854e-14
3.29797e-14
3.2421e-14
4.38467e-14
5.28394e-14
5.67035e-14
6.07588e-14
6.31763e-14
6.18704e-14
6.2265e-14
5.09776e-14
4.4687e-14
3.27621e-14
3.13155e-14
3.3604e-14
3.2806e-14
2.46225e-14
2.52452e-14
2.91191e-14
1.94388e-14
2.31459e-14
2.3052e-14
1.82797e-14
1.93678e-14
2.3311e-14
1.94454e-14
1.92328e-14
2.12862e-14
2.83807e-14
1.63717e-14
1.63027e-14
2.31742e-14
2.59325e-14
2.66903e-14
2.57084e-14
2.51474e-14
1.96736e-14
1.29974e-14
6.77854e-15
1.38222e-14
2.51494e-14
1.5299e-14
1.49422e-14
1.8756e-14
1.7805e-14
3.13596e-15
1.23694e-14
1.64809e-14
2.66806e-14
3.28549e-14
3.53307e-14
2.85398e-14
2.1483e-14
2.19156e-14
3.51056e-14
5.20209e-14
2.88797e-14
2.21495e-14
2.10368e-14
1.76166e-14
2.2903e-14
1.27163e-14
1.73903e-14
2.42155e-14
2.20212e-14
2.64434e-14
3.84789e-14
3.17176e-14
2.50522e-14
2.88912e-14
2.97126e-14
2.23813e-14
2.40844e-14
2.61541e-14
3.16593e-14
2.10574e-14
1.97758e-14
1.65292e-14
2.80376e-14
3.29547e-14
3.3631e-14
3.59203e-14
3.94699e-14
3.21893e-14
4.23436e-14
3.96713e-14
5.18356e-14
7.28406e-14
9.94435e-14
1.08695e-13
1.1653e-13
1.06029e-13
7.92996e-14
4.31019e-14
3.88628e-14
4.53833e-14
6.11418e-14
5.13292e-14
4.56044e-14
4.41164e-14
4.70889e-14
4.64214e-14
5.44163e-14
6.02168e-14
6.75304e-14
7.00712e-14
6.49749e-14
6.27222e-14
5.85146e-14
4.8472e-14
4.13337e-14
4.03641e-14
4.68488e-14
3.96774e-14
3.81152e-14
4.15397e-14
3.88108e-14
3.83962e-14
4.26353e-14
4.23193e-14
4.37626e-14
3.97113e-14
4.42707e-14
3.9519e-14
4.11593e-14
4.13392e-14
4.51483e-14
3.7908e-14
3.02852e-14
4.1367e-14
4.1831e-14
4.37743e-14
4.0399e-14
4.39398e-14
3.75942e-14
3.76937e-14
2.87622e-14
3.8418e-14
3.60576e-14
2.76493e-14
3.05368e-14
3.58484e-14
3.29063e-14
2.43484e-14
2.32772e-14
2.85269e-14
3.39899e-14
3.59878e-14
3.9177e-14
3.44195e-14
2.89079e-14
2.66441e-14
3.71055e-14
5.44498e-14
3.62e-14
3.14087e-14
3.45298e-14
3.30169e-14
3.0382e-14
2.30039e-14
2.7129e-14
2.05108e-14
2.1301e-14
2.7576e-14
2.96242e-14
3.42583e-14
3.6823e-14
3.06333e-14
3.45306e-14
4.00802e-14
4.07744e-14
3.41842e-14
3.5822e-14
2.29409e-14
2.40357e-14
2.39717e-14
2.75693e-14
2.69008e-14
3.30207e-14
2.9147e-14
4.2558e-14
4.6013e-14
5.41533e-14
5.53559e-14
6.46725e-14
7.79298e-14
1.05387e-13
1.195e-13
1.26205e-13
1.11813e-13
8.56299e-14
4.97429e-14
5.06017e-14
5.14561e-14
6.8048e-14
6.46545e-14
6.03588e-14
5.75833e-14
6.04954e-14
6.12191e-14
6.26634e-14
6.27092e-14
6.6365e-14
5.82623e-14
5.48178e-14
5.1359e-14
5.01417e-14
4.24527e-14
4.34135e-14
4.9088e-14
4.80044e-14
4.73058e-14
5.16436e-14
5.0173e-14
5.1089e-14
5.42348e-14
4.90187e-14
4.03742e-14
4.31335e-14
4.42059e-14
4.3104e-14
4.57232e-14
4.8015e-14
4.40263e-14
4.27816e-14
5.41264e-14
5.27819e-14
5.74225e-14
4.96164e-14
5.18525e-14
4.7095e-14
4.75258e-14
4.4819e-14
4.58888e-14
4.49407e-14
4.78713e-14
3.77488e-14
3.65153e-14
3.77756e-14
3.38201e-14
2.70925e-14
3.5011e-14
3.73973e-14
4.43436e-14
4.01312e-14
4.31146e-14
4.50892e-14
3.89238e-14
3.92185e-14
3.6889e-14
3.63323e-14
4.12373e-14
1.09417e-14
1.1168e-14
1.6155e-14
2.04983e-14
1.94419e-14
1.56035e-14
1.00412e-14
6.52916e-15
5.84903e-15
1.19211e-14
1.9114e-14
2.16862e-14
2.14761e-14
1.31551e-14
2.07269e-14
2.67092e-14
1.90836e-14
1.97422e-14
2.11989e-14
1.52818e-14
1.78219e-14
2.13988e-14
2.33173e-14
1.81429e-14
1.4826e-14
1.31159e-14
2.90898e-14
4.36029e-14
4.66032e-14
5.13347e-14
6.58599e-14
9.12466e-14
1.15733e-13
1.28364e-13
1.26479e-13
1.09093e-13
8.12384e-14
4.25198e-14
3.47821e-14
4.36583e-14
4.54249e-14
4.48466e-14
3.99814e-14
3.95495e-14
3.73559e-14
4.24263e-14
3.92936e-14
4.34057e-14
4.11737e-14
3.8167e-14
3.81446e-14
3.7132e-14
3.1617e-14
2.70836e-14
3.05976e-14
3.62876e-14
3.04461e-14
2.85389e-14
2.79486e-14
2.86542e-14
3.1419e-14
2.67318e-14
1.84536e-14
1.34029e-14
1.44572e-14
1.85662e-14
1.48436e-14
1.78526e-14
2.11174e-14
1.71888e-14
2.10552e-14
3.34193e-14
4.02561e-14
4.24502e-14
3.97117e-14
3.35954e-14
3.07081e-14
2.99755e-14
3.53113e-14
3.33859e-14
3.2293e-14
2.05598e-14
1.65328e-14
1.27821e-14
1.31461e-14
8.24296e-15
8.90444e-15
1.52036e-14
2.60093e-14
3.31259e-14
3.22904e-14
2.99892e-14
3.23776e-14
2.63863e-14
2.95404e-14
2.74264e-14
2.82825e-14
2.67235e-14
1.7142e-14
2.02502e-14
2.44316e-14
2.31104e-14
2.13624e-14
1.74719e-14
2.25303e-14
9.98272e-15
1.08446e-14
1.62862e-14
1.78497e-14
1.84992e-14
2.32613e-14
1.78224e-14
9.39692e-15
6.94622e-15
1.56097e-14
2.47084e-14
2.28037e-14
1.67181e-14
1.69193e-14
2.32914e-14
2.95308e-14
3.02138e-14
1.6031e-14
9.01065e-15
2.55584e-14
3.42127e-14
3.93787e-14
4.65373e-14
6.69904e-14
1.0126e-13
1.35128e-13
1.48914e-13
1.37884e-13
1.08583e-13
6.91245e-14
3.80637e-14
1.62553e-14
2.26451e-14
2.45017e-14
2.38396e-14
2.52759e-14
2.76105e-14
2.4308e-14
2.21794e-14
2.26305e-14
2.28386e-14
2.92894e-14
3.76717e-14
4.21623e-14
3.89029e-14
3.57157e-14
2.74579e-14
2.36135e-14
2.42718e-14
2.45619e-14
2.47592e-14
2.81904e-14
2.08896e-14
1.73455e-14
1.01248e-14
1.10263e-14
1.07504e-14
1.38391e-14
1.24309e-14
1.80469e-14
1.92716e-14
1.28453e-14
1.19597e-14
1.47517e-14
2.34307e-14
2.68305e-14
3.42562e-14
3.7446e-14
3.64871e-14
3.49889e-14
3.00946e-14
2.38197e-14
2.16154e-14
1.46694e-14
1.34449e-14
1.16038e-14
1.41328e-14
1.50713e-14
2.34049e-14
2.70085e-14
2.72947e-14
3.239e-14
3.56997e-14
4.13507e-14
4.43642e-14
4.27532e-14
4.49289e-14
4.5522e-14
4.42643e-14
4.18804e-14
3.85907e-14
3.3274e-14
3.21711e-14
3.34075e-14
2.81073e-14
2.80835e-14
3.97493e-14
3.48686e-14
2.80115e-14
2.03524e-14
1.73913e-14
2.35608e-14
3.00731e-14
3.46145e-14
3.61433e-14
2.81187e-14
2.65383e-14
2.695e-14
3.34018e-14
3.19182e-14
2.14011e-14
2.16879e-14
3.07323e-14
4.18328e-14
3.30208e-14
1.93277e-14
1.80621e-14
2.8157e-14
3.83802e-14
4.84297e-14
5.67801e-14
7.70697e-14
1.10115e-13
1.38159e-13
1.55784e-13
1.43615e-13
1.11185e-13
6.27292e-14
3.6052e-14
1.71554e-14
1.89218e-14
2.14463e-14
2.48427e-14
3.61132e-14
3.65505e-14
3.07982e-14
3.43295e-14
3.3034e-14
3.40134e-14
4.07309e-14
4.36996e-14
4.3037e-14
3.84244e-14
3.80676e-14
3.96877e-14
3.82604e-14
3.98372e-14
3.75493e-14
2.83077e-14
2.96888e-14
3.63488e-14
3.52793e-14
2.98189e-14
1.93204e-14
1.64811e-14
1.9752e-14
2.35004e-14
2.76135e-14
2.84733e-14
2.44936e-14
2.14179e-14
1.76998e-14
1.917e-14
1.89166e-14
3.00207e-14
4.28042e-14
4.26674e-14
4.10594e-14
3.53903e-14
3.17657e-14
2.2713e-14
1.79339e-14
1.87574e-14
1.8555e-14
1.73664e-14
2.89417e-14
3.95525e-14
4.72381e-14
4.04029e-14
3.89741e-14
3.5671e-14
4.27835e-14
4.61018e-14
5.0028e-14
5.64051e-14
6.03616e-14
6.07489e-14
6.28196e-14
5.91671e-14
3.79336e-14
3.55036e-14
3.75573e-14
3.25018e-14
3.10409e-14
2.59479e-14
1.61976e-14
2.0973e-14
1.87558e-14
2.48808e-14
2.48288e-14
2.00054e-14
1.5906e-14
2.67766e-14
2.78679e-14
2.48309e-14
2.81473e-14
3.22105e-14
3.69902e-14
3.74327e-14
2.84026e-14
4.56429e-14
5.23855e-14
4.1813e-14
3.02914e-14
2.22294e-14
1.88541e-14
3.99506e-14
5.58994e-14
5.2734e-14
6.90406e-14
1.00204e-13
1.38358e-13
1.57921e-13
1.44864e-13
1.03475e-13
4.91503e-14
1.71565e-14
1.9292e-14
2.98655e-14
3.19018e-14
3.90825e-14
4.5993e-14
3.57948e-14
3.74083e-14
4.19387e-14
3.83123e-14
4.07266e-14
3.80306e-14
3.67033e-14
3.9057e-14
4.60271e-14
4.43168e-14
4.18281e-14
3.90569e-14
3.51178e-14
4.02908e-14
3.3274e-14
1.60726e-14
2.66228e-14
3.05006e-14
3.33689e-14
2.6827e-14
2.29626e-14
2.23474e-14
2.93857e-14
2.66546e-14
2.88996e-14
3.04396e-14
2.22802e-14
2.27318e-14
1.84101e-14
2.41948e-14
3.61023e-14
3.56476e-14
3.04316e-14
3.28902e-14
3.23392e-14
2.63168e-14
2.59387e-14
2.47613e-14
2.2196e-14
2.08392e-14
2.20992e-14
3.08311e-14
3.05337e-14
3.77075e-14
4.19047e-14
3.35876e-14
3.82538e-14
4.58346e-14
4.84301e-14
5.15834e-14
5.33147e-14
5.65276e-14
6.16058e-14
6.3568e-14
6.15702e-14
5.52198e-15
1.76096e-14
1.94746e-14
1.4696e-14
1.50955e-14
1.32327e-14
1.54048e-14
1.49874e-14
1.29104e-14
1.59362e-14
5.90098e-15
1.93844e-14
2.18668e-14
2.08886e-14
1.9453e-14
2.21462e-14
2.41156e-14
2.45706e-14
2.52237e-14
2.15211e-14
3.01501e-14
3.20166e-14
3.13468e-14
2.83036e-14
2.13587e-14
2.31131e-14
8.29316e-15
1.71998e-14
2.00962e-14
2.95224e-14
3.83939e-14
6.42261e-14
9.14549e-14
1.0845e-13
1.00061e-13
7.41104e-14
3.29606e-14
3.25374e-14
5.1065e-14
5.69356e-14
4.75392e-14
4.77122e-14
4.68587e-14
4.46559e-14
3.7571e-14
3.16629e-14
2.8988e-14
2.71417e-14
2.61965e-14
2.40725e-14
1.87064e-14
1.97568e-14
2.37444e-14
2.69935e-14
2.5503e-14
2.12556e-14
3.32989e-14
4.81289e-14
4.71114e-14
5.33708e-14
6.15369e-14
5.23111e-14
3.20747e-14
2.6651e-14
1.64009e-14
1.45468e-14
6.86954e-15
9.82037e-15
1.86269e-14
7.72096e-15
7.3957e-15
1.20475e-14
1.19094e-14
2.33106e-14
2.64035e-14
2.46161e-14
2.2702e-14
2.23798e-14
1.78187e-14
1.97179e-14
1.60543e-14
3.92665e-15
9.87427e-15
5.2991e-15
7.26559e-15
1.20226e-14
1.53331e-14
1.7057e-14
1.81064e-14
2.52854e-14
3.0453e-14
3.24841e-14
3.74599e-14
3.49083e-14
4.04566e-14
4.71697e-14
5.15687e-14
5.23662e-14
4.2582e-14
4.56944e-14
4.60799e-14
4.3926e-14
4.73076e-14
4.14166e-14
3.99229e-14
3.52111e-14
3.87518e-14
4.47988e-14
4.39718e-14
5.1074e-14
4.44572e-14
5.06789e-14
5.43117e-14
5.65589e-14
5.75421e-14
5.61394e-14
5.10638e-14
4.85124e-14
4.41382e-14
4.91111e-14
5.14669e-14
5.22047e-14
5.37964e-14
4.6217e-14
3.70136e-14
3.99777e-14
4.39848e-14
3.92893e-14
4.37168e-14
5.2593e-14
6.59648e-14
7.58657e-14
8.03361e-14
7.52904e-14
6.37839e-14
6.04296e-14
6.90841e-14
6.47265e-14
5.86324e-14
6.38387e-14
6.26943e-14
6.69451e-14
6.59141e-14
6.53404e-14
5.96219e-14
5.74053e-14
5.32176e-14
5.09263e-14
4.42715e-14
4.19304e-14
4.07813e-14
4.84603e-14
4.86464e-14
5.58743e-14
6.45774e-14
6.90847e-14
6.06085e-14
6.56803e-14
5.58124e-14
4.67654e-14
3.69746e-14
3.55382e-14
3.42399e-14
3.71452e-14
3.65487e-14
4.10747e-14
3.94492e-14
4.01012e-14
4.33697e-14
4.63378e-14
4.77641e-14
4.87875e-14
5.46141e-14
5.16648e-14
5.58634e-14
5.84893e-14
5.3527e-14
4.58678e-14
4.55496e-14
4.12597e-14
4.39145e-14
4.54691e-14
4.51581e-14
4.71279e-14
4.91194e-14
5.53793e-14
5.7587e-14
5.68864e-14
5.92366e-14
5.68779e-14
5.3689e-14
5.66429e-14
5.94953e-14
6.37648e-14
6.23142e-14
6.25249e-14
5.87124e-14
6.15721e-14
4.90942e-14
4.58108e-14
5.30506e-14
6.18924e-14
5.64338e-14
5.2428e-14
5.31567e-14
5.37091e-14
5.4844e-14
5.56902e-14
4.8936e-14
5.0823e-14
5.31037e-14
5.53032e-14
5.43931e-14
5.23872e-14
4.62836e-14
5.21529e-14
4.79338e-14
5.31413e-14
4.75409e-14
4.83618e-14
4.66984e-14
4.88728e-14
5.35936e-14
5.46603e-14
4.96908e-14
5.56126e-14
5.65269e-14
5.20813e-14
5.90875e-14
6.40187e-14
6.56842e-14
6.55802e-14
6.1411e-14
5.91007e-14
6.64222e-14
6.58442e-14
6.57971e-14
7.64859e-14
7.47618e-14
7.89708e-14
7.96181e-14
8.31488e-14
7.67449e-14
7.26977e-14
6.72664e-14
6.78124e-14
6.08408e-14
6.05377e-14
6.24967e-14
6.9312e-14
6.72113e-14
7.1915e-14
6.89623e-14
6.88172e-14
5.86621e-14
6.16073e-14
5.04401e-14
4.98991e-14
4.56634e-14
4.98255e-14
4.91883e-14
4.99593e-14
4.57416e-14
5.09084e-14
5.31121e-14
4.98135e-14
4.73514e-14
4.13169e-14
4.66998e-14
4.7697e-14
6.14167e-14
6.41204e-14
6.57686e-14
6.58089e-14
7.18905e-14
6.39437e-14
6.42937e-14
5.55934e-14
5.6458e-14
4.86795e-14
5.31899e-14
5.11518e-14
5.6538e-14
5.57402e-14
5.35371e-14
5.04333e-14
5.16744e-14
4.56453e-14
4.7469e-14
5.2607e-14
5.35814e-14
5.28256e-14
5.92914e-14
5.76212e-14
4.31251e-14
3.87508e-14
2.74999e-14
2.99133e-14
3.4946e-14
3.87781e-14
4.00342e-14
4.0232e-14
3.42073e-14
3.40756e-14
3.54015e-14
3.75764e-14
3.82279e-14
3.76945e-14
3.95399e-14
3.69507e-14
3.58502e-14
3.416e-14
3.93423e-14
4.10801e-14
4.38818e-14
4.16378e-14
3.71469e-14
3.34989e-14
3.74504e-14
3.99022e-14
4.33969e-14
4.21906e-14
4.03234e-14
4.14069e-14
4.30998e-14
4.0278e-14
4.14733e-14
3.76534e-14
3.74389e-14
3.99392e-14
4.41618e-14
4.91207e-14
5.25471e-14
5.7526e-14
5.74214e-14
6.25418e-14
6.20835e-14
6.26118e-14
6.59249e-14
6.68789e-14
6.89455e-14
6.09793e-14
5.4209e-14
5.25347e-14
5.40489e-14
5.65983e-14
6.49213e-14
6.13781e-14
6.52817e-14
6.20569e-14
5.84204e-14
4.96866e-14
4.18492e-14
3.98732e-14
3.56699e-14
3.99592e-14
4.02171e-14
4.48733e-14
4.81177e-14
4.95551e-14
4.34895e-14
4.49854e-14
4.56012e-14
4.14837e-14
3.30501e-14
3.15067e-14
3.20019e-14
3.30867e-14
3.77892e-14
4.68128e-14
4.75243e-14
4.84496e-14
4.80168e-14
5.10095e-14
4.4324e-14
3.85364e-14
3.45158e-14
3.10884e-14
3.43705e-14
3.41912e-14
3.77077e-14
3.53687e-14
3.21149e-14
2.65986e-14
2.39232e-14
2.083e-14
2.65745e-14
2.44734e-14
2.54081e-14
2.24576e-14
3.20238e-14
3.37491e-14
2.14061e-14
1.68336e-14
2.21764e-14
2.18463e-14
1.72097e-14
2.1718e-14
1.94928e-14
1.43495e-14
1.19397e-14
1.78935e-14
2.89238e-14
2.86752e-14
2.80662e-14
2.97718e-14
2.79482e-14
2.47711e-14
1.91654e-14
1.91703e-14
2.01205e-14
1.82548e-14
1.84396e-14
2.24944e-14
2.60414e-14
2.1803e-14
2.24601e-14
1.59183e-14
1.28026e-14
1.31216e-14
1.28873e-14
1.10698e-14
1.02623e-14
1.56903e-14
1.62767e-14
1.3759e-14
2.20462e-14
3.00593e-14
3.13946e-14
3.84271e-14
3.81628e-14
4.09256e-14
4.08592e-14
4.23077e-14
4.14288e-14
3.35393e-14
3.91678e-14
4.13456e-14
4.04595e-14
4.86673e-14
4.4934e-14
3.94587e-14
3.84979e-14
4.6407e-14
5.00421e-14
4.6143e-14
4.30406e-14
3.5287e-14
2.70147e-14
2.1478e-14
2.23113e-14
2.22188e-14
2.52483e-14
3.29335e-14
3.81391e-14
3.85643e-14
4.30099e-14
5.11343e-14
5.4891e-14
4.87734e-14
3.82934e-14
3.15569e-14
3.45328e-14
3.50389e-14
3.58916e-14
3.03725e-14
2.4545e-14
2.26255e-14
2.3173e-14
2.76595e-14
2.67049e-14
2.89116e-14
3.15222e-14
2.02362e-14
1.51001e-14
1.45169e-14
1.38479e-14
1.76544e-14
1.61641e-14
1.78228e-14
1.36972e-14
1.90453e-14