/*--------------------------------*- C++ -*----------------------------------*\
| =========                 |                                                 |
| \\      /  F ield         | OpenFOAM: The Open Source CFD Toolbox           |
|  \\    /   O peration     | Version:  2406                                  |
|   \\  /    A nd           | Website:  www.openfoam.com                      |
|    \\/     M anipulation  |                                                 |
\*---------------------------------------------------------------------------*/
FoamFile
{
    version     2.0;
    format      ascii;
    arch        "LSB;label=32;scalar=64";
    class       volScalarField;
    location    "0.1";
    object      Ma;
}
// * * * * * * * * * * * * * * * * * * * * * * * * * * * * * * * * * * * * * //

dimensions      [0 0 0 0 0 0 0];

internalField   nonuniform List<scalar> 
13946
(
7.68487e-14
7.98407e-14
8.047e-14
7.41117e-14
7.94779e-14
7.98075e-14
8.1334e-14
7.56812e-14
8.01187e-14
7.96734e-14
8.52184e-14
8.39165e-14
8.87418e-14
8.60592e-14
8.34472e-14
7.85991e-14
7.99787e-14
8.28801e-14
8.34264e-14
8.66792e-14
8.68083e-14
8.53223e-14
9.011e-14
9.24644e-14
9.9144e-14
9.05498e-14
8.99302e-14
8.71043e-14
7.99007e-14
7.88813e-14
7.5407e-14
7.46205e-14
7.38247e-14
7.22391e-14
6.88358e-14
6.61197e-14
6.74556e-14
7.01525e-14
7.71724e-14
7.19434e-14
7.8747e-14
8.06247e-14
7.73728e-14
6.88307e-14
6.82713e-14
7.89912e-14
8.43977e-14
9.88078e-14
1.02383e-13
1.00652e-13
9.88975e-14
1.02141e-13
9.90652e-14
9.62802e-14
9.86187e-14
1.01752e-13
1.02585e-13
9.6361e-14
8.36022e-14
7.53369e-14
7.70368e-14
7.46129e-14
6.813e-14
7.1778e-14
6.83417e-14
7.32532e-14
7.24275e-14
7.01701e-14
6.7156e-14
6.9454e-14
6.79455e-14
6.94647e-14
7.1688e-14
6.63424e-14
6.59108e-14
7.24234e-14
7.93654e-14
7.10689e-14
7.24231e-14
6.35821e-14
6.34225e-14
6.01104e-14
6.07012e-14
6.68162e-14
6.46715e-14
6.14317e-14
6.32361e-14
6.92468e-14
6.31026e-14
6.04996e-14
6.40285e-14
7.0345e-14
7.90428e-14
8.20405e-14
7.91858e-14
8.14625e-14
9.17242e-14
9.75994e-14
9.74533e-14
8.75283e-14
9.14831e-14
9.55839e-14
1.01242e-13
1.01421e-13
1.02676e-13
9.77595e-14
9.31592e-14
8.95869e-14
8.86402e-14
9.51949e-14
9.70125e-14
1.0001e-13
9.67496e-14
9.79447e-14
9.8742e-14
9.7869e-14
1.02667e-13
9.81395e-14
9.6776e-14
9.88291e-14
8.89149e-14
8.11716e-14
7.5115e-14
8.00641e-14
8.4666e-14
8.73373e-14
7.98301e-14
7.56959e-14
7.08556e-14
7.5821e-14
9.14312e-14
8.81345e-14
9.27697e-14
9.03753e-14
8.20387e-14
7.66593e-14
7.68749e-14
8.34485e-14
8.97102e-14
1.08349e-13
1.17041e-13
1.20042e-13
1.21072e-13
1.21569e-13
1.22109e-13
1.20984e-13
1.23408e-13
1.22593e-13
1.21173e-13
1.10437e-13
9.63597e-14
9.03056e-14
8.7356e-14
7.90678e-14
7.80138e-14
8.00595e-14
8.46616e-14
8.66828e-14
8.96495e-14
8.74695e-14
8.01541e-14
7.91647e-14
7.85194e-14
7.90207e-14
8.2964e-14
7.81597e-14
7.63692e-14
8.16802e-14
8.1111e-14
8.3417e-14
8.23319e-14
7.14799e-14
7.17242e-14
6.65807e-14
7.80761e-14
8.429e-14
7.84197e-14
7.86128e-14
7.74286e-14
8.13244e-14
7.28891e-14
7.10351e-14
7.36045e-14
6.98078e-14
8.64335e-14
8.92271e-14
8.96672e-14
8.66339e-14
9.18469e-14
9.87786e-14
9.41969e-14
8.58799e-14
9.17118e-14
1.00749e-13
1.01496e-13
1.05292e-13
1.02927e-13
9.89103e-14
9.11142e-14
8.9346e-14
9.91985e-14
1.06969e-13
1.0465e-13
1.00319e-13
1.02824e-13
9.79899e-14
1.02688e-13
1.04915e-13
1.03008e-13
1.04517e-13
1.0378e-13
1.01662e-13
1.03874e-13
9.61291e-14
8.95626e-14
9.12755e-14
9.89759e-14
1.01261e-13
9.44737e-14
9.33664e-14
8.96143e-14
9.08185e-14
9.16371e-14
9.39095e-14
9.22001e-14
9.41383e-14
9.29805e-14
9.32254e-14
9.17934e-14
9.97314e-14
1.02294e-13
1.18116e-13
1.23546e-13
1.29518e-13
1.35304e-13
1.36566e-13
1.39645e-13
1.40528e-13
1.41861e-13
1.3392e-13
1.25745e-13
1.16812e-13
1.06477e-13
9.64034e-14
9.12114e-14
9.25888e-14
9.00247e-14
9.11999e-14
9.60208e-14
9.7228e-14
1.00263e-13
9.64432e-14
9.07523e-14
9.21597e-14
8.67535e-14
9.30199e-14
9.47057e-14
8.82694e-14
8.83689e-14
8.60557e-14
8.88216e-14
9.33264e-14
9.29196e-14
8.69061e-14
8.63019e-14
8.49638e-14
9.10712e-14
9.14808e-14
8.89115e-14
9.06573e-14
8.82512e-14
8.1132e-14
7.60179e-14
7.04083e-14
7.22983e-14
6.44802e-14
7.07764e-14
8.6357e-14
9.2432e-14
9.04349e-14
8.32288e-14
7.47674e-14
7.9361e-14
6.81691e-14
6.33121e-14
7.08351e-14
7.98183e-14
8.33921e-14
9.18067e-14
8.54522e-14
8.68157e-14
8.24472e-14
8.44583e-14
9.19162e-14
9.54759e-14
9.152e-14
8.9239e-14
9.18965e-14
8.47199e-14
8.96289e-14
9.79466e-14
9.63409e-14
1.01594e-13
9.81262e-14
9.91774e-14
9.18913e-14
9.01332e-14
9.25696e-14
9.179e-14
9.44244e-14
9.18851e-14
8.71574e-14
8.51724e-14
8.19074e-14
8.52688e-14
8.39236e-14
8.04306e-14
7.64113e-14
8.37257e-14
7.97819e-14
8.52277e-14
8.54715e-14
9.05365e-14
9.87344e-14
1.16969e-13
1.21976e-13
1.29951e-13
1.33499e-13
1.40355e-13
1.45318e-13
1.50625e-13
1.46865e-13
1.38272e-13
1.22184e-13
1.07145e-13
9.57759e-14
9.24366e-14
8.30063e-14
8.03603e-14
7.92691e-14
7.94329e-14
8.06735e-14
8.29609e-14
8.75543e-14
8.78986e-14
9.10401e-14
9.07573e-14
8.79792e-14
9.0644e-14
8.7356e-14
9.27548e-14
8.88573e-14
8.41664e-14
9.00021e-14
8.91546e-14
8.95596e-14
9.25201e-14
9.04965e-14
9.04964e-14
9.16085e-14
8.81142e-14
9.02793e-14
8.53911e-14
8.15197e-14
7.03906e-14
6.21973e-14
6.33298e-14
5.63199e-14
4.88758e-14
5.08312e-14
5.62834e-14
8.12138e-14
8.88851e-14
9.1019e-14
8.33448e-14
6.78086e-14
5.72371e-14
5.55681e-14
5.66319e-14
6.05323e-14
5.68549e-14
6.20983e-14
7.21946e-14
7.74825e-14
7.78544e-14
7.57189e-14
7.89379e-14
8.0898e-14
7.9772e-14
7.73462e-14
7.58698e-14
7.64392e-14
7.62946e-14
7.76512e-14
8.8468e-14
9.43973e-14
9.00502e-14
8.30001e-14
8.62886e-14
8.09036e-14
8.8192e-14
9.54237e-14
8.80797e-14
9.04166e-14
8.90678e-14
9.10137e-14
7.80158e-14
7.57742e-14
7.70798e-14
8.09968e-14
6.69418e-14
6.57734e-14
7.63236e-14
6.53012e-14
6.04596e-14
6.11258e-14
7.19838e-14
8.44542e-14
1.04478e-13
1.18678e-13
1.29985e-13
1.43274e-13
1.41397e-13
1.43815e-13
1.43571e-13
1.41723e-13
1.38635e-13
1.24405e-13
9.95059e-14
7.84119e-14
7.70079e-14
6.85698e-14
6.10425e-14
6.56838e-14
6.74916e-14
6.58731e-14
6.70873e-14
6.81654e-14
7.5188e-14
8.49588e-14
8.87964e-14
9.20931e-14
8.50021e-14
8.72017e-14
9.36726e-14
8.60994e-14
8.3187e-14
8.91769e-14
8.68815e-14
8.85669e-14
9.07533e-14
9.21018e-14
8.63655e-14
8.45826e-14
7.40971e-14
7.3632e-14
7.02614e-14
6.25297e-14
5.86902e-14
5.17811e-14
5.41215e-14
4.71096e-14
3.89795e-14
3.89686e-14
5.23063e-14
7.38906e-14
8.92271e-14
8.79734e-14
7.91594e-14
6.82805e-14
5.39594e-14
7.19567e-14
7.14542e-14
6.86872e-14
5.72702e-14
5.38725e-14
6.3005e-14
7.59179e-14
7.33727e-14
7.46778e-14
7.67028e-14
7.79182e-14
8.05516e-14
8.00412e-14
7.81872e-14
7.55259e-14
8.06628e-14
8.41213e-14
9.52996e-14
8.87363e-14
9.4263e-14
8.5888e-14
8.05874e-14
8.75965e-14
8.60777e-14
8.94255e-14
8.07307e-14
8.70092e-14
9.36012e-14
8.53437e-14
7.99685e-14
7.84407e-14
8.15789e-14
8.56412e-14
7.46739e-14
7.34021e-14
7.37553e-14
6.16647e-14
5.71815e-14
5.1769e-14
6.98693e-14
7.9086e-14
1.00372e-13
1.21595e-13
1.28636e-13
1.38872e-13
1.41545e-13
1.4625e-13
1.45854e-13
1.48157e-13
1.45398e-13
1.33036e-13
1.06616e-13
8.06997e-14
7.68096e-14
6.59949e-14
5.9392e-14
6.73403e-14
7.77182e-14
7.18811e-14
6.96126e-14
6.86212e-14
7.86062e-14
8.99565e-14
8.9025e-14
9.29983e-14
9.12203e-14
9.96652e-14
1.03139e-13
9.67943e-14
8.93978e-14
9.57535e-14
9.47535e-14
9.85048e-14
9.38603e-14
9.19558e-14
8.85405e-14
8.17527e-14
7.70698e-14
6.74112e-14
6.51945e-14
6.12847e-14
6.33176e-14
5.6921e-14
4.66913e-14
4.36456e-14
4.1903e-14
4.01026e-14
6.14337e-14
7.91084e-14
9.76778e-14
9.36222e-14
8.63368e-14
6.27307e-14
6.87766e-14
9.01708e-14
8.3393e-14
7.00462e-14
6.73881e-14
6.32796e-14
7.04147e-14
8.76098e-14
8.65075e-14
8.54692e-14
8.20848e-14
8.90686e-14
8.28354e-14
8.4965e-14
8.61239e-14
8.12761e-14
8.5894e-14
8.88246e-14
9.10935e-14
9.318e-14
9.34442e-14
9.47359e-14
8.16746e-14
8.44882e-14
8.16197e-14
7.19238e-14
8.10798e-14
7.40993e-14
8.34861e-14
8.21627e-14
8.85056e-14
8.74217e-14
9.4394e-14
8.69339e-14
9.13035e-14
9.01922e-14
8.55854e-14
7.28518e-14
6.88623e-14
5.31517e-14
6.5957e-14
8.13129e-14
1.02502e-13
1.25696e-13
1.32023e-13
1.33683e-13
1.40954e-13
1.48557e-13
1.49597e-13
1.55493e-13
1.52826e-13
1.43183e-13
1.17918e-13
8.93195e-14
8.11921e-14
7.41745e-14
7.02249e-14
7.36075e-14
7.67241e-14
7.62857e-14
7.50873e-14
7.79363e-14
8.36336e-14
8.65415e-14
9.08683e-14
9.71213e-14
9.26602e-14
9.06841e-14
9.63519e-14
1.03161e-13
1.02541e-13
1.04569e-13
9.69715e-14
9.84819e-14
9.23642e-14
8.31008e-14
7.99807e-14
8.02324e-14
7.75419e-14
7.4666e-14
7.42918e-14
7.0977e-14
6.85646e-14
7.14136e-14
5.88153e-14
5.03472e-14
5.2869e-14
5.13514e-14
8.61064e-14
1.00212e-13
1.12644e-13
1.03209e-13
8.43279e-14
6.08503e-14
7.66969e-14
8.26962e-14
7.66611e-14
6.78516e-14
7.21059e-14
6.97706e-14
7.35837e-14
8.33017e-14
8.85907e-14
8.69556e-14
8.64809e-14
9.25301e-14
9.13458e-14
9.91863e-14
1.02176e-13
9.59967e-14
1.00767e-13
9.14269e-14
9.24204e-14
1.02673e-13
9.87096e-14
1.03637e-13
9.62756e-14
9.10939e-14
8.81199e-14
7.63084e-14
8.81365e-14
7.88841e-14
8.44123e-14
9.5166e-14
1.03239e-13
1.03601e-13
9.97011e-14
9.22399e-14
1.02274e-13
9.62347e-14
9.77165e-14
8.6709e-14
7.31627e-14
6.36577e-14
6.03905e-14
8.42791e-14
1.02491e-13
1.17998e-13
1.22858e-13
1.26856e-13
1.31187e-13
1.34035e-13
1.45157e-13
1.51967e-13
1.47458e-13
1.38741e-13
1.24876e-13
9.76834e-14
8.32227e-14
8.77953e-14
8.48569e-14
8.43831e-14
8.22411e-14
8.67578e-14
9.20529e-14
9.9907e-14
9.33272e-14
8.78911e-14
8.74096e-14
9.54299e-14
9.4384e-14
9.54927e-14
9.98954e-14
1.08252e-13
1.1508e-13
1.08518e-13
1.0226e-13
1.05476e-13
1.00398e-13
8.96238e-14
8.17894e-14
8.85546e-14
8.96662e-14
9.44329e-14
9.31464e-14
8.2183e-14
7.96889e-14
8.37909e-14
7.9142e-14
7.60902e-14
7.07011e-14
6.57222e-14
8.53335e-14
9.66477e-14
1.1108e-13
1.1739e-13
1.07325e-13
8.6407e-14
6.44524e-14
7.19132e-14
7.92688e-14
7.68513e-14
6.75616e-14
7.90094e-14
8.19638e-14
7.58552e-14
7.46374e-14
8.37324e-14
8.90639e-14
8.94e-14
7.96475e-14
8.43462e-14
9.30081e-14
9.79658e-14
1.0167e-13
1.01761e-13
1.0539e-13
1.04295e-13
9.16385e-14
8.91724e-14
8.32371e-14
8.9005e-14
8.58424e-14
8.16841e-14
8.54546e-14
8.24561e-14
8.74331e-14
8.25517e-14
8.79487e-14
9.08443e-14
9.06201e-14
8.05461e-14
7.90304e-14
9.03464e-14
9.03778e-14
8.69729e-14
9.13973e-14
8.08608e-14
8.28188e-14
7.55322e-14
9.63617e-14
1.1086e-13
1.19429e-13
1.19091e-13
1.23068e-13
1.24458e-13
1.23854e-13
1.25983e-13
1.29633e-13
1.2866e-13
1.19415e-13
1.11215e-13
9.99523e-14
8.11357e-14
8.83185e-14
9.86031e-14
1.00373e-13
9.94037e-14
1.03403e-13
1.0684e-13
1.01788e-13
9.50975e-14
9.49928e-14
8.63431e-14
9.15104e-14
9.99847e-14
9.9199e-14
9.86108e-14
1.02155e-13
1.09333e-13
1.08938e-13
1.09495e-13
1.09599e-13
1.03282e-13
9.53702e-14
9.49697e-14
9.28721e-14
8.917e-14
9.36987e-14
9.18197e-14
8.88208e-14
7.65631e-14
7.0337e-14
7.3735e-14
7.25562e-14
6.81659e-14
6.26307e-14
7.0336e-14
8.00029e-14
8.86819e-14
9.23348e-14
9.18894e-14
8.19561e-14
6.13545e-14
5.21716e-14
5.11011e-14
5.47384e-14
5.59095e-14
6.27987e-14
6.9976e-14
7.40985e-14
7.61381e-14
8.10122e-14
8.8105e-14
8.92308e-14
8.42722e-14
7.66904e-14
7.46995e-14
7.70221e-14
8.99276e-14
9.43879e-14
1.0187e-13
9.86851e-14
9.40062e-14
8.72893e-14
8.42837e-14
7.88867e-14
6.95264e-14
6.66934e-14
7.19942e-14
6.89087e-14
7.439e-14
6.79265e-14
6.50851e-14
6.29197e-14
5.91097e-14
5.66301e-14
6.11281e-14
6.80619e-14
7.39677e-14
6.77662e-14
7.35065e-14
7.63485e-14
7.2356e-14
7.79273e-14
8.66765e-14
9.76892e-14
9.81644e-14
9.85324e-14
9.81514e-14
9.29141e-14
8.37715e-14
8.30455e-14
8.68409e-14
8.51066e-14
8.11403e-14
7.38549e-14
7.15241e-14
5.82891e-14
6.26876e-14
7.67569e-14
8.08906e-14
8.15265e-14
8.52948e-14
8.4659e-14
7.36979e-14
6.92479e-14
7.55954e-14
7.49532e-14
7.62333e-14
8.13641e-14
8.27273e-14
8.12221e-14
8.33616e-14
8.38283e-14
8.80765e-14
8.76001e-14
8.73132e-14
7.97244e-14
7.39422e-14
7.37924e-14
6.82921e-14
6.09967e-14
6.53534e-14
6.27906e-14
6.14664e-14
4.73483e-14
4.54478e-14
4.91567e-14
4.70633e-14
3.85776e-14
4.03655e-14
3.7416e-14
3.65953e-14
2.91335e-14
3.6075e-14
4.52911e-14
5.61748e-14
5.80448e-14
6.14559e-14
6.41532e-14
5.68432e-14
4.12896e-14
3.51237e-14
2.91343e-14
3.0645e-14
3.57809e-14
4.53173e-14
5.55735e-14
6.40709e-14
6.72149e-14
7.24762e-14
7.71556e-14
8.25098e-14
8.62467e-14
8.9627e-14
9.41485e-14
9.81518e-14
9.95153e-14
1.01008e-13
1.02481e-13
1.02043e-13
1.01582e-13
9.47037e-14
8.85157e-14
8.02044e-14
6.74994e-14
5.48756e-14
5.20983e-14
4.86348e-14
4.56815e-14
3.85109e-14
3.87529e-14
3.63487e-14
3.26073e-14
3.25709e-14
4.05047e-14
4.42384e-14
4.36695e-14
3.97465e-14
4.20142e-14
4.58225e-14
4.77629e-14
5.46334e-14
6.56029e-14
7.3681e-14
7.48655e-14
6.65162e-14
6.28705e-14
5.67177e-14
4.10939e-14
4.08496e-14
4.19095e-14
4.15851e-14
4.09235e-14
3.63413e-14
3.37682e-14
2.53271e-14
2.83131e-14
3.75872e-14
4.46066e-14
4.52377e-14
5.171e-14
5.38269e-14
5.27563e-14
4.93013e-14
4.51899e-14
4.73082e-14
4.82236e-14
5.39582e-14
6.15672e-14
6.22454e-14
6.2335e-14
5.973e-14
6.16059e-14
6.42617e-14
5.98506e-14
5.09404e-14
4.65324e-14
4.03676e-14
3.89047e-14
3.95504e-14
4.04603e-14
3.93661e-14
3.55553e-14
2.83677e-14
2.07116e-14
2.61741e-14
3.25167e-14
3.1259e-14
2.27726e-14
2.53663e-14
1.6527e-14
6.30154e-15
1.55416e-14
2.51908e-14
3.26202e-14
3.83467e-14
3.82858e-14
4.2765e-14
4.3525e-14
3.90535e-14
3.44469e-14
3.68814e-14
4.28915e-14
4.10853e-14
5.50377e-14
6.92068e-14
7.89236e-14
8.33501e-14
8.87e-14
9.39784e-14
1.01292e-13
1.07759e-13
1.09827e-13
1.15266e-13
1.23569e-13
1.24296e-13
1.26347e-13
1.28983e-13
1.27955e-13
1.27246e-13
1.19121e-13
1.14383e-13
1.00745e-13
8.01192e-14
6.31307e-14
4.82691e-14
3.15679e-14
1.8313e-14
1.02673e-14
1.16693e-14
2.27733e-14
3.56459e-14
3.44866e-14
3.68979e-14
4.31183e-14
4.62306e-14
4.90832e-14
4.93721e-14
5.08023e-14
5.41546e-14
5.12875e-14
5.05431e-14
5.02519e-14
5.17416e-14
4.13637e-14
3.46466e-14
3.4357e-14
2.7433e-14
1.518e-14
1.37032e-14
1.47974e-14
1.43536e-14
1.25457e-14
9.23182e-15
1.4676e-14
2.06285e-14
2.86559e-14
3.65003e-14
4.1756e-14
4.45444e-14
4.22309e-14
3.1695e-14
3.08086e-14
2.67053e-14
3.1448e-14
3.30292e-14
3.56978e-14
4.32148e-14
4.74726e-14
5.28558e-14
5.37471e-14
5.37727e-14
5.84313e-14
5.97605e-14
4.90019e-14
3.14212e-14
2.37131e-14
2.07995e-14
2.44572e-14
2.13712e-14
2.19894e-14
2.05567e-14
2.37949e-14
1.95846e-14
1.63022e-14
1.82004e-14
2.07624e-14
2.28937e-14
1.05113e-14
5.9375e-15
5.43906e-15
1.33623e-14
2.19051e-14
2.67563e-14
3.05653e-14
3.20806e-14
3.86318e-14
3.92268e-14
3.80229e-14
3.87397e-14
4.8716e-14
5.42335e-14
5.18749e-14
6.2144e-14
7.59363e-14
8.53466e-14
8.73322e-14
9.07957e-14
9.62961e-14
1.05598e-13
1.16293e-13
1.22178e-13
1.27884e-13
1.32781e-13
1.33351e-13
1.38167e-13
1.37677e-13
1.38225e-13
1.39737e-13
1.34013e-13
1.27853e-13
1.08276e-13
8.4622e-14
6.80515e-14
4.44219e-14
2.27786e-14
8.30309e-15
1.06632e-14
1.43246e-14
2.4967e-14
3.48083e-14
4.2439e-14
4.51343e-14
4.87503e-14
5.19854e-14
5.11765e-14
5.03126e-14
5.16719e-14
5.26028e-14
5.16118e-14
5.1474e-14
4.66891e-14
4.36641e-14
3.68516e-14
2.98247e-14
2.31521e-14
1.56638e-14
2.1722e-14
2.57902e-14
2.1548e-14
1.98763e-14
8.00182e-15
8.20457e-15
8.69484e-15
1.65036e-14
3.08163e-14
3.6996e-14
3.93556e-14
3.97134e-14
3.34879e-14
2.17995e-14
1.41397e-14
1.7992e-14
2.99286e-14
2.73296e-14
3.13694e-14
3.16123e-14
3.12797e-14
3.84697e-14
4.30853e-14
3.94169e-14
3.9828e-14
4.33326e-14
3.37396e-14
2.87463e-14
1.97953e-14
1.6714e-14
1.99034e-14
1.97424e-14
1.18213e-14
1.34596e-14
2.0484e-14
1.81949e-14
2.41638e-14
2.61882e-14
2.41479e-14
2.62698e-14
2.10554e-14
1.81889e-14
1.20433e-14
6.08936e-15
2.16395e-14
1.72807e-14
8.96213e-15
1.89488e-14
5.64337e-15
1.66813e-14
1.12635e-14
1.95646e-14
2.67943e-14
2.32899e-14
3.09824e-14
3.27605e-14
3.37064e-14
3.59474e-14
4.3349e-14
4.56018e-14
5.02399e-14
5.06213e-14
6.04116e-14
7.38535e-14
8.12921e-14
8.79589e-14
8.9197e-14
9.41348e-14
1.04006e-13
1.18249e-13
1.27625e-13
1.339e-13
1.35856e-13
1.35599e-13
1.33629e-13
1.30173e-13
1.32194e-13
1.34532e-13
1.4356e-13
1.27795e-13
1.06813e-13
8.70777e-14
7.32157e-14
4.44709e-14
2.06042e-14
2.31452e-14
2.47512e-14
2.51913e-14
3.26068e-14
4.4523e-14
5.1434e-14
5.82525e-14
5.79616e-14
5.89093e-14
6.33166e-14
6.42192e-14
6.84848e-14
6.93631e-14
6.19079e-14
5.9188e-14
5.36335e-14
4.5486e-14
3.35902e-14
2.66451e-14
2.37904e-14
2.42362e-14
1.99183e-14
2.1082e-14
3.16452e-14
3.38856e-14
3.02137e-14
2.17692e-14
1.3515e-14
1.4651e-14
2.8178e-14
4.14079e-14
4.34018e-14
4.05205e-14
3.40906e-14
1.96349e-14
9.70223e-15
2.4501e-14
2.54134e-14
3.11515e-14
3.22979e-14
2.76115e-14
2.53827e-14
2.62846e-14
2.99445e-14
2.61106e-14
2.56241e-14
3.32235e-14
3.76993e-14
2.57069e-14
2.18267e-14
2.25771e-14
2.79767e-14
2.30858e-14
1.56381e-14
2.79136e-14
2.81224e-14
2.20004e-14
2.69477e-14
2.5788e-14
2.13652e-14
2.22981e-14
1.15421e-14
7.76521e-15
3.70864e-15
9.57132e-15
1.63596e-14
2.58293e-14
2.40064e-14
2.20962e-14
1.93502e-14
7.77919e-15
5.32848e-15
1.25988e-14
2.2714e-14
2.42709e-14
2.49422e-14
2.47664e-14
2.63239e-14
3.257e-14
3.6706e-14
4.40452e-14
4.81758e-14
4.2524e-14
5.66086e-14
7.31839e-14
7.441e-14
7.80981e-14
7.69535e-14
8.13189e-14
8.77991e-14
1.07724e-13
1.29465e-13
1.3828e-13
1.36627e-13
1.30567e-13
1.21748e-13
1.16663e-13
1.21333e-13
1.26245e-13
1.24e-13
1.11005e-13
9.25415e-14
7.43433e-14
5.47642e-14
3.08815e-14
1.71066e-14
2.19784e-14
1.8207e-14
2.9567e-14
4.52627e-14
5.63669e-14
6.60201e-14
7.31601e-14
7.3079e-14
7.39998e-14
7.83292e-14
8.52436e-14
8.74531e-14
9.01958e-14
8.50494e-14
7.34098e-14
5.80739e-14
4.18202e-14
3.04835e-14
2.89315e-14
3.16201e-14
3.10604e-14
2.7048e-14
3.17201e-14
4.28239e-14
4.94423e-14
5.4402e-14
5.1538e-14
3.79122e-14
2.33378e-14
3.16871e-14
3.77777e-14
3.40185e-14
2.98967e-14
3.13103e-14
2.13775e-14
1.5985e-14
1.80581e-14
1.73093e-14
1.83475e-14
1.88971e-14
1.87684e-14
2.25819e-14
2.36849e-14
2.78077e-14
3.2114e-14
3.8116e-14
3.83362e-14
3.36272e-14
3.94685e-14
3.82192e-14
3.93774e-14
4.04506e-14
3.06944e-14
3.1767e-14
2.70152e-14
1.71794e-14
2.39504e-14
3.227e-14
2.25091e-14
1.47648e-14
1.81656e-14
1.88054e-14
1.68936e-14
1.73436e-14
2.35038e-14
3.76917e-14
5.18013e-14
5.32588e-14
4.97971e-14
4.16109e-14
4.21222e-14
3.73307e-14
3.57386e-14
3.62807e-14
4.07247e-14
3.69243e-14
3.77475e-14
4.52982e-14
4.87781e-14
5.36279e-14
5.55655e-14
5.56744e-14
5.24704e-14
5.97104e-14
6.4138e-14
7.5557e-14
8.12722e-14
8.03028e-14
7.83676e-14
8.19618e-14
9.50471e-14
1.20913e-13
1.2994e-13
1.36683e-13
1.22105e-13
1.00352e-13
9.19235e-14
9.68098e-14
9.97493e-14
9.63619e-14
8.72158e-14
6.61017e-14
4.85017e-14
3.51206e-14
8.71663e-15
1.88622e-14
3.62287e-14
3.95405e-14
4.33694e-14
5.48892e-14
6.54105e-14
7.75573e-14
8.53182e-14
8.78568e-14
9.18033e-14
9.60437e-14
9.82037e-14
1.02225e-13
1.06001e-13
1.01863e-13
9.81349e-14
7.9057e-14
5.7414e-14
5.15311e-14
5.49816e-14
5.16769e-14
5.44688e-14
5.34907e-14
5.88211e-14
6.83014e-14
7.21357e-14
6.5675e-14
7.07311e-14
6.42006e-14
4.93276e-14
4.03505e-14
4.72897e-14
4.77016e-14
3.921e-14
4.01878e-14
3.95921e-14
3.7998e-14
4.67244e-14
5.07959e-14
4.96529e-14
4.08553e-14
3.76074e-14
3.46875e-14
4.27753e-14
4.66795e-14
5.19986e-14
4.57224e-14
5.27966e-14
5.82529e-14
7.12248e-14
6.88624e-14
6.4489e-14
6.63381e-14
5.69216e-14
4.96642e-14
4.04349e-14
3.4108e-14
3.62074e-14
3.20422e-14
2.80567e-14
2.80226e-14
3.28366e-14
5.11771e-14
4.33116e-14
3.70884e-14
3.82487e-14
5.06126e-14
5.54427e-14
5.0601e-14
5.92555e-14
7.09855e-14
7.39914e-14
8.15016e-14
8.09178e-14
7.37596e-14
7.24751e-14
7.46371e-14
6.224e-14
6.20231e-14
5.7396e-14
6.35729e-14
6.17153e-14
6.98532e-14
6.04091e-14
6.72935e-14
6.47596e-14
6.87753e-14
7.64732e-14
8.1912e-14
7.35349e-14
6.81717e-14
7.76624e-14
8.68683e-14
9.26649e-14
1.02039e-13
1.05822e-13
1.00317e-13
9.15216e-14
8.81295e-14
9.41318e-14
9.57779e-14
9.66094e-14
9.67868e-14
7.27162e-14
4.12421e-14
2.86367e-14
2.64959e-14
3.3327e-14
4.43689e-14
6.3816e-14
7.54255e-14
8.02535e-14
8.07037e-14
9.46148e-14
1.05249e-13
1.1325e-13
1.15667e-13
1.15822e-13
1.10537e-13
1.2176e-13
1.31835e-13
1.30689e-13
1.16637e-13
9.66499e-14
8.27075e-14
7.96741e-14
7.32379e-14
7.89258e-14
7.40976e-14
7.31133e-14
7.82665e-14
6.7093e-14
6.27753e-14
6.81641e-14
7.35603e-14
7.99099e-14
7.19851e-14
5.83415e-14
5.38171e-14
6.38531e-14
6.07073e-14
5.71531e-14
5.52004e-14
5.33132e-14
6.64578e-14
7.88372e-14
8.02879e-14
7.39765e-14
7.35254e-14
7.04086e-14
6.76295e-14
6.19525e-14
5.66716e-14
5.31576e-14
6.70607e-14
7.91458e-14
8.74786e-14
8.64546e-14
8.0895e-14
7.03222e-14
7.43065e-14
7.07015e-14
6.58384e-14
5.61922e-14
5.23034e-14
5.25612e-14
5.10652e-14
5.60932e-14
5.29807e-14
7.28107e-14
6.94561e-14
6.64926e-14
6.75754e-14
7.52657e-14
7.71127e-14
7.82167e-14
8.0269e-14
8.18084e-14
9.47614e-14
1.03003e-13
1.02599e-13
1.00929e-13
9.7813e-14
9.4941e-14
8.95331e-14
8.58594e-14
7.91022e-14
8.2947e-14
7.68046e-14
7.59502e-14
7.19802e-14
7.93138e-14
7.65304e-14
7.8886e-14
7.36135e-14
7.38083e-14
6.94285e-14
6.91332e-14
6.79034e-14
7.76013e-14
8.37391e-14
8.91405e-14
9.62709e-14
9.94069e-14
1.01799e-13
9.90739e-14
1.01803e-13
1.04525e-13
1.02583e-13
9.38066e-14
7.80406e-14
7.04916e-14
7.92004e-14
8.00718e-14
8.43295e-14
8.82702e-14
9.3529e-14
9.96612e-14
1.04832e-13
1.0671e-13
1.16158e-13
1.22948e-13
1.28237e-13
1.30826e-13
1.3501e-13
1.31837e-13
1.31879e-13
1.36333e-13
1.37762e-13
1.23824e-13
1.09704e-13
1.02869e-13
9.51944e-14
9.44108e-14
9.27692e-14
8.54819e-14
8.61681e-14
7.98103e-14
6.68434e-14
6.42878e-14
6.57474e-14
6.79032e-14
7.56622e-14
7.86943e-14
7.85782e-14
7.55385e-14
8.18873e-14
8.14834e-14
8.16049e-14
8.29668e-14
7.99628e-14
8.32932e-14
8.65779e-14
8.88815e-14
9.38721e-14
9.23012e-14
9.18437e-14
8.40251e-14
8.24194e-14
7.57255e-14
7.97507e-14
8.65266e-14
9.63155e-14
9.59852e-14
9.20458e-14
8.8879e-14
8.51226e-14
7.89486e-14
7.82382e-14
6.81892e-14
6.87632e-14
6.33624e-14
7.13872e-14
6.81445e-14
6.67193e-14
6.1686e-14
7.61541e-14
7.5002e-14
6.93823e-14
7.35201e-14
6.85185e-14
6.8616e-14
6.75553e-14
8.16213e-14
8.21402e-14
7.88502e-14
8.87165e-14
9.46371e-14
9.64999e-14
9.73696e-14
9.77217e-14
9.30264e-14
9.35951e-14
8.71784e-14
8.66472e-14
7.40226e-14
7.04799e-14
6.83656e-14
7.60333e-14
7.21519e-14
7.61406e-14
7.34331e-14
6.03242e-14
6.33544e-14
6.02725e-14
6.95575e-14
7.26156e-14
8.06618e-14
8.80505e-14
8.83643e-14
9.27828e-14
9.45875e-14
9.42742e-14
9.54388e-14
8.98582e-14
9.03854e-14
9.68297e-14
9.30252e-14
7.84255e-14
8.66225e-14
1.05007e-13
1.10505e-13
1.0919e-13
1.09676e-13
1.09289e-13
1.11048e-13
1.17304e-13
1.12672e-13
1.17321e-13
1.22373e-13
1.20852e-13
1.28357e-13
1.3254e-13
1.32743e-13
1.28974e-13
1.33832e-13
1.29832e-13
1.23461e-13
1.16101e-13
1.01488e-13
9.53459e-14
1.02366e-13
9.78624e-14
9.59444e-14
8.51796e-14
7.5014e-14
6.71302e-14
6.8617e-14
6.43583e-14
6.36894e-14
5.99503e-14
6.63109e-14
7.57789e-14
7.87168e-14
7.88239e-14
7.816e-14
8.37059e-14
9.05643e-14
8.6618e-14
8.15511e-14
8.3984e-14
8.38986e-14
8.90036e-14
9.15278e-14
8.94894e-14
8.27778e-14
8.51368e-14
7.96907e-14
8.67547e-14
9.38101e-14
9.99619e-14
1.00676e-13
9.65423e-14
7.97558e-14
7.10559e-14
7.15583e-14
6.88734e-14
6.38527e-14
6.89763e-14
6.1218e-14
6.59922e-14
5.88934e-14
5.82054e-14
5.93354e-14
7.95092e-14
6.09511e-14
4.58454e-14
5.4624e-14
5.7323e-14
5.79291e-14
5.45775e-14
6.24782e-14
6.56369e-14
7.36697e-14
8.83758e-14
9.60276e-14
9.08713e-14
8.22107e-14
8.43753e-14
7.64034e-14
6.34991e-14
5.33171e-14
4.56075e-14
3.94573e-14
3.7832e-14
4.67086e-14
6.07783e-14
6.72949e-14
6.43351e-14
6.13086e-14
5.3935e-14
5.59134e-14
5.51552e-14
5.34476e-14
5.26135e-14
5.48405e-14
6.08879e-14
6.07432e-14
6.10138e-14
5.86963e-14
6.01525e-14
6.68244e-14
7.6081e-14
7.61853e-14
6.36197e-14
6.79044e-14
6.41942e-14
7.48817e-14
1.02421e-13
1.07624e-13
9.98326e-14
1.05127e-13
1.12708e-13
1.12288e-13
1.06062e-13
1.02505e-13
1.13485e-13
1.12886e-13
1.07318e-13
1.02303e-13
1.09256e-13
1.10197e-13
1.09949e-13
1.16159e-13
1.17899e-13
1.12026e-13
1.11819e-13
9.61079e-14
9.69075e-14
1.02625e-13
9.38087e-14
8.59941e-14
7.59086e-14
6.95763e-14
6.0586e-14
5.54827e-14
4.72227e-14
3.91094e-14
3.34531e-14
4.5466e-14
5.38871e-14
6.20698e-14
6.69018e-14
5.76109e-14
6.69992e-14
8.17796e-14
8.02711e-14
7.09878e-14
7.08539e-14
7.3436e-14
8.01276e-14
7.89832e-14
8.25352e-14
8.57075e-14
9.19534e-14
8.69422e-14
9.48597e-14
9.77628e-14
9.3668e-14
9.72526e-14
7.92179e-14
6.54154e-14
6.32576e-14
6.67867e-14
6.42876e-14
6.73231e-14
6.41676e-14
6.23162e-14
5.84313e-14
6.00852e-14
6.59728e-14
5.84537e-14
5.94299e-14
5.2111e-14
3.8715e-14
2.78836e-14
3.54867e-14
4.0611e-14
3.77409e-14
3.96845e-14
5.06131e-14
5.0841e-14
6.64396e-14
7.27905e-14
7.3522e-14
7.04564e-14
6.3878e-14
6.30536e-14
4.61214e-14
2.14391e-14
1.17803e-14
1.84902e-14
2.47488e-14
3.04859e-14
4.19251e-14
5.09381e-14
4.9545e-14
4.66962e-14
3.92241e-14
4.09031e-14
4.02978e-14
3.07866e-14
2.11015e-14
2.47193e-14
2.95385e-14
3.05177e-14
3.38724e-14
3.5931e-14
4.16434e-14
3.9104e-14
4.58299e-14
4.55534e-14
2.97114e-14
3.29407e-14
3.63938e-14
4.97367e-14
7.24082e-14
8.38926e-14
9.32992e-14
9.53529e-14
1.03533e-13
1.02416e-13
1.02507e-13
1.06865e-13
1.04301e-13
9.40355e-14
9.25218e-14
9.39533e-14
9.88022e-14
9.55038e-14
9.4578e-14
9.113e-14
8.35207e-14
9.13159e-14
9.91386e-14
9.81362e-14
9.6973e-14
9.34541e-14
9.19409e-14
9.42376e-14
8.47833e-14
8.43263e-14
6.96632e-14
5.99104e-14
5.09351e-14
3.84018e-14
3.85057e-14
3.35881e-14
3.42924e-14
3.77396e-14
4.68651e-14
4.77814e-14
4.2804e-14
4.87496e-14
4.89616e-14
4.96346e-14
5.14546e-14
6.13583e-14
6.27086e-14
5.95535e-14
6.10145e-14
6.5021e-14
6.82939e-14
6.89152e-14
6.66531e-14
6.35782e-14
6.11011e-14
6.00384e-14
4.43174e-14
3.4553e-14
4.09344e-14
3.67539e-14
4.02947e-14
4.04598e-14
3.8738e-14
4.50893e-14
4.836e-14
5.51782e-14
5.07814e-14
4.4649e-14
3.52764e-14
2.79242e-14
3.0265e-14
1.79451e-14
2.6563e-14
2.73104e-14
1.69634e-14
1.67389e-14
2.99441e-14
2.68622e-14
3.8411e-14
4.58122e-14
4.37157e-14
4.17927e-14
4.79098e-14
4.27937e-14
2.74488e-14
1.31002e-14
1.67746e-14
1.76224e-14
2.97031e-14
3.23221e-14
4.23932e-14
5.32072e-14
4.67347e-14
4.35293e-14
3.41789e-14
2.48932e-14
2.39805e-14
2.13303e-14
1.39107e-14
1.67376e-14
1.83196e-14
2.20307e-14
2.74617e-14
3.17004e-14
3.85637e-14
3.67633e-14
3.5475e-14
3.1146e-14
2.60543e-14
2.34419e-14
3.42897e-14
4.42198e-14
5.85527e-14
7.39086e-14
7.93028e-14
8.62338e-14
8.70281e-14
9.4236e-14
1.00633e-13
9.36287e-14
8.5971e-14
8.59197e-14
8.02195e-14
8.14866e-14
8.32935e-14
8.21373e-14
7.94266e-14
7.29826e-14
6.64588e-14
7.39107e-14
8.47349e-14
8.93206e-14
8.83096e-14
9.14256e-14
9.79326e-14
9.58175e-14
8.22481e-14
7.72311e-14
6.56746e-14
6.01464e-14
4.94248e-14
4.02776e-14
3.8834e-14
2.70681e-14
2.62664e-14
2.43061e-14
2.89079e-14
4.08859e-14
3.45493e-14
2.73814e-14
3.26293e-14
2.94545e-14
4.35752e-14
4.53253e-14
5.09151e-14
4.77029e-14
5.03233e-14
4.51597e-14
4.65185e-14
4.39164e-14
4.22272e-14
4.02509e-14
4.28671e-14
3.77408e-14
2.08332e-14
3.18119e-14
3.42905e-14
2.02247e-14
2.24818e-14
2.88163e-14
3.62832e-14
4.56763e-14
4.31877e-14
4.75545e-14
4.81104e-14
4.30971e-14
2.28705e-14
2.68171e-14
2.5918e-14
3.57867e-14
3.88364e-14
3.55383e-14
3.46612e-14
3.50394e-14
3.82579e-14
3.84149e-14
2.80511e-14
2.47484e-14
2.42038e-14
2.80322e-14
2.99419e-14
3.34193e-14
3.26203e-14
3.64093e-14
3.47513e-14
3.94127e-14
4.39762e-14
4.83512e-14
5.18991e-14
5.24018e-14
5.03217e-14
4.63517e-14
4.51158e-14
3.73961e-14
3.15078e-14
3.10768e-14
3.15481e-14
2.72621e-14
2.86107e-14
3.72124e-14
4.26114e-14
4.56275e-14
4.20424e-14
5.03394e-14
4.89131e-14
4.44185e-14
4.28819e-14
3.58223e-14
4.9515e-14
6.0426e-14
6.3884e-14
7.23085e-14
7.35412e-14
7.91688e-14
8.51143e-14
8.52676e-14
8.62033e-14
7.87559e-14
7.69667e-14
7.45554e-14
7.15632e-14
6.62759e-14
6.61378e-14
6.74653e-14
7.01429e-14
6.84239e-14
7.06727e-14
6.85541e-14
7.43536e-14
8.06589e-14
8.08575e-14
8.27885e-14
8.13146e-14
7.92663e-14
7.93858e-14
7.69318e-14
7.29654e-14
6.48195e-14
5.56312e-14
5.59729e-14
4.47466e-14
3.27733e-14
3.43933e-14
3.36375e-14
3.26451e-14
3.94525e-14
4.24897e-14
3.73532e-14
4.02992e-14
3.58149e-14
3.66492e-14
3.27039e-14
3.49392e-14
3.67899e-14
4.09372e-14
4.51016e-14
4.35256e-14
3.90795e-14
3.65315e-14
3.9382e-14
4.04153e-14
2.99899e-14
3.4438e-14
4.19236e-14
3.95159e-14
4.29038e-14
4.8306e-14
5.4789e-14
6.06031e-14
5.8694e-14
6.11682e-14
6.74711e-14
5.7708e-14
5.69334e-14
7.18105e-14
7.15433e-14
6.77013e-14
7.45104e-14
7.54132e-14
7.05754e-14
7.1848e-14
7.23767e-14
7.2729e-14
7.36201e-14
6.99721e-14
6.28371e-14
6.19549e-14
6.17922e-14
6.04557e-14
6.30949e-14
6.45856e-14
6.70358e-14
6.87504e-14
7.49482e-14
7.44081e-14
7.63879e-14
7.6465e-14
7.90776e-14
7.59093e-14
7.20239e-14
7.09667e-14
6.96677e-14
6.66325e-14
6.86716e-14
6.68478e-14
7.07888e-14
7.04023e-14
7.16384e-14
7.30053e-14
7.15714e-14
6.77766e-14
7.2302e-14
7.02264e-14
7.32079e-14
7.02968e-14
7.18835e-14
7.8671e-14
8.61459e-14
8.57808e-14
8.87217e-14
9.36822e-14
9.79801e-14
9.98016e-14
9.93809e-14
1.00197e-13
9.67863e-14
9.51823e-14
9.13995e-14
8.86199e-14
8.48256e-14
8.36056e-14
8.75594e-14
8.63028e-14
8.64494e-14
8.61728e-14
8.66142e-14
9.23728e-14
9.78761e-14
1.00163e-13
1.00484e-13
9.67981e-14
8.95166e-14
8.31086e-14
7.8153e-14
8.32669e-14
8.10403e-14
8.02042e-14
7.86927e-14
6.9959e-14
6.52943e-14
6.01901e-14
6.08881e-14
5.86592e-14
6.12565e-14
6.93054e-14
6.90045e-14
7.16043e-14
6.92716e-14
6.92092e-14
6.85951e-14
7.49748e-14
7.42282e-14
7.33932e-14
7.27627e-14
7.46134e-14
7.00056e-14
6.80792e-14
6.67438e-14
6.32036e-14
6.59063e-14
7.16323e-14
7.23558e-14
7.66369e-14
8.2624e-14
8.51001e-14
8.0659e-14
7.89023e-14
7.40847e-14
7.84569e-14
7.12752e-14
6.34873e-14
6.85412e-14
8.35056e-14
8.49703e-14
8.83984e-14
8.94453e-14
8.15294e-14
6.88435e-14
6.75007e-14
6.46162e-14
6.28649e-14
6.47086e-14
6.8202e-14
6.66026e-14
6.62354e-14
6.81649e-14
7.1206e-14
6.87368e-14
7.0725e-14
6.69763e-14
7.00431e-14
6.44422e-14
6.90469e-14
7.64525e-14
8.18118e-14
8.27724e-14
7.89257e-14
7.65593e-14
7.17879e-14
6.7678e-14
6.70302e-14
6.45909e-14
6.64134e-14
6.96475e-14
7.90823e-14
8.50785e-14
8.26564e-14
8.87928e-14