/*--------------------------------*- C++ -*----------------------------------*\
| =========                 |                                                 |
| \\      /  F ield         | OpenFOAM: The Open Source CFD Toolbox           |
|  \\    /   O peration     | Version:  2406                                  |
|   \\  /    A nd           | Website:  www.openfoam.com                      |
|    \\/     M anipulation  |                                                 |
\*---------------------------------------------------------------------------*/
FoamFile
{
    version     2.0;
    format      ascii;
    arch        "LSB;label=32;scalar=64";
    class       volVectorField;
    location    "0.1";
    object      U;
}
// * * * * * * * * * * * * * * * * * * * * * * * * * * * * * * * * * * * * * //

dimensions      [0 1 -1 0 0 0 0];

internalField   nonuniform List<vector> 
13946
(
(2.62744e-12 -1.78633e-11 1.92742e-11)
(3.43135e-12 -1.83997e-11 2.00634e-11)
(1.23774e-12 -1.99005e-11 1.91629e-11)
(-8.64534e-13 -2.15723e-11 1.35125e-11)
(-2.00828e-12 -2.4272e-11 1.23642e-11)
(-3.50875e-12 -2.49899e-11 1.07439e-11)
(-4.29474e-12 -2.62285e-11 8.65511e-12)
(-5.06895e-12 -2.46742e-11 6.47704e-12)
(-6.65889e-12 -2.61355e-11 5.54171e-12)
(-5.42905e-12 -2.68138e-11 1.12193e-12)
(-3.67365e-12 -2.88669e-11 -3.3024e-12)
(-1.7851e-12 -2.76246e-11 -8.08616e-12)
(-3.93872e-12 -2.75682e-11 -1.24327e-11)
(-5.0526e-12 -2.60899e-11 -1.29806e-11)
(-2.50583e-12 -2.55001e-11 -1.28796e-11)
(-1.17624e-13 -2.41384e-11 -1.21226e-11)
(-1.63966e-12 -2.42219e-11 -1.28873e-11)
(-3.87584e-12 -2.47537e-11 -1.35465e-11)
(-2.23061e-12 -2.50122e-11 -1.38355e-11)
(-7.25925e-13 -2.62617e-11 -1.4041e-11)
(7.29047e-13 -2.61511e-11 -1.43383e-11)
(-1.52138e-13 -2.54742e-11 -1.45201e-11)
(-1.61127e-12 -2.70144e-11 -1.50538e-11)
(-2.08806e-12 -2.71776e-11 -1.63333e-11)
(-2.82467e-12 -2.93629e-11 -1.70517e-11)
(-2.16814e-12 -2.77285e-11 -1.39572e-11)
(3.41465e-14 -2.91757e-11 -1.01953e-11)
(1.14362e-12 -2.89195e-11 -7.64417e-12)
(2.50426e-12 -2.62367e-11 -7.70462e-12)
(1.82724e-12 -2.54755e-11 -9.08506e-12)
(1.06411e-12 -2.52253e-11 -5.84159e-12)
(8.01776e-13 -2.51614e-11 -4.88843e-12)
(6.43873e-13 -2.46233e-11 -6.07964e-12)
(2.13144e-12 -2.39592e-11 -6.14368e-12)
(2.90505e-12 -2.29312e-11 -5.03466e-12)
(9.2786e-13 -2.26644e-11 -1.34095e-12)
(4.78434e-13 -2.29916e-11 2.92666e-12)
(-2.24486e-12 -2.37879e-11 3.21471e-12)
(-1.59101e-12 -2.57514e-11 6.14138e-12)
(1.34915e-13 -2.37323e-11 6.93209e-12)
(1.3581e-12 -2.60101e-11 7.34892e-12)
(3.51591e-12 -2.58079e-11 9.45066e-12)
(3.72015e-12 -2.44627e-11 9.73534e-12)
(9.51049e-13 -2.31107e-11 4.95304e-12)
(-1.29606e-12 -2.30543e-11 -4.15953e-12)
(-2.34784e-13 -2.37708e-11 -1.31081e-11)
(-2.99365e-12 -2.20846e-11 -1.85625e-11)
(-3.76017e-12 -2.25022e-11 -2.51509e-11)
(-2.10361e-12 -2.20264e-11 -2.73573e-11)
(-3.43282e-14 -2.19083e-11 -2.67678e-11)
(1.28897e-12 -2.1789e-11 -2.60525e-11)
(6.45265e-13 -2.16979e-11 -2.75851e-11)
(-1.22249e-12 -2.19087e-11 -2.60304e-11)
(-1.40181e-12 -2.10682e-11 -2.54752e-11)
(-7.99511e-13 -2.24214e-11 -2.54026e-11)
(-2.00761e-12 -2.35029e-11 -2.58145e-11)
(-2.3737e-12 -2.49829e-11 -2.47614e-11)
(-5.61284e-12 -2.5083e-11 -2.08805e-11)
(-7.95367e-12 -2.36755e-11 -1.42015e-11)
(-3.69729e-12 -2.48528e-11 -6.24419e-12)
(-2.70289e-13 -2.63955e-11 -2.02923e-12)
(-1.57681e-12 -2.5593e-11 1.2489e-13)
(-2.63264e-12 -2.3196e-11 1.79479e-12)
(-2.02821e-12 -2.45777e-11 5.57089e-13)
(-1.54074e-12 -2.33823e-11 -1.58635e-12)
(-6.71827e-13 -2.51052e-11 -1.74162e-12)
(-8.19846e-13 -2.47947e-11 -2.02452e-12)
(-3.48944e-13 -2.39796e-11 -2.52762e-12)
(1.22193e-12 -2.27891e-11 -3.43624e-12)
(1.37633e-13 -2.34923e-11 -4.2205e-12)
(-2.47739e-12 -2.31132e-11 -2.20995e-12)
(-1.12242e-12 -2.38043e-11 1.41185e-12)
(5.46203e-13 -2.44319e-11 3.12198e-12)
(-8.08533e-13 -2.25945e-11 -2.94146e-12)
(4.41965e-13 -2.10157e-11 -8.43919e-12)
(-2.06738e-14 -2.24521e-11 -1.07416e-11)
(-6.60506e-13 -2.23742e-11 -1.55848e-11)
(7.29223e-13 -2.10587e-11 -1.235e-11)
(4.06758e-12 -2.08146e-11 -1.30262e-11)
(4.67682e-12 -1.89082e-11 -9.90293e-12)
(6.5241e-12 -1.92572e-11 -7.85246e-12)
(4.87593e-12 -1.87436e-11 -7.18653e-12)
(1.78733e-12 -1.91427e-11 -8.09547e-12)
(4.13992e-12 -2.06418e-11 -9.16775e-12)
(5.74565e-12 -1.86854e-11 -1.05739e-11)
(5.53197e-12 -1.67319e-11 -1.16255e-11)
(4.5315e-12 -1.7368e-11 -1.22514e-11)
(5.20389e-12 -1.91305e-11 -1.31632e-11)
(3.44418e-12 -1.64927e-11 -1.36534e-11)
(2.00679e-12 -1.60435e-11 -1.30717e-11)
(5.86788e-12 -1.55707e-11 -1.43983e-11)
(6.30142e-12 -1.42435e-11 -1.84891e-11)
(2.45081e-12 -2.14191e-11 1.6526e-11)
(3.05578e-12 -2.13446e-11 1.81657e-11)
(2.72201e-12 -2.21179e-11 1.56191e-11)
(1.24105e-12 -2.49554e-11 1.26272e-11)
(-6.47953e-13 -2.84417e-11 1.35759e-11)
(-3.03073e-12 -3.07206e-11 1.3118e-11)
(-4.74727e-12 -3.17806e-11 9.44041e-12)
(-5.39955e-12 -2.88493e-11 6.58718e-12)
(-5.73167e-12 -3.062e-11 4.24318e-12)
(-4.57396e-12 -3.25278e-11 2.51201e-13)
(-3.68948e-12 -3.44395e-11 -3.29923e-12)
(-2.76555e-12 -3.37753e-11 -8.15114e-12)
(-4.48585e-12 -3.28843e-11 -1.1983e-11)
(-5.17806e-12 -3.052e-11 -1.30552e-11)
(-3.01215e-12 -2.95311e-11 -1.19929e-11)
(-1.46666e-12 -2.87539e-11 -1.09064e-11)
(-1.63373e-12 -2.74028e-11 -1.32053e-11)
(-1.71226e-12 -2.98617e-11 -1.32523e-11)
(-1.41033e-12 -3.04436e-11 -1.35179e-11)
(-7.08703e-13 -3.18274e-11 -1.2954e-11)
(1.28255e-13 -3.05748e-11 -1.30647e-11)
(-4.76144e-13 -3.08534e-11 -1.34477e-11)
(-1.97872e-12 -3.06257e-11 -1.44801e-11)
(-1.00421e-12 -2.9992e-11 -1.51894e-11)
(-1.90173e-12 -3.17643e-11 -1.52415e-11)
(-1.30271e-12 -3.1011e-11 -1.3196e-11)
(7.71405e-13 -3.19362e-11 -9.25241e-12)
(-9.01414e-13 -3.33741e-11 -6.23798e-12)
(-2.91733e-13 -2.98815e-11 -6.38213e-12)
(8.69456e-13 -2.72635e-11 -5.84136e-12)
(1.32551e-12 -2.54165e-11 -4.3157e-12)
(2.22574e-12 -2.71722e-11 -3.71475e-12)
(1.0895e-12 -2.87323e-11 -4.45882e-12)
(1.02114e-12 -2.92677e-11 -6.57572e-12)
(1.25665e-12 -2.64464e-11 -7.18855e-12)
(6.80586e-13 -2.52943e-11 -6.03826e-12)
(5.3266e-13 -2.42105e-11 -2.55227e-12)
(1.44451e-12 -2.59643e-11 1.65393e-12)
(-5.1588e-13 -3.0776e-11 6.31602e-12)
(-6.67164e-13 -2.96774e-11 6.01753e-12)
(1.35563e-12 -3.0582e-11 8.90758e-12)
(1.52581e-12 -2.84747e-11 1.23089e-11)
(1.57125e-12 -2.58785e-11 1.1078e-11)
(7.45594e-13 -2.57918e-11 5.31882e-12)
(-1.15094e-12 -2.60845e-11 -4.03078e-12)
(-9.20638e-13 -2.51844e-11 -1.36872e-11)
(-1.73226e-12 -2.30326e-11 -2.04206e-11)
(-2.51881e-12 -2.64452e-11 -2.60923e-11)
(-2.26778e-12 -2.68423e-11 -2.98701e-11)
(-1.96377e-14 -2.70267e-11 -3.11681e-11)
(1.13498e-12 -2.72619e-11 -3.14124e-11)
(8.10733e-13 -2.65018e-11 -3.22875e-11)
(-1.15015e-12 -2.68037e-11 -3.22687e-11)
(-1.63028e-12 -2.54632e-11 -3.28283e-11)
(-6.46171e-13 -2.60543e-11 -3.34579e-11)
(-1.45758e-12 -2.66246e-11 -3.26191e-11)
(-2.77238e-12 -2.90772e-11 -2.9681e-11)
(-4.92821e-12 -2.8885e-11 -2.41211e-11)
(-6.43881e-12 -2.84128e-11 -1.57443e-11)
(-3.52957e-12 -2.99713e-11 -7.24048e-12)
(-2.12015e-12 -2.99102e-11 -1.46765e-12)
(-3.05271e-12 -2.70001e-11 -1.86507e-13)
(-2.24602e-12 -2.6713e-11 4.19832e-13)
(-1.43306e-12 -2.74367e-11 -1.47445e-12)
(-9.96178e-13 -2.86598e-11 -4.91461e-12)
(3.86298e-13 -2.92496e-11 -5.6339e-12)
(-3.2675e-14 -3.01611e-11 -6.28677e-12)
(-7.00909e-13 -2.96288e-11 -5.0256e-12)
(-4.94192e-13 -2.68202e-11 -6.26245e-12)
(-4.9244e-13 -2.6011e-11 -7.9598e-12)
(-1.1284e-12 -2.65562e-11 -4.65259e-12)
(6.21703e-13 -2.6942e-11 -3.35e-12)
(-2.1665e-13 -2.83887e-11 -2.63675e-12)
(-1.99552e-12 -2.62942e-11 -5.11165e-12)
(2.28e-13 -2.5256e-11 -7.13431e-12)
(-4.36005e-13 -2.64621e-11 -9.3554e-12)
(-8.8151e-13 -2.48141e-11 -1.26686e-11)
(5.14207e-13 -2.62339e-11 -1.15473e-11)
(2.4967e-12 -2.57981e-11 -1.13492e-11)
(2.98593e-12 -2.17858e-11 -1.09502e-11)
(4.85701e-12 -2.18193e-11 -1.03875e-11)
(5.94955e-12 -1.95587e-11 -1.02772e-11)
(5.14054e-12 -2.39392e-11 -1.09747e-11)
(4.48354e-12 -2.58471e-11 -1.22857e-11)
(4.59113e-12 -2.3292e-11 -1.27558e-11)
(4.82509e-12 -2.31123e-11 -1.3131e-11)
(4.76368e-12 -2.25502e-11 -1.32988e-11)
(4.40159e-12 -2.46842e-11 -1.2346e-11)
(1.87095e-12 -2.28416e-11 -1.01111e-11)
(2.45435e-12 -2.19431e-11 -1.04132e-11)
(4.5776e-12 -2.16946e-11 -1.21752e-11)
(4.50646e-12 -1.82413e-11 -1.4916e-11)
(1.56118e-12 -2.60056e-11 1.4269e-11)
(3.59068e-12 -2.57002e-11 1.6337e-11)
(4.05547e-12 -2.78101e-11 1.26388e-11)
(3.81135e-12 -2.74862e-11 1.07894e-11)
(9.43966e-13 -2.85994e-11 1.33228e-11)
(-2.15304e-12 -3.05363e-11 1.46723e-11)
(-4.99697e-12 -3.00983e-11 1.08202e-11)
(-6.56013e-12 -2.82046e-11 5.70398e-12)
(-5.17732e-12 -3.10899e-11 1.83948e-14)
(-4.74986e-12 -3.42644e-11 -1.48522e-12)
(-3.81393e-12 -3.4641e-11 -1.451e-12)
(-2.74871e-12 -3.53151e-11 -7.39186e-12)
(-5.69365e-12 -3.27347e-11 -1.21336e-11)
(-6.33269e-12 -3.03741e-11 -1.38839e-11)
(-3.71912e-12 -2.93833e-11 -1.01623e-11)
(-2.15214e-12 -2.9535e-11 -8.11477e-12)
(-1.42577e-12 -3.18623e-11 -1.20397e-11)
(-1.30348e-12 -3.43493e-11 -1.30321e-11)
(-5.19173e-13 -3.36218e-11 -1.27576e-11)
(-6.39746e-13 -3.2837e-11 -1.0484e-11)
(-7.0108e-14 -3.33908e-11 -1.15651e-11)
(-1.44777e-13 -3.20823e-11 -1.02347e-11)
(-2.84669e-12 -3.27522e-11 -1.28293e-11)
(-1.12882e-12 -3.27911e-11 -1.49487e-11)
(-1.76618e-12 -3.19862e-11 -1.5064e-11)
(-2.31382e-12 -3.32014e-11 -1.35084e-11)
(1.42673e-12 -3.41848e-11 -1.00687e-11)
(1.04881e-13 -3.45346e-11 -5.29e-12)
(-1.00421e-12 -3.53177e-11 -5.09819e-12)
(-6.99833e-13 -3.26724e-11 -4.83837e-12)
(1.01719e-12 -3.05571e-11 -3.55e-12)
(2.93026e-12 -3.10973e-11 -2.88598e-12)
(2.21711e-12 -3.37885e-11 -3.22586e-12)
(6.86594e-13 -3.43292e-11 -5.66131e-12)
(2.4317e-13 -3.1308e-11 -8.59464e-12)
(9.21111e-13 -3.05773e-11 -9.68175e-12)
(8.30724e-13 -3.03957e-11 -4.88647e-12)
(2.90712e-12 -3.10753e-11 5.74055e-14)
(1.38974e-12 -3.11037e-11 4.73264e-12)
(3.7337e-13 -3.19902e-11 4.24887e-12)
(4.99418e-13 -3.06262e-11 8.11035e-12)
(-2.48627e-13 -2.99576e-11 1.22119e-11)
(1.50526e-12 -2.99854e-11 1.09394e-11)
(7.3991e-13 -3.1525e-11 5.66363e-12)
(-1.73526e-12 -3.12644e-11 -3.83203e-12)
(-2.03159e-12 -3.09574e-11 -1.4568e-11)
(-1.79411e-12 -2.76279e-11 -2.16639e-11)
(-2.59196e-12 -2.99131e-11 -2.7317e-11)
(-2.7816e-12 -2.80959e-11 -3.17112e-11)
(2.43959e-13 -2.90769e-11 -3.36996e-11)
(7.25864e-13 -2.9388e-11 -3.60278e-11)
(-5.17254e-13 -2.86947e-11 -3.71355e-11)
(-2.47311e-12 -2.8712e-11 -3.83749e-11)
(-1.49678e-12 -2.79748e-11 -3.93384e-11)
(1.1202e-12 -2.86809e-11 -3.94075e-11)
(8.59281e-13 -2.8112e-11 -3.64298e-11)
(3.76467e-13 -2.90343e-11 -3.2005e-11)
(-5.55214e-12 -2.95224e-11 -2.66301e-11)
(-6.9129e-12 -3.20935e-11 -1.61624e-11)
(-1.86264e-12 -3.25967e-11 -5.62191e-12)
(-2.95495e-12 -3.11773e-11 1.34845e-12)
(-4.32906e-12 -3.15234e-11 -9.68099e-14)
(-2.59848e-12 -3.08279e-11 -2.54788e-13)
(-8.36121e-13 -3.11297e-11 -3.54579e-12)
(-2.92409e-13 -3.19083e-11 -8.40838e-12)
(7.31674e-13 -3.23995e-11 -8.13728e-12)
(3.53766e-13 -3.30786e-11 -9.6418e-12)
(-1.27031e-12 -3.23074e-11 -7.29e-12)
(-6.42879e-13 -3.03696e-11 -7.06995e-12)
(3.11828e-13 -3.09618e-11 -6.66212e-12)
(-5.99566e-13 -2.95613e-11 -3.82732e-12)
(1.0253e-12 -3.15266e-11 -5.19099e-12)
(-8.60894e-13 -3.19927e-11 -5.91889e-12)
(-3.38564e-12 -2.93332e-11 -6.95078e-12)
(-5.5624e-13 -2.93637e-11 -7.72999e-12)
(-1.20698e-12 -2.78271e-11 -9.94153e-12)
(-1.23507e-12 -2.78091e-11 -1.25258e-11)
(1.19967e-12 -2.97735e-11 -1.18648e-11)
(7.69447e-13 -2.98902e-11 -1.12119e-11)
(1.25449e-12 -2.69678e-11 -1.2774e-11)
(4.57678e-12 -2.67688e-11 -1.1922e-11)
(6.59707e-12 -2.58322e-11 -1.19062e-11)
(6.43232e-12 -2.78643e-11 -1.27188e-11)
(3.59766e-12 -2.84143e-11 -1.29642e-11)
(3.88991e-12 -2.6844e-11 -1.40683e-11)
(5.24941e-12 -2.69429e-11 -1.47377e-11)
(6.48649e-12 -2.58859e-11 -1.44111e-11)
(5.25461e-12 -2.54148e-11 -1.01926e-11)
(5.35722e-13 -2.48631e-11 -8.00216e-12)
(1.44081e-12 -2.27143e-11 -8.21403e-12)
(3.69077e-12 -2.25345e-11 -9.79367e-12)
(1.60265e-12 -1.84083e-11 -1.22315e-11)
(1.9655e-12 -2.17395e-11 1.07311e-11)
(1.23878e-12 -2.36824e-11 1.78432e-11)
(4.3864e-12 -2.22297e-11 2.22632e-11)
(4.99116e-12 -2.3813e-11 1.93377e-11)
(3.22685e-12 -2.39814e-11 1.52511e-11)
(1.14646e-12 -2.19047e-11 1.33827e-11)
(-3.03894e-12 -2.4437e-11 1.17237e-11)
(-7.02074e-12 -2.06948e-11 8.44211e-12)
(-4.66038e-12 -2.11839e-11 1.71446e-12)
(-1.90888e-12 -2.41484e-11 -2.41183e-12)
(-4.30667e-12 -2.68915e-11 -3.27733e-12)
(-4.25745e-12 -2.7907e-11 -4.9401e-12)
(-4.32021e-12 -2.9681e-11 -9.78869e-12)
(-7.06218e-12 -2.54211e-11 -1.28959e-11)
(-6.37433e-12 -2.5538e-11 -1.40475e-11)
(-3.44315e-12 -2.49174e-11 -1.30419e-11)
(4.29362e-13 -2.62764e-11 -1.2322e-11)
(8.70773e-13 -2.87802e-11 -1.29908e-11)
(-1.15384e-12 -2.98804e-11 -1.35068e-11)
(-1.9206e-12 -2.82746e-11 -1.36416e-11)
(-5.43707e-13 -2.73683e-11 -1.38282e-11)
(-8.3393e-13 -2.83339e-11 -1.39244e-11)
(-1.06393e-12 -2.56154e-11 -1.37991e-11)
(-1.47598e-12 -2.67813e-11 -1.51447e-11)
(-1.52583e-12 -2.94634e-11 -1.62056e-11)
(-1.40633e-12 -2.92707e-11 -1.54094e-11)
(-2.52358e-13 -3.19461e-11 -1.40851e-11)
(1.83342e-12 -3.17808e-11 -1.11277e-11)
(2.88046e-13 -3.31308e-11 -7.9979e-12)
(-8.32218e-13 -3.1042e-11 -5.74314e-12)
(-1.83268e-12 -3.06824e-11 -3.83653e-12)
(3.82382e-13 -3.1703e-11 -2.61373e-12)
(3.95476e-12 -3.12318e-11 -2.00497e-12)
(3.08689e-12 -3.2231e-11 -2.15671e-12)
(-5.15788e-13 -3.14381e-11 -2.91959e-12)
(-7.00387e-14 -2.96015e-11 -4.57368e-12)
(1.32805e-12 -2.86917e-11 -5.63882e-12)
(1.56773e-12 -2.77552e-11 -4.41978e-12)
(2.23295e-12 -2.90959e-11 -2.67533e-12)
(1.54339e-12 -2.87973e-11 4.05691e-13)
(-6.71853e-13 -2.75679e-11 1.89464e-12)
(6.74768e-14 -2.5179e-11 7.45594e-12)
(1.5981e-13 -2.6253e-11 1.17757e-11)
(1.59403e-12 -2.53271e-11 1.03805e-11)
(2.0654e-12 -2.85359e-11 6.27095e-12)
(-2.24453e-12 -2.92116e-11 -2.10794e-12)
(-3.39778e-12 -2.7537e-11 -1.40804e-11)
(-2.95935e-12 -2.48235e-11 -2.2943e-11)
(-4.99338e-12 -2.72878e-11 -2.90915e-11)
(-4.13954e-12 -2.40021e-11 -3.41167e-11)
(9.79411e-14 -2.49066e-11 -3.70693e-11)
(-6.98305e-14 -2.30339e-11 -3.96776e-11)
(-7.44322e-13 -2.48478e-11 -4.13356e-11)
(-2.22085e-12 -2.47902e-11 -4.32965e-11)
(-1.96948e-12 -2.75002e-11 -4.38111e-11)
(-3.31563e-13 -2.41891e-11 -4.42971e-11)
(9.10642e-13 -2.21491e-11 -4.20315e-11)
(3.81763e-13 -2.10574e-11 -3.63265e-11)
(-2.98758e-12 -2.38474e-11 -2.78967e-11)
(-2.64179e-12 -2.8011e-11 -1.70817e-11)
(-4.05498e-12 -3.04972e-11 -7.91387e-12)
(-2.57977e-12 -2.82728e-11 -2.78208e-12)
(-3.1725e-12 -2.74076e-11 -1.20571e-12)
(-2.41507e-12 -2.71347e-11 1.659e-14)
(-1.18293e-12 -2.726e-11 -8.30265e-13)
(-1.12404e-12 -2.73682e-11 -4.28602e-12)
(1.37174e-12 -2.79423e-11 -5.49594e-12)
(8.24059e-13 -2.90864e-11 -7.65924e-12)
(-1.49649e-12 -2.90418e-11 -8.17498e-12)
(-7.59726e-14 -3.00076e-11 -8.85603e-12)
(-6.28362e-13 -3.0301e-11 -7.36702e-12)
(-4.73075e-13 -2.93853e-11 -7.10291e-12)
(2.6245e-12 -3.02141e-11 -7.11395e-12)
(-2.6125e-12 -2.879e-11 -8.09799e-12)
(-4.52786e-12 -3.00258e-11 -9.69831e-12)
(-1.28798e-12 -2.8906e-11 -9.7619e-12)
(-1.61207e-12 -2.58364e-11 -1.29049e-11)
(-6.34714e-14 -2.63968e-11 -1.61215e-11)
(1.86566e-12 -2.65478e-11 -1.51821e-11)
(-9.70159e-14 -2.65609e-11 -1.55506e-11)
(7.5481e-13 -2.69695e-11 -1.68242e-11)
(4.59671e-12 -2.69918e-11 -1.47496e-11)
(6.81473e-12 -2.65752e-11 -1.46476e-11)
(6.87694e-12 -2.69178e-11 -1.48085e-11)
(3.56342e-12 -2.62998e-11 -1.4581e-11)
(3.69525e-12 -2.64942e-11 -1.57162e-11)
(4.35322e-12 -2.45537e-11 -1.54708e-11)
(4.45449e-12 -2.41365e-11 -1.35073e-11)
(4.34957e-12 -2.17381e-11 -9.68127e-12)
(-5.15474e-13 -1.98503e-11 -7.91138e-12)
(1.02229e-12 -2.04339e-11 -7.42234e-12)
(2.47436e-12 -1.7042e-11 -8.83565e-12)
(-9.42989e-13 -1.24671e-11 -1.12168e-11)
(8.68264e-13 -1.14804e-11 -1.3138e-11)
(2.708e-12 -1.73661e-11 8.07597e-12)
(7.20404e-13 -1.87018e-11 2.07052e-11)
(4.68257e-12 -1.69376e-11 2.49858e-11)
(6.60139e-12 -1.83122e-11 2.44851e-11)
(2.31172e-12 -2.01225e-11 2.02519e-11)
(1.81968e-12 -2.02683e-11 1.13548e-11)
(-2.77708e-12 -1.92e-11 3.25147e-12)
(-7.87654e-12 -1.73682e-11 -9.95939e-13)
(-4.49289e-12 -1.82013e-11 -5.22597e-12)
(-1.47746e-12 -1.98238e-11 -6.13093e-12)
(-3.60758e-12 -1.81793e-11 -6.18646e-12)
(-3.46473e-12 -2.00689e-11 -6.37725e-12)
(-4.57316e-12 -2.16407e-11 -1.12399e-11)
(-7.89461e-12 -2.04595e-11 -1.5104e-11)
(-6.75357e-12 -2.08253e-11 -1.53807e-11)
(-2.86059e-12 -2.13533e-11 -1.45942e-11)
(1.0781e-12 -2.28395e-11 -1.45989e-11)
(2.57131e-12 -2.42041e-11 -1.34346e-11)
(-1.35244e-12 -2.36919e-11 -1.37271e-11)
(-2.24405e-12 -2.2378e-11 -1.41684e-11)
(-1.73625e-13 -2.17774e-11 -1.43371e-11)
(-1.84358e-12 -2.17145e-11 -1.46685e-11)
(-2.75172e-12 -2.0893e-11 -1.56007e-11)
(-5.2377e-13 -2.14582e-11 -1.58559e-11)
(8.7183e-13 -2.58417e-11 -1.59939e-11)
(6.35477e-14 -2.88822e-11 -1.47726e-11)
(-6.5823e-13 -2.81122e-11 -1.29224e-11)
(1.48863e-12 -2.62321e-11 -1.11035e-11)
(1.79941e-13 -2.83058e-11 -8.83894e-12)
(-1.07048e-12 -2.68509e-11 -7.13632e-12)
(5.95013e-13 -2.98976e-11 -4.93746e-12)
(9.86813e-13 -3.26626e-11 -2.75834e-12)
(2.36612e-12 -3.01571e-11 -1.10233e-12)
(2.17818e-12 -3.09898e-11 6.41766e-13)
(-4.92744e-13 -3.05902e-11 9.66582e-13)
(-2.06564e-12 -3.11421e-11 -2.05525e-12)
(-7.12191e-13 -2.64207e-11 -4.50338e-12)
(1.90341e-12 -2.53476e-11 -5.65703e-12)
(3.07653e-12 -2.60211e-11 -3.88999e-12)
(4.65478e-13 -2.78272e-11 -5.04845e-13)
(-2.06801e-12 -2.28364e-11 1.86354e-12)
(-5.46521e-13 -2.0802e-11 8.82713e-12)
(-5.70858e-13 -2.21657e-11 1.40125e-11)
(1.46116e-12 -1.96681e-11 1.0708e-11)
(2.88481e-12 -1.97532e-11 5.76254e-12)
(-1.30738e-12 -2.08979e-11 -1.68824e-12)
(-4.29293e-12 -2.01153e-11 -1.37451e-11)
(-2.85176e-12 -1.72835e-11 -2.31416e-11)
(-5.00437e-12 -1.85925e-11 -3.03063e-11)
(-4.9275e-12 -1.79417e-11 -3.62939e-11)
(-7.50329e-13 -1.93781e-11 -4.02424e-11)
(-2.04567e-13 -2.00645e-11 -4.49639e-11)
(6.33813e-13 -1.89874e-11 -4.47254e-11)
(-1.20017e-12 -1.88996e-11 -4.5652e-11)
(-2.96376e-12 -2.05988e-11 -4.47364e-11)
(-3.4711e-12 -1.77793e-11 -4.52109e-11)
(-9.18875e-13 -1.68427e-11 -4.45579e-11)
(1.5684e-12 -1.6619e-11 -3.93602e-11)
(2.48141e-13 -1.96992e-11 -2.79515e-11)
(-1.56974e-13 -2.03252e-11 -1.76923e-11)
(-2.2054e-12 -2.45431e-11 -9.65194e-12)
(-4.45955e-12 -2.27822e-11 -4.04869e-12)
(-4.29202e-12 -2.05032e-11 -1.13012e-12)
(-3.68254e-12 -2.22416e-11 1.13897e-12)
(-1.48381e-12 -2.31177e-11 1.16389e-12)
(-9.94563e-14 -2.25675e-11 -1.78572e-12)
(2.55128e-12 -2.25627e-11 -3.99628e-12)
(1.50612e-12 -2.23626e-11 -6.81347e-12)
(-2.85739e-13 -2.45935e-11 -7.92176e-12)
(1.5122e-12 -2.80301e-11 -8.03157e-12)
(-3.46155e-13 -2.95052e-11 -7.78178e-12)
(-1.82034e-12 -3.04151e-11 -8.5601e-12)
(3.73857e-13 -2.76377e-11 -9.45352e-12)
(-1.09807e-12 -2.74766e-11 -1.19129e-11)
(-3.45291e-12 -2.93981e-11 -1.2655e-11)
(-3.0621e-12 -2.6495e-11 -1.28127e-11)
(-2.14934e-12 -2.3706e-11 -1.58336e-11)
(-7.42602e-13 -2.3824e-11 -1.92639e-11)
(1.14814e-12 -2.29735e-11 -1.90369e-11)
(1.2137e-12 -2.35315e-11 -1.92671e-11)
(2.45589e-12 -2.56506e-11 -1.75712e-11)
(4.82476e-12 -2.71514e-11 -1.55363e-11)
(5.99447e-12 -2.45273e-11 -1.56021e-11)
(5.57794e-12 -2.2644e-11 -1.73518e-11)
(3.5249e-12 -2.04752e-11 -1.47235e-11)
(3.19155e-12 -2.01399e-11 -1.49842e-11)
(3.88632e-12 -1.85217e-11 -1.49962e-11)
(4.99313e-12 -1.7947e-11 -1.07126e-11)
(1.79663e-12 -1.78494e-11 -9.219e-12)
(-5.98304e-14 -1.63524e-11 -7.01913e-12)
(-7.34057e-13 -1.76688e-11 -5.76371e-12)
(-2.85988e-12 -1.45938e-11 -6.39958e-12)
(-3.2512e-12 -1.07391e-11 -7.31782e-12)
(-5.32495e-14 -1.10726e-11 -7.53273e-12)
(2.29915e-12 -1.72286e-11 4.58471e-12)
(7.0633e-13 -1.57794e-11 1.98833e-11)
(5.46973e-12 -1.5408e-11 2.59416e-11)
(8.20892e-12 -1.38392e-11 2.55958e-11)
(4.54338e-12 -1.69254e-11 2.08077e-11)
(5.60129e-13 -2.19997e-11 8.14448e-12)
(-6.05786e-12 -1.62821e-11 -6.48628e-12)
(-7.27939e-12 -1.91818e-11 -1.38055e-11)
(-3.13011e-12 -2.03584e-11 -1.33696e-11)
(-3.31743e-12 -2.18967e-11 -8.16955e-12)
(-5.39613e-12 -1.74945e-11 -7.22459e-12)
(-2.32793e-12 -1.71141e-11 -6.66765e-12)
(-4.42198e-12 -1.82038e-11 -1.08582e-11)
(-8.21436e-12 -2.03556e-11 -1.41024e-11)
(-6.16735e-12 -1.97571e-11 -1.44029e-11)
(-1.54054e-12 -2.14803e-11 -1.39595e-11)
(2.25591e-12 -2.3052e-11 -1.25844e-11)
(2.24799e-12 -2.4078e-11 -1.14996e-11)
(-1.89451e-12 -2.48076e-11 -1.21377e-11)
(-3.12207e-12 -2.4185e-11 -1.27275e-11)
(-1.36994e-12 -2.32394e-11 -1.34187e-11)
(-1.68346e-12 -2.20517e-11 -1.3586e-11)
(-2.03021e-12 -2.37193e-11 -1.42029e-11)
(1.28312e-12 -2.45774e-11 -1.51677e-11)
(2.93894e-12 -2.86334e-11 -1.56244e-11)
(6.11653e-13 -2.7293e-11 -1.35902e-11)
(-1.88506e-12 -2.99827e-11 -1.21207e-11)
(1.82729e-12 -2.75483e-11 -1.04395e-11)
(1.04039e-12 -2.65177e-11 -7.92096e-12)
(3.68795e-13 -2.93404e-11 -6.7261e-12)
(2.66302e-12 -2.92575e-11 -3.46279e-12)
(-4.37648e-13 -3.06903e-11 -1.54554e-12)
(1.47894e-12 -2.7696e-11 6.98208e-13)
(3.88701e-12 -2.94158e-11 3.70503e-12)
(-6.70268e-13 -3.20425e-11 2.7518e-12)
(-4.63645e-12 -2.89407e-11 1.07857e-12)
(-2.76709e-12 -2.72973e-11 -1.57375e-12)
(1.87605e-12 -2.67151e-11 -3.07871e-12)
(3.88791e-12 -2.77557e-11 -7.12397e-13)
(-1.21768e-12 -2.92792e-11 2.73423e-12)
(-4.89153e-12 -2.44362e-11 6.12555e-12)
(-1.08258e-12 -2.33496e-11 9.48468e-12)
(-1.85579e-12 -2.25441e-11 1.14366e-11)
(-1.24632e-12 -1.89395e-11 9.42551e-12)
(2.55858e-12 -1.79498e-11 7.57822e-12)
(-4.55202e-13 -1.77639e-11 8.7257e-13)
(-5.41779e-12 -2.05977e-11 -1.10877e-11)
(-4.41245e-12 -1.63859e-11 -2.12304e-11)
(-5.3277e-12 -1.38906e-11 -3.11209e-11)
(-5.02547e-12 -1.75457e-11 -3.75914e-11)
(5.67058e-13 -1.8797e-11 -4.00082e-11)
(-4.21171e-13 -1.84969e-11 -4.39932e-11)
(-1.90102e-12 -1.76201e-11 -4.53008e-11)
(-1.13726e-12 -1.89573e-11 -4.65347e-11)
(-3.36009e-12 -1.71148e-11 -4.69923e-11)
(-3.66988e-12 -1.7259e-11 -4.77612e-11)
(1.48803e-13 -1.71385e-11 -4.69369e-11)
(2.78209e-12 -1.84773e-11 -4.1727e-11)
(-1.84575e-13 -1.73466e-11 -3.2273e-11)
(6.02119e-13 -1.88163e-11 -2.03651e-11)
(-2.31756e-12 -2.37316e-11 -1.13236e-11)
(-6.01731e-12 -2.13145e-11 -4.88548e-12)
(-3.45632e-12 -2.01156e-11 -1.41263e-13)
(-7.25577e-13 -2.29869e-11 2.57813e-12)
(-1.10748e-12 -2.65983e-11 2.16151e-12)
(-1.09075e-12 -2.46698e-11 6.6763e-13)
(1.84381e-12 -2.36643e-11 -2.98828e-12)
(2.029e-12 -2.23293e-11 -7.30945e-12)
(2.4731e-12 -2.60536e-11 -6.69737e-12)
(4.54704e-12 -2.97157e-11 -7.21278e-12)
(6.80602e-14 -2.9498e-11 -8.11781e-12)
(-3.91075e-12 -3.0183e-11 -9.75436e-12)
(-4.41942e-13 -2.91279e-11 -1.15819e-11)
(-4.66377e-13 -3.11169e-11 -1.43065e-11)
(-4.07831e-12 -3.22343e-11 -1.41664e-11)
(-4.85019e-12 -2.96071e-11 -1.43679e-11)
(-2.87877e-12 -2.55599e-11 -1.68017e-11)
(-9.2339e-13 -2.56461e-11 -2.05985e-11)
(1.78085e-12 -2.46074e-11 -2.12527e-11)
(1.65456e-12 -2.52025e-11 -2.25409e-11)
(3.43593e-12 -2.6363e-11 -1.82665e-11)
(4.65082e-12 -2.73542e-11 -1.51261e-11)
(3.65729e-12 -2.58415e-11 -1.56434e-11)
(3.2771e-12 -2.08853e-11 -1.85045e-11)
(1.58749e-12 -2.14924e-11 -1.53971e-11)
(2.31551e-12 -1.88098e-11 -1.33241e-11)
(2.82225e-12 -1.88987e-11 -1.16987e-11)
(4.40063e-12 -1.8292e-11 -9.46663e-12)
(3.47481e-12 -1.98757e-11 -8.14736e-12)
(6.10691e-13 -1.85624e-11 -6.14214e-12)
(-4.79722e-13 -1.54296e-11 -4.37894e-12)
(-4.3628e-12 -1.37607e-11 -4.07342e-12)
(-4.38918e-12 -1.31931e-11 -3.74891e-12)
(-1.68833e-12 -1.3444e-11 -2.5193e-12)
(1.37447e-13 -2.07812e-11 3.72324e-12)
(3.33226e-13 -1.68235e-11 2.13536e-11)
(3.12389e-12 -1.84837e-11 2.78465e-11)
(5.91319e-12 -1.60548e-11 2.72485e-11)
(8.09484e-12 -1.91047e-11 2.12095e-11)
(4.60083e-13 -2.05731e-11 6.42617e-12)
(-6.65432e-12 -1.82893e-11 -1.3412e-11)
(-4.81012e-12 -2.01526e-11 -2.30439e-11)
(-6.97497e-13 -2.04505e-11 -2.00659e-11)
(-3.78431e-12 -2.18594e-11 -9.34482e-12)
(-7.99212e-12 -2.03893e-11 -7.53235e-12)
(-3.45699e-12 -1.99986e-11 -7.81257e-12)
(-3.23865e-12 -2.16377e-11 -1.03398e-11)
(-7.40189e-12 -2.55839e-11 -1.40423e-11)
(-6.14443e-12 -2.59478e-11 -1.31454e-11)
(-6.04867e-13 -2.66856e-11 -1.22584e-11)
(2.05147e-12 -2.64664e-11 -9.54474e-12)
(3.40775e-12 -2.91173e-11 -8.80464e-12)
(-1.02997e-12 -2.70518e-11 -8.80571e-12)
(-4.82302e-12 -2.75214e-11 -8.48045e-12)
(-2.54417e-12 -2.78485e-11 -9.69605e-12)
(-1.15746e-12 -2.6198e-11 -9.61796e-12)
(5.13636e-13 -2.79007e-11 -9.62486e-12)
(4.13417e-12 -2.80651e-11 -1.12731e-11)
(3.48994e-12 -2.84049e-11 -1.26894e-11)
(2.0398e-12 -3.01057e-11 -1.07208e-11)
(-3.81595e-13 -3.02298e-11 -1.08298e-11)
(-1.26704e-12 -3.14587e-11 -8.28986e-12)
(1.05554e-12 -2.7407e-11 -5.9659e-12)
(9.8815e-13 -2.79725e-11 -7.72182e-12)
(1.68894e-12 -2.76122e-11 -4.63716e-12)
(-2.08596e-13 -2.46707e-11 -1.50833e-12)
(4.07401e-13 -2.78106e-11 1.67926e-12)
(5.10595e-12 -2.42877e-11 5.70222e-12)
(-1.05818e-12 -2.84257e-11 3.74768e-12)
(-5.22529e-12 -2.75673e-11 3.16696e-12)
(-1.36054e-12 -3.03226e-11 1.95849e-12)
(3.30585e-12 -2.98233e-11 1.50637e-12)
(4.65552e-12 -3.19583e-11 3.05553e-12)
(-2.29198e-12 -2.88585e-11 7.38327e-12)
(-6.29763e-12 -2.82958e-11 1.20103e-11)
(-2.9158e-12 -2.78211e-11 1.33502e-11)
(-4.38155e-12 -2.73238e-11 9.96577e-12)
(-2.64929e-12 -2.35176e-11 8.16908e-12)
(1.63462e-12 -2.27006e-11 6.48602e-12)
(1.19102e-12 -1.82228e-11 4.14976e-13)
(-4.43917e-12 -2.06384e-11 -8.25513e-12)
(-8.75661e-12 -1.76525e-11 -1.98141e-11)
(-5.98649e-12 -1.65043e-11 -3.05394e-11)
(-3.78132e-12 -2.0052e-11 -3.80737e-11)
(-7.66454e-13 -2.09361e-11 -4.0245e-11)
(-1.19847e-12 -1.78665e-11 -4.23086e-11)
(6.66477e-13 -1.89049e-11 -4.45945e-11)
(-1.04765e-12 -1.92075e-11 -4.72911e-11)
(-5.14363e-12 -1.95488e-11 -4.72704e-11)
(-3.46676e-12 -2.07274e-11 -4.91315e-11)
(-6.23577e-13 -1.99937e-11 -4.85624e-11)
(1.0175e-12 -2.14599e-11 -4.42691e-11)
(4.30425e-13 -1.90128e-11 -3.57847e-11)
(4.59703e-12 -1.98755e-11 -2.29362e-11)
(-2.00173e-12 -2.51382e-11 -1.19427e-11)
(-6.88641e-12 -2.41494e-11 -4.37949e-12)
(-2.56423e-12 -2.39688e-11 1.1665e-12)
(1.81316e-12 -2.47514e-11 4.89724e-12)
(-3.59462e-13 -2.53279e-11 7.32148e-12)
(-3.00255e-12 -2.56765e-11 4.36065e-12)
(1.80134e-13 -2.58007e-11 4.20753e-13)
(3.02497e-12 -2.62722e-11 -4.24235e-12)
(6.30495e-12 -2.76399e-11 -4.73076e-12)
(4.8586e-12 -2.86304e-11 -6.42148e-12)
(-7.25553e-13 -3.01241e-11 -8.1984e-12)
(-4.22387e-12 -3.15999e-11 -9.88124e-12)
(-5.20919e-13 -2.96414e-11 -1.16258e-11)
(1.19142e-12 -2.78975e-11 -1.38405e-11)
(-4.08391e-12 -2.93968e-11 -1.46833e-11)
(-7.45728e-12 -3.15001e-11 -1.44578e-11)
(-4.96024e-12 -3.00431e-11 -1.77385e-11)
(-1.61701e-12 -2.84173e-11 -2.1938e-11)
(7.2172e-13 -2.64454e-11 -2.02661e-11)
(2.40809e-12 -2.58307e-11 -2.17357e-11)
(4.26529e-12 -2.63504e-11 -1.71766e-11)
(4.50889e-12 -2.43659e-11 -1.41976e-11)
(1.58663e-12 -2.33345e-11 -1.44393e-11)
(2.20786e-12 -2.18848e-11 -1.66268e-11)
(1.66335e-12 -2.33714e-11 -1.26944e-11)
(7.64941e-13 -2.37025e-11 -9.80006e-12)
(3.66989e-12 -2.38076e-11 -8.46077e-12)
(5.76182e-12 -2.25168e-11 -7.40134e-12)
(2.20558e-12 -2.2796e-11 -5.54086e-12)
(-2.79392e-12 -2.40612e-11 -3.9467e-12)
(-3.04087e-12 -1.97831e-11 -2.81715e-12)
(-4.43455e-12 -1.66096e-11 -1.95788e-12)
(-3.42638e-12 -1.76452e-11 -2.6505e-12)
(-1.44584e-12 -1.73248e-11 -3.0332e-12)
(-9.71093e-13 -2.76163e-11 1.05861e-11)
(8.1584e-13 -2.51773e-11 2.34843e-11)
(2.50166e-12 -2.65363e-11 2.80744e-11)
(6.83695e-12 -2.29614e-11 2.6155e-11)
(8.58289e-12 -1.99756e-11 1.91618e-11)
(-4.87198e-13 -1.94517e-11 7.66229e-12)
(-7.51304e-12 -2.42967e-11 -6.92569e-12)
(-4.38048e-12 -2.43161e-11 -1.40435e-11)
(-3.24423e-13 -2.29993e-11 -1.28461e-11)
(-2.98073e-12 -2.26482e-11 -4.68089e-12)
(-7.01548e-12 -2.35091e-11 -3.48758e-12)
(-2.60053e-12 -2.36119e-11 -3.26225e-12)
(-1.16644e-12 -2.49759e-11 -3.78533e-12)
(-4.97356e-12 -2.80738e-11 -2.58355e-12)
(-6.44425e-12 -2.94926e-11 -3.94776e-12)
(-2.58603e-12 -2.96089e-11 -3.10654e-12)
(2.92546e-12 -2.94523e-11 -2.70274e-12)
(9.98459e-13 -3.17195e-11 -2.01748e-12)
(-4.25482e-12 -3.10298e-11 -2.12699e-12)
(-3.05634e-12 -3.39051e-11 -1.73448e-12)
(-1.79701e-12 -3.50303e-11 -1.63047e-12)
(-6.05616e-13 -3.29433e-11 -1.65989e-12)
(1.35731e-12 -3.45819e-11 -1.22262e-12)
(3.32178e-12 -3.12086e-11 -1.48747e-12)
(7.00038e-12 -3.08844e-11 -2.43845e-12)
(3.49917e-12 -3.5074e-11 -1.61316e-12)
(5.68781e-13 -3.3808e-11 -2.73128e-12)
(-1.42347e-12 -3.55443e-11 -1.76296e-12)
(-1.64932e-12 -3.29375e-11 -2.66686e-12)
(1.76362e-12 -3.08704e-11 -4.8946e-12)
(2.20872e-13 -2.99615e-11 -4.39955e-12)
(6.80043e-13 -2.62065e-11 -6.90338e-13)
(1.25941e-12 -3.02453e-11 1.03858e-12)
(3.5965e-12 -2.65561e-11 4.09531e-12)
(1.52633e-12 -2.85447e-11 4.94157e-12)
(-3.12091e-12 -3.22642e-11 4.34797e-12)
(-2.42095e-13 -3.5328e-11 3.26641e-12)
(4.56465e-12 -3.52169e-11 2.56659e-12)
(3.7129e-12 -3.37671e-11 4.47167e-12)
(-4.55146e-12 -3.02605e-11 8.27309e-12)
(-5.85138e-12 -3.20225e-11 1.32546e-11)
(-1.81625e-12 -2.88193e-11 1.61224e-11)
(-5.49421e-12 -2.9577e-11 1.49245e-11)
(-5.57975e-12 -2.76647e-11 9.56544e-12)
(-1.60984e-12 -2.3613e-11 8.48663e-12)
(-2.25234e-12 -2.17316e-11 -1.12274e-12)
(-4.22126e-12 -1.73871e-11 -1.05166e-11)
(-7.65532e-12 -2.12714e-11 -1.81057e-11)
(-4.98471e-12 -2.17649e-11 -2.7241e-11)
(-1.35251e-12 -2.26953e-11 -3.35786e-11)
(-2.14217e-12 -2.09047e-11 -3.66207e-11)
(-3.57966e-12 -2.21165e-11 -3.73984e-11)
(-1.67786e-12 -2.20532e-11 -3.92865e-11)
(-7.72997e-13 -2.04836e-11 -4.12508e-11)
(-1.00509e-12 -2.44831e-11 -4.34524e-11)
(-1.10968e-12 -2.52069e-11 -4.57264e-11)
(1.20063e-12 -2.47486e-11 -4.42057e-11)
(1.74693e-12 -2.4419e-11 -4.09155e-11)
(-3.6461e-13 -2.30618e-11 -3.61903e-11)
(4.62473e-12 -2.34765e-11 -2.35463e-11)
(2.33651e-14 -2.64257e-11 -1.09397e-11)
(-5.7882e-12 -2.93396e-11 -4.00532e-12)
(-2.58934e-12 -2.90007e-11 1.64148e-12)
(1.53898e-13 -2.85463e-11 5.1041e-12)
(9.24115e-14 -2.74885e-11 6.57182e-12)
(-3.64141e-13 -2.92236e-11 5.90028e-12)
(1.68462e-12 -3.14291e-11 3.1888e-12)
(2.94236e-12 -3.42059e-11 -3.93126e-13)
(4.4768e-12 -3.16265e-11 -2.90106e-12)
(5.60957e-12 -2.91037e-11 -5.81822e-12)
(1.37838e-12 -2.88201e-11 -8.35912e-12)
(-5.59471e-12 -3.07692e-11 -9.87517e-12)
(-2.95233e-12 -3.01391e-11 -1.16207e-11)
(3.41495e-13 -3.00652e-11 -1.31511e-11)
(-2.23269e-12 -3.13151e-11 -1.38909e-11)