/*--------------------------------*- C++ -*----------------------------------*\
| =========                 |                                                 |
| \\      /  F ield         | OpenFOAM: The Open Source CFD Toolbox           |
|  \\    /   O peration     | Version:  2406                                  |
|   \\  /    A nd           | Website:  www.openfoam.com                      |
|    \\/     M anipulation  |                                                 |
\*---------------------------------------------------------------------------*/
FoamFile
{
    version     2.0;
    format      ascii;
    arch        "LSB;label=32;scalar=64";
    class       volScalarField;
    location    "0.02";
    object      Ma;
}
// * * * * * * * * * * * * * * * * * * * * * * * * * * * * * * * * * * * * * //

dimensions      [0 0 0 0 0 0 0];

internalField   nonuniform List<scalar> 
13948
(
7.7333e-14
6.76688e-14
7.24288e-14
7.35776e-14
4.08256e-14
5.31606e-14
6.80112e-14
6.47931e-14
7.9894e-14
1.22856e-13
1.08033e-13
1.2576e-13
1.42421e-13
1.26126e-13
9.14786e-14
9.07358e-14
8.82118e-14
9.45144e-14
8.67536e-14
8.6075e-14
9.28615e-14
1.01304e-13
8.7724e-14
8.01607e-14
8.73707e-14
8.18928e-14
8.84742e-14
8.18545e-14
7.38977e-14
8.63378e-14
8.74146e-14
6.74607e-14
8.98211e-14
9.13576e-14
7.10479e-14
5.70813e-14
8.20328e-14
6.83648e-14
9.35819e-14
8.64927e-14
9.8325e-14
1.10947e-13
1.08403e-13
1.08163e-13
9.53921e-14
9.2838e-14
5.62048e-14
4.40285e-14
6.99013e-14
5.64971e-14
6.66749e-14
3.99181e-14
1.44426e-14
2.35053e-14
2.73403e-14
4.12676e-14
5.61934e-14
3.90516e-14
3.88391e-14
1.78363e-14
3.19691e-14
3.76609e-14
6.00359e-14
2.35214e-14
1.86271e-14
2.57896e-14
1.52593e-14
2.28134e-14
1.16472e-14
2.85123e-14
4.30492e-14
4.96858e-14
9.19191e-14
7.81286e-14
4.93095e-14
3.81182e-14
2.30161e-14
2.10272e-14
3.88491e-14
2.9753e-14
2.17048e-14
3.66454e-14
4.92712e-14
6.7518e-14
4.39957e-14
5.08976e-14
6.92916e-14
5.001e-14
2.8793e-14
3.58582e-14
4.17816e-14
4.50067e-14
5.34813e-14
6.12276e-14
6.90909e-14
7.8348e-14
5.7275e-14
8.14693e-14
7.60527e-14
5.35026e-14
8.21641e-14
6.93202e-14
7.15856e-14
5.99257e-14
3.41174e-14
5.10578e-14
7.03564e-14
6.52844e-14
7.80102e-14
1.08299e-13
9.98496e-14
1.18713e-13
1.26987e-13
1.25657e-13
8.87064e-14
9.26778e-14
8.04336e-14
8.41408e-14
7.42491e-14
8.63678e-14
8.85382e-14
9.34344e-14
8.94576e-14
7.77903e-14
8.82126e-14
8.34571e-14
8.29123e-14
8.4611e-14
6.86265e-14
8.33433e-14
8.64763e-14
7.04618e-14
8.31834e-14
8.30753e-14
6.30006e-14
5.62324e-14
7.93016e-14
6.47927e-14
8.05428e-14
7.92981e-14
9.45587e-14
1.07603e-13
1.00163e-13
9.91478e-14
9.38678e-14
8.11073e-14
5.40761e-14
4.56074e-14
6.35033e-14
5.22562e-14
6.70796e-14
3.97055e-14
1.87335e-14
2.08827e-14
3.32032e-14
4.13118e-14
4.76972e-14
3.9641e-14
3.58986e-14
2.75974e-14
2.59042e-14
4.25505e-14
4.90154e-14
2.64662e-14
2.01295e-14
2.77563e-14
2.37852e-14
3.41946e-14
1.4121e-14
3.41931e-14
4.8173e-14
4.18999e-14
6.70001e-14
6.66671e-14
5.19968e-14
3.62168e-14
2.10604e-14
2.03441e-14
3.46358e-14
3.56449e-14
2.42128e-14
3.39274e-14
4.61586e-14
5.83905e-14
4.26531e-14
4.91405e-14
6.7394e-14
4.87762e-14
2.83397e-14
3.44465e-14
3.95557e-14
4.33474e-14
4.77686e-14
5.22993e-14
5.89418e-14
6.49435e-14
5.34982e-14
6.95323e-14
6.93532e-14
3.54186e-14
3.75038e-14
4.36672e-14
2.82139e-14
1.43737e-14
8.6649e-15
1.30646e-14
1.72368e-14
2.86276e-14
4.39984e-14
6.15301e-14
5.80076e-14
5.59063e-14
4.08001e-14
3.96059e-14
5.10603e-14
6.29515e-14
5.9692e-14
6.91407e-14
8.50244e-14
8.14076e-14
8.69542e-14
9.34242e-14
9.41565e-14
7.44744e-14
7.56483e-14
7.35734e-14
7.02467e-14
5.98102e-14
7.52159e-14
7.92097e-14
8.22239e-14
8.04984e-14
7.12263e-14
7.91364e-14
7.40665e-14
6.19845e-14
6.69401e-14
5.9343e-14
7.90808e-14
7.99206e-14
7.47353e-14
6.23205e-14
6.67455e-14
6.00312e-14
5.60058e-14
6.551e-14
5.17364e-14
5.81049e-14
5.96078e-14
7.12776e-14
8.21159e-14
7.95045e-14
8.05531e-14
8.02671e-14
6.00442e-14
4.02889e-14
3.56477e-14
4.44357e-14
5.34072e-14
5.56779e-14
2.12241e-14
2.22158e-14
2.46506e-14
3.32418e-14
3.53924e-14
4.04696e-14
3.87251e-14
3.21676e-14
3.02876e-14
2.62478e-14
2.77469e-14
3.26049e-14
2.90986e-14
1.67935e-14
2.3896e-14
2.50478e-14
2.26428e-14
2.19048e-14
2.88642e-14
3.60022e-14
3.22601e-14
4.56204e-14
4.45432e-14
3.8655e-14
2.23636e-14
1.60235e-14
1.5399e-14
2.30136e-14
2.7488e-14
2.31943e-14
2.09106e-14
3.13199e-14
4.69329e-14
3.91938e-14
4.06738e-14
4.2168e-14
3.46836e-14
3.01717e-14
3.18077e-14
3.34785e-14
3.47836e-14
3.93159e-14
3.74469e-14
3.69448e-14
4.38648e-14
3.98242e-14
4.54439e-14
4.9203e-14
1.07272e-14
1.48021e-14
1.99237e-14
2.83731e-14
2.90489e-14
2.77339e-14
3.21764e-14
3.90327e-14
4.03373e-14
4.36301e-14
2.94021e-14
1.31552e-14
1.28081e-14
1.76584e-14
1.46252e-14
1.66885e-14
8.58347e-15
2.19581e-14
3.34785e-14
3.82484e-14
4.02227e-14
4.41991e-14
4.42355e-14
4.06907e-14
3.43003e-14
3.98989e-14
3.72258e-14
3.59475e-14
4.37745e-14
5.00392e-14
4.11674e-14
3.48547e-14
3.36322e-14
3.44902e-14
3.6527e-14
3.17874e-14
2.10522e-14
1.35827e-14
1.01989e-14
1.44943e-14
2.16969e-14
2.50559e-14
3.38047e-14
3.20539e-14
3.34125e-14
3.74058e-14
3.69779e-14
3.79713e-14
3.86604e-14
4.30654e-14
4.58933e-14
5.08115e-14
6.49441e-14
6.2506e-14
5.49702e-14
5.87413e-14
5.73649e-14
5.32816e-14
5.06696e-14
6.06001e-14
5.22543e-14
4.67137e-14
5.89786e-14
6.25037e-14
7.11953e-14
6.15996e-14
5.6397e-14
6.45982e-14
5.3958e-14
3.78796e-14
3.72856e-14
4.52564e-14
6.92621e-14
6.8395e-14
6.95385e-14
5.06269e-14
4.34111e-14
4.25963e-14
4.8265e-14
4.7408e-14
4.06287e-14
4.30379e-14
3.94714e-14
5.10304e-14
5.99335e-14
5.77763e-14
5.54365e-14
5.51031e-14
4.13717e-14
2.67333e-14
2.61652e-14
2.84173e-14
3.4282e-14
2.84928e-14
8.60259e-15
2.75986e-14
3.08621e-14
2.80133e-14
2.73655e-14
2.8457e-14
2.42687e-14
1.79363e-14
1.29469e-14
1.39886e-14
6.53292e-15
1.08128e-14
1.30956e-14
1.31053e-14
1.14614e-14
1.12255e-14
7.73634e-15
9.499e-15
1.2447e-14
1.6093e-14
1.72402e-14
2.08378e-14
1.98994e-14
1.50641e-14
8.30276e-15
6.53699e-15
7.5453e-15
1.11065e-14
1.35676e-14
1.30368e-14
1.61128e-14
1.94883e-14
2.69605e-14
2.54503e-14
2.4552e-14
1.94465e-14
1.87893e-14
2.22009e-14
2.58145e-14
2.59692e-14
2.90194e-14
2.95128e-14
2.5353e-14
2.11135e-14
3.10436e-14
3.08689e-14
3.79063e-14
4.9559e-14
1.77223e-14
2.01923e-14
2.209e-14
1.97289e-14
1.49088e-14
2.071e-14
2.47934e-14
2.64212e-14
3.28795e-14
4.37414e-14
3.90145e-14
3.1963e-14
1.74832e-14
1.50883e-14
1.54716e-14
1.27667e-14
1.52251e-14
1.8996e-14
1.30485e-14
2.05404e-14
2.36554e-14
2.98424e-14
2.95427e-14
3.35399e-14
3.38542e-14
3.42748e-14
3.5166e-14
3.68051e-14
3.52771e-14
3.71075e-14
4.11444e-14
4.64392e-14
4.16102e-14
3.35895e-14
3.14564e-14
3.15431e-14
3.03561e-14
2.78835e-14
2.28653e-14
2.17736e-14
1.68791e-14
1.72191e-14
2.46809e-14
2.33292e-14
2.05303e-14
1.99066e-14
1.34132e-14
1.97107e-14
2.25176e-14
1.81377e-14
2.23367e-14
2.75318e-14
3.10364e-14
3.50082e-14
4.21138e-14
4.47459e-14
3.50166e-14
4.21904e-14
3.68867e-14
3.07926e-14
3.01696e-14
3.27266e-14
2.86812e-14
2.55716e-14
4.07789e-14
4.78676e-14
5.74729e-14
4.91742e-14
4.64203e-14
4.30598e-14
3.2746e-14
2.02303e-14
2.4e-14
2.10463e-14
4.53041e-14
5.70555e-14
7.3144e-14
5.66637e-14
3.41188e-14
2.21092e-14
3.22561e-14
3.03115e-14
2.35696e-14
2.32012e-14
2.70387e-14
4.52226e-14
5.29126e-14
3.8372e-14
3.3318e-14
3.87928e-14
3.01923e-14
2.79955e-14
2.0587e-14
2.17174e-14
1.70066e-14
1.39705e-14
9.96342e-15
2.85244e-14
4.20821e-14
3.14223e-14
2.33104e-14
2.29708e-14
1.36948e-14
5.86099e-15
1.1744e-14
2.82206e-15
7.82449e-15
1.06646e-14
1.62164e-14
5.66493e-15
5.17367e-15
1.20695e-14
1.95647e-14
1.63832e-14
1.45025e-14
1.15012e-14
1.56215e-14
1.01955e-14
2.82835e-15
7.77746e-15
6.30801e-15
1.00637e-14
9.60839e-15
1.09411e-14
1.63959e-14
1.47859e-14
1.59763e-14
2.00421e-14
1.87494e-14
1.38864e-14
1.33602e-14
1.42129e-14
1.38698e-14
2.09809e-14
3.24234e-14
2.22432e-14
2.48006e-14
1.94223e-14
1.8849e-14
2.2527e-14
2.55476e-14
3.54879e-14
3.94494e-14
4.94342e-14
2.85089e-14
2.70491e-14
2.99141e-14
2.52485e-14
2.39356e-14
2.14345e-14
2.50547e-14
2.86708e-14
2.36949e-14
3.00012e-14
3.7281e-14
3.81966e-14
2.65998e-14
3.09023e-14
2.94253e-14
3.08579e-14
2.40803e-14
2.5242e-14
2.62537e-14
2.14895e-14
2.29774e-14
2.69368e-14
2.63179e-14
2.56643e-14
3.53531e-14
3.97241e-14
3.97058e-14
4.45077e-14
4.02614e-14
4.05982e-14
3.93684e-14
4.33284e-14
5.0242e-14
4.40329e-14
3.90963e-14
4.03448e-14
4.00027e-14
3.32273e-14
2.67458e-14
2.40499e-14
2.70027e-14
2.33957e-14
2.06119e-14
2.64824e-14
2.34833e-14
1.74695e-14
1.86871e-14
7.98633e-15
1.32719e-14
1.88672e-14
1.68831e-14
2.52477e-14
3.0833e-14
3.41784e-14
3.18176e-14
2.98107e-14
2.92687e-14
1.87369e-14
3.62224e-14
2.46097e-14
1.76045e-14
1.95948e-14
1.47736e-14
1.31905e-14
1.23032e-14
3.13828e-14
4.05141e-14
4.59142e-14
4.08982e-14
4.10786e-14
2.86539e-14
1.67785e-14
1.33838e-14
2.61983e-14
1.68293e-14
2.74316e-14
4.79944e-14
6.53322e-14
6.39307e-14
4.79366e-14
2.31214e-14
1.94479e-14
2.48212e-14
1.74964e-14
2.72601e-14
3.05923e-14
3.73559e-14
3.57437e-14
3.54724e-14
2.60401e-14
3.6966e-14
2.57908e-14
2.22485e-14
1.42664e-14
2.55801e-14
1.366e-14
1.82638e-14
1.89321e-14
3.23292e-14
4.56162e-14
4.38018e-14
3.10031e-14
2.6901e-14
3.21377e-14
1.78305e-14
2.388e-14
6.13752e-15
7.83019e-15
6.07405e-15
2.01548e-14
1.53821e-14
5.11032e-15
2.40038e-14
3.36772e-14
3.39698e-14
3.22979e-14
3.20073e-14
2.98725e-14
2.13193e-14
1.8956e-14
2.46297e-14
1.89432e-14
2.32841e-14
2.23321e-14
1.70072e-14
2.97595e-14
2.50021e-14
2.57222e-14
3.12366e-14
2.86834e-14
2.42782e-14
1.55583e-14
2.06023e-14
1.86574e-14
2.33728e-14
3.50184e-14
2.6034e-14
2.19525e-14
1.77079e-14
2.05451e-14
1.72778e-14
2.52268e-14
3.67598e-14
4.28829e-14
4.85619e-14
2.171e-14
2.02532e-14
2.60947e-14
2.30125e-14
2.88504e-14
2.38805e-14
1.8985e-14
2.41372e-14
2.18659e-14
2.42893e-14
3.16136e-14
2.31322e-14
1.96161e-14
3.15687e-14
2.32367e-14
2.37251e-14
1.95299e-14
2.14883e-14
2.01093e-14
1.4671e-14
1.69426e-14
1.84919e-14
1.44727e-14
1.74495e-14
2.45002e-14
2.783e-14
3.1823e-14
3.66481e-14
3.60483e-14
3.28377e-14
2.81581e-14
3.45712e-14
4.454e-14
3.68741e-14
3.06953e-14
3.5881e-14
3.18374e-14
2.58589e-14
1.94169e-14
1.99694e-14
1.82016e-14
1.47246e-14
1.42742e-14
1.46769e-14
1.61398e-14
1.50894e-14
1.84804e-14
9.10015e-15
1.27751e-14
1.15937e-14
6.8199e-15
2.10765e-14
2.29696e-14
3.15655e-14
1.66349e-14
6.98032e-15
1.59403e-14
1.79042e-14
1.70992e-14
6.97888e-15
7.34943e-15
8.62018e-15
1.25459e-14
1.25175e-14
8.1881e-15
1.2394e-14
1.364e-14
1.59849e-14
1.52364e-14
1.36052e-14
1.05276e-14
1.16703e-14
1.18147e-14
2.23924e-14
6.78518e-15
1.33022e-14
4.00225e-14
6.64264e-14
6.28974e-14
5.92859e-14
1.93627e-14
5.95042e-15
1.45593e-14
1.5616e-14
2.22202e-14
2.19638e-14
2.33528e-14
1.01883e-14
1.71529e-14
2.00826e-14
1.00779e-14
1.13272e-14
5.53768e-15
1.27629e-14
2.0566e-14
1.00996e-14
1.05304e-14
2.27076e-14
3.68188e-14
5.69977e-14
5.97209e-14
3.86616e-14
3.05986e-14
3.46918e-14
2.513e-14
3.15906e-14
2.09712e-14
2.03374e-14
1.9091e-14
1.97856e-14
2.08063e-14
1.02375e-14
1.76192e-14
2.30016e-14
2.95202e-14
2.79303e-14
2.96811e-14
2.5559e-14
2.16081e-14
2.37756e-14
1.75332e-14
2.04782e-14
2.7888e-14
2.40112e-14
1.49676e-14
2.02617e-14
2.48652e-14
2.78735e-14
4.02154e-14
3.2638e-14
2.80945e-14
2.00609e-14
1.58035e-14
2.1965e-14
3.15875e-14
3.38329e-14
2.88846e-14
2.12782e-14
1.89676e-14
1.8895e-14
1.63994e-14
2.56314e-14
3.17267e-14
4.51176e-14
5.22029e-14
1.60929e-14
1.9366e-14
1.83383e-14
2.19397e-14
1.81075e-14
2.07341e-14
1.89911e-14
1.96143e-14
2.23287e-14
2.30217e-14
2.42837e-14
1.61709e-14
2.45484e-14
1.83758e-14
1.12301e-14
1.42001e-14
1.33939e-14
1.54333e-14
1.43929e-14
1.11033e-14
1.1185e-14
5.3225e-15
2.97523e-15
8.76451e-15
1.42176e-14
1.97778e-14
2.60839e-14
2.50334e-14
2.86139e-14
2.09414e-14
1.85696e-14
2.34159e-14
3.12322e-14
2.22479e-14
1.71237e-14
1.62583e-14
1.33392e-14
2.03496e-14
1.18666e-14
1.14529e-14
1.43446e-14
1.01412e-14
8.15529e-15
1.33919e-14
1.78497e-14
2.04599e-14
1.60273e-14
1.20958e-14
1.27788e-14
2.23335e-14
9.8287e-15
1.30529e-14
1.17904e-14
2.58286e-14
1.68632e-14
1.69863e-14
1.52959e-14
2.27496e-14
1.51766e-14
2.20553e-14
1.44908e-14
1.5644e-14
1.38516e-14
6.80679e-15
1.1294e-14
9.72502e-15
2.96423e-15
4.65042e-15
2.83393e-15
7.23933e-15
1.4503e-14
7.29019e-15
7.8605e-15
1.59583e-14
1.75582e-14
2.0515e-14
3.70913e-14
4.8315e-14
4.3621e-14
2.88672e-14
1.12108e-14
1.72162e-14
1.85049e-14
1.37165e-14
1.63081e-14
1.72625e-14
2.55902e-14
4.03816e-15
7.514e-15
5.47674e-15
6.35417e-15
1.01557e-14
9.04944e-15
1.21454e-14
1.85715e-14
1.64697e-14
1.52959e-14
1.48106e-14
2.65321e-14
4.688e-14
4.43644e-14
3.27299e-14
2.64008e-14
2.28951e-14
1.99294e-14
3.38241e-14
3.56384e-14
3.14129e-14
2.17388e-14
1.18845e-14
2.11177e-14
2.30465e-14
7.31562e-15
4.27673e-15
1.19254e-14
7.91503e-15
8.60447e-15
9.15182e-15
1.42187e-14
1.80447e-14
1.27001e-14
1.7213e-14
1.81932e-14
1.27608e-14
1.58843e-14
1.24984e-14
2.02709e-14
2.44563e-14
3.44321e-14
3.02747e-14
3.39647e-14
2.33994e-14
2.63808e-14
2.51758e-14
3.21978e-14
3.72723e-14
3.33468e-14
2.54197e-14
2.04013e-14
1.16217e-14
1.6593e-14
3.08981e-14
3.61615e-14
5.32303e-14
4.94931e-14
1.95031e-14
2.42573e-14
1.94648e-14
1.09754e-14
1.34242e-14
1.50918e-14
2.21085e-14
2.08285e-14
2.04176e-14
2.43298e-14
2.62284e-14
2.60142e-14
2.53358e-14
1.21723e-14
1.23285e-14
1.13153e-14
2.14752e-14
1.85754e-14
2.14734e-14
1.59985e-14
6.25438e-15
7.471e-15
4.73591e-15
8.3691e-15
1.07744e-14
1.2736e-14
1.3745e-14
1.07291e-14
8.62653e-15
7.39681e-15
6.60662e-15
1.16285e-14
8.39848e-15
1.09068e-14
6.67655e-15
1.21822e-14
1.05044e-14
1.12699e-14
6.75525e-15
1.76788e-14
1.45928e-14
7.31042e-15
7.51297e-15
1.39881e-14
1.98301e-14
2.29438e-14
1.84281e-14
1.64036e-14
1.66181e-14
1.37342e-14
1.61962e-14
8.94518e-15
7.65272e-15
1.37341e-14
2.21554e-14
1.78944e-14
1.38435e-14
2.90817e-14
3.21852e-14
2.51371e-14
2.0788e-14
1.17388e-14
2.19536e-14
1.60196e-14
1.60224e-14
9.5417e-15
7.40163e-15
1.65359e-14
1.88667e-14
1.51586e-14
5.50217e-15
2.35642e-15
5.62987e-15
7.30907e-15
4.11314e-15
1.49381e-14
2.66832e-14
2.37459e-14
1.80632e-14
1.14861e-14
9.40498e-15
4.13812e-15
7.0866e-15
8.4192e-15
7.47811e-15
1.20508e-14
1.98878e-14
9.69734e-15
6.71051e-15
1.68484e-14
1.28236e-14
1.64999e-14
9.70988e-15
8.39972e-15
1.38829e-14
1.12381e-14
9.69515e-15
1.37655e-14
1.28531e-14
1.89996e-14
2.37382e-14
1.71414e-14
1.9419e-14
1.58222e-14
1.93833e-14
2.88637e-14
2.91041e-14
2.40511e-14
2.8954e-14
2.54683e-14
2.05903e-14
1.54484e-14
1.33962e-14
2.08254e-14
9.31887e-15
1.36937e-14
1.27654e-14
1.53312e-14
1.57734e-14
1.93801e-14
1.72761e-14
1.37385e-14
1.40054e-14
6.95686e-15
1.02251e-14
4.46391e-15
7.83642e-15
1.53807e-14
2.71375e-14
3.13104e-14
3.03298e-14
2.14818e-14
3.18776e-14
3.33459e-14
4.69723e-14
4.40007e-14
4.24717e-14
3.24883e-14
2.66574e-14
1.19187e-14
1.82628e-14
3.24179e-14
3.47629e-14
5.30686e-14
5.81339e-14
1.25399e-14
7.60362e-15
1.0999e-14
1.06932e-14
7.94794e-15
6.82483e-15
1.44737e-14
1.43886e-14
1.23384e-14
1.64942e-14
2.41595e-14
1.99914e-14
1.41671e-14
1.07661e-14
2.17141e-14
1.19155e-14
6.15761e-15
2.10259e-15
8.49194e-15
1.30482e-14
1.71919e-14
9.56024e-15
1.02236e-14
1.35071e-14
1.56427e-14
1.74506e-14
1.10544e-14
1.01532e-14
8.84638e-15
8.29897e-15
1.11583e-14
6.45647e-15
4.01833e-15
3.63557e-15
6.98878e-15
1.22907e-14
1.22689e-14
7.93851e-15
1.08887e-14
1.67144e-14
6.65296e-15
5.36012e-15
1.24887e-14
1.19101e-14
1.10546e-14
1.42679e-14
1.25347e-14
2.0356e-14
3.26065e-14
2.81411e-14
2.70819e-14
1.76349e-14
1.25166e-14
1.24403e-14
2.61042e-14
2.41143e-14
2.36652e-14
3.31261e-14
4.38273e-14
3.58809e-14
3.72156e-14
2.69212e-14
2.14716e-14
2.23851e-14
2.19225e-14
1.41993e-14
1.60508e-14
2.68035e-14
2.30922e-14
2.53132e-14
1.87632e-14
8.26312e-15
1.41789e-14
1.75223e-14
1.14575e-14
1.02087e-14
1.12399e-14
1.93576e-14
1.85991e-14
1.40149e-14
1.8942e-14
2.45669e-14
1.91503e-14
2.28136e-14
2.14536e-14
2.34887e-14
1.62159e-14
1.98729e-14
2.48991e-14
3.08711e-14
2.59039e-14
2.2213e-14
1.68711e-14
1.69487e-14
1.15936e-14
3.74568e-15
4.42567e-15
5.90212e-15
4.64578e-15
8.10439e-15
8.99254e-15
9.69662e-15
1.22904e-14
1.03567e-14
1.29174e-14
1.47261e-14
1.64393e-14
2.05914e-14
2.92184e-14
3.99643e-14
2.21896e-14
1.85462e-14
1.69715e-14
2.23352e-14
2.94392e-14
2.03118e-14
1.6599e-14
2.3955e-14
1.59992e-14
1.35124e-14
1.05507e-14
1.24839e-14
1.18229e-14
5.53371e-15
4.26223e-15
6.33402e-15
1.31004e-14
9.49358e-15
1.71769e-14
3.57105e-14
3.18277e-14
1.80912e-14
3.53222e-14
4.16807e-14
5.56266e-14
5.18475e-14
5.39212e-14
4.08718e-14
2.48739e-14
1.14825e-14
1.6943e-14
2.72555e-14
2.94664e-14
4.50181e-14
5.87548e-14
1.09976e-14
6.35017e-15
6.52015e-15
9.73028e-15
7.41698e-15
9.10816e-15
1.57726e-14
2.01089e-14
2.06246e-14
2.00503e-14
1.9029e-14
1.01876e-14
7.40821e-15
1.34603e-14
1.80007e-14
9.4566e-15
5.69583e-15
4.4443e-15
8.35008e-15
9.2029e-15
7.90368e-15
5.94373e-15
5.58897e-15
1.00196e-14
1.1986e-14
1.25267e-14
1.22526e-14
8.13781e-15
2.22213e-15
5.44753e-15
4.87543e-15
5.84588e-15
8.61666e-15
5.27231e-15
2.66688e-15
6.58866e-15
7.58555e-15
1.05188e-14
1.10092e-14
1.64638e-14
1.41979e-14
1.31292e-14
1.65984e-14
2.38854e-14
2.06916e-14
1.56161e-14
7.91512e-15
2.14127e-14
2.18191e-14
3.09266e-14
2.25577e-14
1.78105e-14
1.3794e-14
1.44135e-14
1.5845e-14
2.48077e-14
2.09179e-14
2.29679e-14
2.72054e-14
2.79622e-14
2.60952e-14
1.74398e-14
1.30266e-14
1.64836e-14
1.08262e-14
1.26817e-14
1.36117e-14
1.03267e-14
9.09373e-15
1.65133e-14
2.40247e-14
2.07298e-14
1.79496e-14
1.63309e-14
1.51038e-14
2.20613e-14
1.90329e-14
1.74001e-14
1.72479e-14
6.75527e-15
1.48632e-14
1.74513e-14
1.80458e-14
2.02115e-14
1.25808e-14
1.73673e-14
1.72133e-14
2.37464e-14
3.0644e-14
2.4066e-14
2.31582e-14
2.11106e-14
1.01521e-14
6.80865e-15
1.05423e-14
1.79448e-14
1.40903e-14
5.9964e-15
5.86872e-15
7.69263e-15
5.71812e-15
1.37296e-14
1.07694e-14
1.6669e-14
4.46943e-15
1.02193e-14
2.49715e-14
2.23791e-14
3.60841e-14
2.55366e-14
1.76178e-14
1.21935e-14
1.68657e-14
3.03006e-15
1.39749e-14
1.53282e-14
1.51354e-14
1.57427e-14
1.18992e-14
6.19684e-15
1.08411e-14
1.44854e-14
1.34123e-14
1.52165e-14
9.35419e-15
1.08348e-14
1.10282e-14
2.13175e-14
7.79695e-15
1.99697e-14
1.98856e-14
2.26892e-14
2.60637e-14
3.81154e-14
5.0586e-14
5.15211e-14
4.36255e-14
2.71488e-14
2.25709e-14
9.02591e-15
1.87013e-14
3.22595e-14
3.39721e-14
4.45639e-14
4.8581e-14
2.24209e-14
2.33619e-14
2.27487e-14
2.61506e-14
2.87953e-14
2.95229e-14
3.35526e-14
3.4773e-14
3.83482e-14
3.27912e-14
2.94779e-14
2.30346e-14
2.27041e-14
2.8533e-14
2.95869e-14
2.55669e-14
1.74277e-14
1.8977e-14
1.71285e-14
2.05154e-14
2.23094e-14
2.27635e-14
2.14751e-14
2.08149e-14
2.18949e-14
2.34391e-14
2.15553e-14
2.4639e-14
2.52829e-14
2.54689e-14
2.66289e-14
2.5733e-14
2.33771e-14
2.22256e-14
1.74288e-14
1.83958e-14
2.50002e-14
2.51283e-14
2.41538e-14
2.92491e-14
2.72999e-14
3.0475e-14
3.20982e-14
3.5635e-14
3.41312e-14
2.58795e-14
1.78769e-14
9.9977e-15
1.58531e-14
2.04775e-14
2.77472e-14
2.35892e-14
1.5655e-14
1.68958e-14
2.0379e-14
1.06418e-14
1.73347e-14
2.62143e-14
2.96474e-14
2.30462e-14
1.61946e-14
1.92217e-14
2.08891e-14
2.31848e-14
1.664e-14
2.04708e-14
2.15911e-14
2.72827e-14
2.44823e-14
1.18439e-14
9.95684e-15
1.09328e-14
1.90735e-14
2.77613e-14
2.39988e-14
1.79929e-14
1.6926e-14
1.78502e-14
1.50741e-14
2.54413e-14
2.18138e-14
1.28285e-14
9.68924e-15
8.12027e-15
1.12486e-14
1.50125e-14
1.62131e-14
2.21341e-14
2.69435e-14
2.31947e-14
2.02983e-14
2.07855e-14
2.00527e-14
2.44585e-14
3.78953e-14
3.83536e-14
4.03775e-14
3.35277e-14
2.64837e-14
2.96869e-14
3.15827e-14
2.67158e-14
2.6539e-14
3.32631e-14
1.88933e-14
2.42812e-14
3.16521e-14
3.44331e-14
3.5696e-14
3.30016e-14
3.5087e-14
3.06513e-14
3.10788e-14
2.07182e-14
1.99284e-14
2.26741e-14
2.38029e-14
2.73454e-14
1.87464e-14
1.97483e-14
2.31746e-14
3.20489e-14
2.86116e-14
3.21136e-14
3.21552e-14
3.82146e-14
4.23391e-14
4.43569e-14
3.54089e-14
4.24763e-14
4.05679e-14
3.91448e-14
3.29691e-14
4.90079e-14
5.90838e-14
6.02608e-14
5.20879e-14
3.73248e-14
2.9123e-14
1.78679e-14
2.58701e-14
3.35869e-14
3.80733e-14
4.56223e-14
4.929e-14
1.26889e-14
1.08477e-14
1.19515e-14
1.21888e-14
1.58028e-14
1.82532e-14
2.87764e-14
3.55965e-14
3.70519e-14
3.43227e-14
2.0628e-14
1.10292e-14
1.36635e-14
1.75739e-14
1.66121e-14
1.34004e-14
9.40781e-15
8.42359e-15
8.76578e-15
7.74069e-15
8.43935e-15
9.00075e-15
1.39647e-14
2.16868e-14
2.05189e-14
2.37608e-14
2.06119e-14
1.64267e-14
1.52014e-14
1.13673e-14
1.25272e-14
1.00764e-14
1.41176e-14
1.52263e-14
1.09095e-14
9.61682e-15
1.319e-14
1.58924e-14
2.16883e-14
2.22911e-14
1.68816e-14
1.6644e-14
1.78665e-14
2.32788e-14
2.16931e-14
1.15879e-14
9.65389e-15
4.29342e-15
8.24294e-15
1.46396e-14
2.07179e-14
1.44633e-14
3.30547e-15
8.4073e-15
6.39273e-15
6.33936e-15
1.24453e-14
2.13598e-14
2.16205e-14
1.63272e-14
1.22022e-14
1.30121e-14
1.47405e-14
1.82723e-14
6.68778e-15
1.14131e-14
1.3782e-14
1.05535e-14
1.52047e-14
7.81519e-15
8.71558e-15
1.29864e-14
1.82611e-14
2.08834e-14
2.18271e-14
1.80556e-14
1.04718e-14
6.44068e-15
6.01863e-15
7.36435e-15
1.41183e-14
9.60893e-15
6.41606e-15
4.67916e-15
1.12297e-14
1.51291e-14
1.45542e-14
2.10101e-14
1.86349e-14
1.58745e-14
1.46801e-14
2.02343e-14
1.97366e-14
1.19502e-14
9.3128e-15
1.12682e-14
1.83779e-14
1.64936e-14
2.21791e-14
2.10451e-14
1.49871e-14
8.33314e-15
1.19687e-14
4.61938e-15
2.99812e-15
3.31711e-15
7.88082e-15
1.0195e-14
1.49375e-14
1.34692e-14
1.77959e-14
1.02655e-14
1.84866e-14
1.07747e-14
2.74677e-15
8.6131e-15
1.09327e-14
9.849e-15
1.67091e-15
5.88131e-15
8.46469e-15
1.7029e-14
8.44655e-15
1.35887e-14
1.65048e-14
2.10532e-14
2.38553e-14
1.86041e-14
2.01637e-14
2.85207e-14
2.15329e-14
1.40077e-14
3.00506e-14
4.34281e-14
5.4926e-14
5.97798e-14
3.94414e-14
1.4853e-14
1.39709e-14
1.67516e-14
2.72515e-14
2.47842e-14
3.32847e-14
3.88491e-14
3.65453e-14
5.76666e-15
1.31501e-14
7.14154e-15
5.34732e-15
8.3394e-15
9.41166e-15
1.70184e-14
2.42131e-14
2.56238e-14
2.3447e-14
1.39863e-14
8.52765e-15
5.90266e-15
1.1993e-14
5.52857e-15
7.58624e-15
6.91415e-15
6.51678e-15
7.15833e-15
9.96191e-15
9.36985e-15
9.07275e-15
1.13516e-14
1.45063e-14
1.94139e-14
2.67147e-14
1.70431e-14
8.8788e-15
3.79237e-15
3.20995e-15
3.01436e-15
8.58016e-15
1.40943e-14
5.48136e-15
1.04041e-14
6.81109e-15
8.99236e-15
1.99118e-14
2.63995e-14
2.26436e-14
1.49997e-14
1.2349e-14
1.30258e-14
1.77321e-14
1.7103e-14
1.12701e-14
1.15783e-14
8.44225e-15
9.3568e-15
1.74301e-14
1.78034e-14
9.97652e-15
6.8134e-15
7.29561e-15
3.90747e-15
9.67056e-15
9.05459e-15
1.67775e-14
1.69434e-14
1.61887e-14
1.49597e-14
7.60648e-15
1.36108e-14
2.27879e-14
9.16196e-15
1.14434e-14
1.07922e-14
6.91427e-15
1.16083e-14
8.75203e-15
1.07566e-14
1.96269e-14
1.99601e-14
2.48265e-14
1.81541e-14
1.7079e-14
5.67902e-15
9.31684e-15
5.70334e-15
3.65727e-15
1.14804e-14
1.27441e-14
5.53067e-15
4.71927e-15
7.99615e-15
1.85108e-14
1.46805e-14
1.38191e-14
1.75473e-14
1.67045e-14
1.38081e-14
1.92717e-14
1.45052e-14
6.26807e-15
5.75988e-15
6.78732e-15
5.39486e-15
1.30341e-14
2.90829e-14
2.26638e-14
8.93405e-15
4.29576e-15
9.63471e-15
1.62656e-14
1.43364e-14
1.80273e-14
1.81377e-14
1.02358e-14
1.43112e-14
1.09604e-14
2.42584e-14
9.68745e-15
1.93022e-14
8.05546e-15
1.18617e-14
5.28346e-15
8.11804e-15
7.13806e-15
8.82911e-15
3.60726e-15
4.65187e-15
7.7067e-15
7.59013e-15
1.68988e-14
9.5037e-15
6.64128e-15
1.39575e-14
2.24195e-14
2.00918e-14
2.63151e-14
1.50858e-14
1.04445e-14
2.36602e-14
3.65036e-14
4.35136e-14
4.49971e-14
2.53199e-14
4.52067e-15
9.11833e-15
1.82325e-14
2.24291e-14
2.86524e-14
2.59974e-14
3.55679e-14
5.16823e-14
5.5172e-15
6.71814e-15
5.11707e-15
6.00003e-15
1.19706e-14
1.19473e-14
1.42687e-14
2.1037e-14
2.08673e-14
1.90514e-14
1.24174e-14
1.07933e-14
1.54241e-14
1.44453e-14
8.49561e-15
6.20391e-15
1.07018e-14
1.11436e-14
1.04703e-14
1.37081e-14
9.21285e-15
8.56699e-15
1.19988e-14
1.31482e-14
2.10634e-14
2.98195e-14
1.71537e-14
9.43545e-15
4.38105e-15
3.27981e-15
4.18356e-15
4.46119e-15
1.40694e-14
3.16482e-15
7.41195e-15
6.99137e-15
1.64653e-14
2.37921e-14
2.0112e-14
1.51883e-14
1.6879e-14
1.02129e-14
9.66361e-15
1.12906e-14
7.56454e-15
1.26271e-14
1.36621e-14
1.52389e-14
1.54945e-14
9.6845e-15
1.16701e-14
1.5888e-14
1.85183e-14
1.70305e-14
2.18958e-14
2.18799e-14
1.82228e-14
2.02614e-14
2.03767e-14
2.6051e-14
2.82712e-14
1.49162e-14
1.60224e-14
1.88492e-14
1.48179e-14
7.32211e-15
1.30032e-14
2.44606e-14
1.80776e-14
1.73578e-14
1.28743e-14
2.06399e-14
2.38605e-14
2.48957e-14
1.56087e-14
1.78178e-14
1.72422e-14
1.94455e-14
1.78028e-14
1.44947e-14
1.98865e-14
2.49049e-14
2.53654e-14
2.50518e-14
2.00518e-14
1.7743e-14
1.15823e-14
1.40262e-14
1.86779e-14
1.6107e-14
1.71649e-14
2.42286e-14
1.96583e-14
1.18706e-14
9.30278e-15
8.82326e-15
5.4388e-15
1.12461e-14
2.63603e-14
1.48405e-14
8.41123e-15
8.28734e-15
1.10563e-14
7.68433e-15
6.67888e-15
1.19037e-14
5.49878e-15
6.61858e-15
5.73483e-15
1.15732e-14
1.94432e-14
1.51911e-14
8.28769e-15
9.02743e-15
2.01244e-14
1.30235e-14
6.12525e-15
9.28464e-15
1.64332e-14
9.28544e-15
1.08149e-14
1.08251e-14
1.005e-14
9.31431e-15
8.92874e-15
1.0339e-14
1.54437e-14
2.05599e-14
1.84755e-14
1.81985e-14
1.54583e-14
8.65208e-15
1.78078e-14
2.7345e-14
3.35224e-14
2.87826e-14
1.63328e-14
7.43122e-15
7.13125e-15
1.73882e-14
1.91201e-14
2.72089e-14
2.43494e-14
3.57926e-14
4.71682e-14
8.54626e-15
1.01264e-14
5.88213e-15
7.87753e-15
1.18775e-14
1.30613e-14
7.2035e-15
1.16514e-14
8.94169e-15
8.92808e-15
1.15419e-14
1.04154e-14
7.4745e-15
3.93984e-15
8.81487e-15
8.15223e-15
2.96378e-15
1.29527e-14
1.64935e-14
9.93912e-15
5.89706e-15
1.35343e-14
1.69801e-14
1.19099e-14
1.73142e-14
1.67049e-14
1.55598e-14
9.05405e-15
7.33796e-15
8.66238e-15
6.60353e-15
9.93052e-15
1.30002e-14
1.91313e-14
1.19371e-14
9.52824e-15
1.71892e-14
2.19865e-14
2.54681e-14
1.35451e-14
1.36633e-14
1.67909e-14
6.46485e-15
7.85421e-15
5.85401e-15
5.857e-15
1.44182e-14
9.81142e-15
1.4512e-14
2.17609e-14
2.78647e-14
2.38668e-14
1.78483e-14
1.05825e-14
6.60183e-15
8.1733e-15
1.27483e-14
1.54877e-14
1.14562e-14
1.43862e-14
1.24538e-14
1.06694e-14
1.34317e-14
1.42891e-14
1.62612e-14
1.64625e-14
1.13092e-14
1.04217e-14
1.27593e-14
1.48193e-14
1.17723e-14
2.03979e-14
2.32099e-14
1.92114e-14
1.07956e-14
1.68895e-14
1.78223e-14
2.4375e-14
1.68191e-14
1.59344e-14
2.04011e-14
2.54704e-14
2.045e-14
2.32035e-14
2.53459e-14
2.0077e-14
1.55746e-14
1.47403e-14
1.90853e-14
1.57984e-14
1.52363e-14
1.35894e-14
9.47661e-15
8.62709e-15
3.12437e-15
3.23963e-15
6.05909e-15
5.18691e-15
1.14039e-14
6.89532e-15
9.30948e-15
1.02836e-14
1.01602e-14
9.11541e-15
1.23633e-14
1.62748e-14
1.2724e-14
9.15169e-15
8.58065e-15
8.61644e-15
1.22438e-14
9.38758e-15
1.1257e-14
1.52303e-15
1.12496e-14
1.17631e-14
9.34254e-15
1.06695e-14
1.2728e-14
5.58715e-15
7.78359e-15
6.28606e-15
5.40916e-15
6.66915e-15
7.21406e-15
5.46857e-15
8.305e-15
8.77113e-15
8.52985e-15
4.98027e-15
5.2939e-15
9.11116e-15
9.25116e-15
1.3402e-14
1.60849e-14
1.53105e-14
9.00796e-15
2.79592e-15
5.17875e-15
9.20988e-15
1.83594e-14
1.81243e-14
2.6923e-14
4.11541e-14
5.08484e-14
1.44848e-14
1.47912e-14
1.64388e-14
1.27261e-14
1.43998e-14
1.59801e-14
1.85298e-14
1.38048e-14
1.21634e-14
1.1331e-14
9.60066e-15
9.44668e-15
1.45115e-14
1.18348e-14
1.50127e-14
1.7137e-14
2.063e-14
2.06752e-14
1.72598e-14
1.5819e-14
1.60655e-14
1.44285e-14
1.18468e-14
1.42122e-14
1.67026e-14
2.062e-14
2.49064e-14
2.80621e-14
2.62016e-14
2.30936e-14
2.11231e-14
1.35399e-14
1.80369e-14
2.58839e-14
2.59182e-14
2.20007e-14
2.54918e-14
2.8842e-14
2.29823e-14
1.58162e-14
1.30572e-14
1.67677e-14
1.93481e-14
9.63003e-15
9.16012e-15
1.40123e-14
1.46043e-14
1.2829e-14
4.47565e-15
1.28383e-14
1.54666e-14
5.71322e-15
7.50544e-15
9.57208e-15
1.48556e-14
1.45763e-14
9.41643e-15
1.00248e-14
7.29773e-15
5.83098e-15
7.24984e-15
5.26527e-15
1.01962e-14
7.26924e-15
6.63724e-15
8.76431e-15
8.23386e-15
1.51937e-14
1.48418e-14
1.00469e-14
3.77577e-15
9.48397e-15
2.52216e-14
2.08836e-14
1.85214e-14
1.08349e-14
7.18434e-15
9.84105e-15
1.101e-14
5.20151e-15
7.18995e-15
1.25171e-14
6.24521e-15
7.8237e-15
9.11366e-15
5.34748e-15
1.19742e-15
1.25084e-14
8.0612e-15
6.92943e-15
4.62843e-15
1.16123e-14
1.55811e-14
1.19335e-14
1.15009e-14
1.74024e-14
1.84385e-14
1.59503e-14
2.52435e-14
2.4362e-14
2.10448e-14
2.2661e-14
2.4137e-14
1.79427e-14
2.62457e-14
2.39994e-14
2.38671e-14
1.64272e-14
1.87969e-14
2.07669e-14
1.93079e-14
2.43536e-14
1.66888e-14
1.60921e-14
1.57894e-14
1.50589e-14
1.15283e-14
1.3851e-14
8.23605e-15
1.16186e-14
8.04389e-15
1.21494e-14
9.23421e-15
1.13808e-14
1.30185e-14
1.31076e-14
1.85419e-14
1.69786e-14
1.23453e-14
1.40906e-14
1.88274e-14
1.55475e-14
1.51174e-14
1.69146e-14
2.05992e-14
1.50711e-14
1.18524e-14
1.21311e-14
1.46193e-14
1.5103e-14
1.84461e-14
2.46002e-14
3.31611e-14
4.30823e-14
5.25822e-14
2.39072e-14
2.3063e-14
2.79079e-14
2.64694e-14
2.73265e-14
2.56503e-14
2.74211e-14
2.16499e-14
1.99333e-14
1.87976e-14
2.31487e-14
2.29591e-14
2.28455e-14
2.26773e-14
2.55844e-14
2.52791e-14
2.84032e-14
2.60196e-14
2.63109e-14
2.46253e-14
2.82534e-14
2.41956e-14
2.29576e-14
2.01825e-14
2.51058e-14
2.65837e-14
3.15338e-14
3.16157e-14
3.5604e-14
3.00134e-14
2.83323e-14
2.58794e-14
2.8717e-14
2.62002e-14
2.53485e-14
2.80605e-14
3.00729e-14
3.02062e-14
3.18405e-14
2.76335e-14
2.9245e-14
2.55954e-14
2.90241e-14
2.82202e-14
2.75831e-14
2.68257e-14
2.56356e-14
2.57126e-14
1.50918e-14
9.51273e-15
8.36756e-15
1.34164e-14
1.26405e-14
1.5336e-14
1.2087e-14
2.07614e-14
2.34081e-14
2.24356e-14
1.72278e-14
1.70164e-14
1.05748e-14
1.60098e-14
1.89169e-14
2.28586e-14
1.511e-14
1.33097e-14
1.92163e-14
2.57209e-14
2.18159e-14
1.42405e-14
1.19282e-14
9.11785e-15
1.05559e-14
1.74885e-14
2.62486e-14
1.93567e-14
1.71327e-14
1.54065e-14
6.88965e-15
1.00001e-14
5.93378e-15
7.29952e-15
1.19032e-14
1.43088e-14
1.2469e-14
1.1415e-14
1.20885e-14
9.86795e-15
9.40665e-15
6.96687e-15
9.75029e-15
1.23084e-14
2.33943e-14
1.68455e-14
1.63165e-14
2.01866e-14
2.49933e-14
2.81278e-14
2.72191e-14
2.82664e-14
2.8093e-14
2.62156e-14
2.42226e-14
2.42543e-14
2.08718e-14
2.32752e-14
2.44029e-14
1.94285e-14
2.16174e-14
2.8687e-14
2.5073e-14
3.15429e-14