/*--------------------------------*- C++ -*----------------------------------*\
| =========                 |                                                 |
| \\      /  F ield         | OpenFOAM: The Open Source CFD Toolbox           |
|  \\    /   O peration     | Version:  2406                                  |
|   \\  /    A nd           | Website:  www.openfoam.com                      |
|    \\/     M anipulation  |                                                 |
\*---------------------------------------------------------------------------*/
FoamFile
{
    version     2.0;
    format      ascii;
    arch        "LSB;label=32;scalar=64";
    class       volScalarField;
    location    "0.025";
    object      Ma;
}
// * * * * * * * * * * * * * * * * * * * * * * * * * * * * * * * * * * * * * //

dimensions      [0 0 0 0 0 0 0];

internalField   nonuniform List<scalar> 
14020
(
1.05544e-14
6.41157e-15
4.05191e-15
9.3038e-15
1.05813e-14
7.60799e-15
7.78194e-15
9.04706e-15
1.37759e-14
2.04365e-14
2.69739e-14
3.0405e-14
3.30428e-14
3.67442e-14
3.44249e-14
2.8742e-14
2.24137e-14
1.7442e-14
1.63047e-14
2.17558e-14
3.11903e-14
3.27514e-14
4.36861e-14
5.18462e-14
5.20854e-14
4.55742e-14
4.38243e-14
4.63698e-14
4.78331e-14
5.37697e-14
4.99614e-14
5.327e-14
6.03206e-14
5.41455e-14
4.70823e-14
4.51781e-14
4.31222e-14
4.5044e-14
4.15535e-14
3.86935e-14
2.81285e-14
2.4621e-14
2.94753e-14
2.69441e-14
2.597e-14
2.1928e-14
1.85538e-14
2.06355e-14
2.06416e-14
1.95979e-14
1.39432e-14
1.46024e-14
9.39084e-15
1.09519e-14
1.90112e-14
2.42639e-14
2.14491e-14
2.26275e-14
2.16627e-14
2.25661e-14
1.50396e-14
9.04629e-15
3.9274e-15
8.88393e-15
1.31067e-14
1.49491e-14
1.83765e-14
1.60727e-14
2.41661e-14
2.80548e-14
2.67491e-14
2.89891e-14
3.49546e-14
4.27516e-14
4.79963e-14
5.3302e-14
5.34243e-14
5.23659e-14
5.21746e-14
4.62662e-14
4.05168e-14
3.28661e-14
2.07915e-14
1.55743e-14
1.416e-14
1.66776e-14
2.15799e-14
1.73219e-14
1.9754e-14
1.87616e-14
1.95872e-14
2.55914e-14
3.272e-14
3.87731e-14
3.79368e-14
3.75567e-14
3.19076e-14
3.06585e-14
3.44592e-14
3.4981e-14
3.29185e-14
3.52836e-14
3.33325e-14
3.14877e-14
2.9894e-14
2.61736e-14
2.22367e-14
1.72793e-14
1.54676e-14
1.50759e-14
1.51942e-14
1.70919e-14
1.8759e-14
2.27923e-14
2.97921e-14
3.591e-14
3.65433e-14
3.64775e-14
3.66183e-14
3.94602e-14
4.21365e-14
4.12299e-14
4.05239e-14
3.75023e-14
3.0456e-14
2.25115e-14
1.99466e-14
2.23062e-14
2.37592e-14
2.71781e-14
3.2137e-14
3.62478e-14
3.93025e-14
4.12309e-14
4.19078e-14
4.13545e-14
4.06878e-14
4.43612e-14
5.09978e-14
5.8838e-14
6.39439e-14
6.50388e-14
5.85315e-14
3.96895e-14
2.54605e-14
2.43411e-14
2.04782e-14
1.8515e-14
1.47752e-14
1.44142e-14
1.13317e-14
7.2472e-15
6.55957e-15
1.49867e-14
2.45432e-14
3.22533e-14
3.48068e-14
3.51986e-14
3.47617e-14
3.71226e-14
3.04742e-14
2.80694e-14
3.07034e-14
3.28507e-14
3.88373e-14
3.59388e-14
2.60579e-14
1.6666e-14
1.42377e-14
1.43903e-14
1.62266e-14
1.36884e-14
1.89968e-14
2.23294e-14
2.57496e-14
2.43946e-14
2.35546e-14
2.189e-14
2.14873e-14
2.06469e-14
1.78569e-14
1.62836e-14
2.05796e-14
2.36454e-14
1.98585e-14
1.69899e-14
1.40879e-14
1.16777e-14
8.29092e-15
1.06632e-14
1.0391e-14
1.78588e-14
2.59948e-14
3.01507e-14
3.19704e-14
3.61364e-14
3.3017e-14
2.45476e-14
1.91986e-14
1.64724e-14
1.8618e-14
2.3454e-14
2.46019e-14
2.64842e-14
3.11534e-14
3.02189e-14
2.974e-14
3.29146e-14
3.07183e-14
2.54127e-14
2.55516e-14
2.68253e-14
2.50458e-14
2.71187e-14
3.08035e-14
3.21523e-14
2.79281e-14
2.38464e-14
2.55591e-14
2.48489e-14
2.51064e-14
2.72326e-14
3.23742e-14
3.32679e-14
3.83224e-14
3.60762e-14
3.85937e-14
3.76851e-14
3.90233e-14
4.1392e-14
3.88092e-14
1.10052e-14
8.60323e-15
4.53942e-15
7.76955e-15
1.03363e-14
8.32347e-15
7.38768e-15
1.11572e-14
1.54577e-14
2.11048e-14
2.76647e-14
3.08719e-14
3.13623e-14
3.37818e-14
3.14326e-14
2.60098e-14
2.17441e-14
1.95808e-14
1.6022e-14
1.81929e-14
2.27731e-14
2.69963e-14
3.41502e-14
4.29665e-14
4.65687e-14
4.43813e-14
4.26658e-14
4.17637e-14
4.40157e-14
4.74267e-14
4.62947e-14
4.93873e-14
5.44003e-14
5.30811e-14
4.75125e-14
4.45707e-14
4.236e-14
3.89243e-14
3.68895e-14
3.28424e-14
2.54545e-14
2.16208e-14
2.50638e-14
2.36578e-14
2.38622e-14
1.87751e-14
1.72461e-14
1.8961e-14
2.01312e-14
1.75344e-14
1.35573e-14
1.30528e-14
1.02492e-14
1.29621e-14
1.73088e-14
1.92833e-14
1.75576e-14
1.86513e-14
1.76987e-14
1.6763e-14
1.33481e-14
9.71858e-15
1.00577e-14
9.7479e-15
1.34278e-14
1.36357e-14
1.79159e-14
1.49859e-14
2.08769e-14
2.45273e-14
2.51617e-14
2.8148e-14
3.19537e-14
3.8338e-14
4.12319e-14
4.73464e-14
5.00041e-14
5.21117e-14
5.00367e-14
4.47055e-14
3.54482e-14
2.83866e-14
1.83916e-14
1.45428e-14
1.29946e-14
1.35432e-14
1.85941e-14
1.75539e-14
1.87048e-14
1.90142e-14
2.06243e-14
2.6774e-14
3.15683e-14
3.59124e-14
3.45649e-14
3.48878e-14
3.3584e-14
3.31497e-14
3.29548e-14
3.41692e-14
3.27446e-14
3.31646e-14
3.16621e-14
2.9317e-14
2.6955e-14
2.42848e-14
2.26998e-14
1.65503e-14
1.4297e-14
1.05526e-14
1.5743e-14
1.75018e-14
1.93214e-14
2.33424e-14
2.82543e-14
3.45174e-14
3.75577e-14
3.98673e-14
3.84095e-14
3.93499e-14
4.01193e-14
3.71723e-14
3.72647e-14
3.85066e-14
3.32057e-14
2.45274e-14
2.38935e-14
2.5892e-14
2.32799e-14
2.67113e-14
3.23411e-14
3.38304e-14
3.85199e-14
3.99512e-14
4.23588e-14
4.05791e-14
4.28364e-14
4.59494e-14
5.15875e-14
5.44392e-14
5.70432e-14
5.69664e-14
5.32701e-14
3.77075e-14
2.17932e-14
2.13804e-14
1.83886e-14
1.69909e-14
1.48909e-14
1.36207e-14
9.78982e-15
8.34569e-15
7.41937e-15
1.25552e-14
2.1356e-14
2.8553e-14
3.15591e-14
3.15224e-14
3.04557e-14
3.1107e-14
2.78006e-14
2.667e-14
2.73132e-14
3.14587e-14
3.48901e-14
3.26084e-14
2.42254e-14
1.39528e-14
1.23955e-14
1.25243e-14
1.04235e-14
8.75497e-15
1.56835e-14
1.85532e-14
2.21978e-14
2.23019e-14
2.11253e-14
2.01271e-14
1.88535e-14
1.81717e-14
1.67375e-14
1.60002e-14
1.76278e-14
1.94776e-14
1.74474e-14
1.3623e-14
1.28887e-14
1.23578e-14
7.59239e-15
8.29319e-15
1.16273e-14
1.81166e-14
2.51959e-14
2.82558e-14
2.98759e-14
2.96692e-14
2.86015e-14
2.54469e-14
2.17032e-14
1.67838e-14
1.61823e-14
2.05235e-14
2.26721e-14
2.34503e-14
2.90533e-14
2.71771e-14
2.54649e-14
2.72517e-14
2.67691e-14
2.42772e-14
2.41156e-14
2.64558e-14
2.43543e-14
2.53721e-14
2.67723e-14
2.70406e-14
2.26776e-14
1.74241e-14
2.11498e-14
2.28741e-14
2.34387e-14
2.59377e-14
3.17143e-14
3.08589e-14
3.55786e-14
3.48134e-14
3.67911e-14
3.72936e-14
3.81624e-14
3.99592e-14
3.70324e-14
1.15482e-14
8.33178e-15
5.34443e-15
8.96646e-15
1.08224e-14
7.54583e-15
5.07747e-15
8.3695e-15
1.63722e-14
2.31034e-14
2.7837e-14
2.97318e-14
3.02249e-14
2.97659e-14
2.71231e-14
2.30786e-14
2.0246e-14
1.67222e-14
1.47232e-14
1.5077e-14
1.60724e-14
1.91137e-14
2.18896e-14
2.89157e-14
3.53645e-14
3.86085e-14
3.73481e-14
3.80968e-14
4.16785e-14
4.42044e-14
4.45776e-14
4.48702e-14
4.77111e-14
4.87149e-14
4.47054e-14
4.08294e-14
3.67158e-14
2.86598e-14
2.99855e-14
2.70409e-14
2.25545e-14
1.76149e-14
1.78263e-14
1.89043e-14
1.86376e-14
1.62173e-14
1.60635e-14
1.61112e-14
1.79645e-14
1.45059e-14
1.1051e-14
1.04567e-14
1.42857e-14
1.2956e-14
1.37055e-14
1.31251e-14
1.26603e-14
1.42421e-14
1.21116e-14
1.33262e-14
1.03803e-14
8.42043e-15
9.25233e-15
9.4573e-15
1.3222e-14
1.4749e-14
1.73209e-14
1.56332e-14
1.78945e-14
2.21105e-14
2.51842e-14
2.62908e-14
3.17725e-14
3.37221e-14
3.58332e-14
3.87875e-14
4.66645e-14
5.07462e-14
4.77799e-14
4.31696e-14
3.39068e-14
2.43313e-14
1.43251e-14
1.44757e-14
1.26057e-14
1.32995e-14
1.82866e-14
2.00708e-14
2.17649e-14
1.93487e-14
2.23722e-14
2.75163e-14
3.31039e-14
3.59758e-14
3.52604e-14
3.57228e-14
3.44882e-14
3.3e-14
3.3063e-14
3.15444e-14
3.10634e-14
3.28406e-14
3.10626e-14
2.61551e-14
2.38653e-14
1.99142e-14
1.72076e-14
1.36666e-14
8.05232e-15
6.19766e-15
1.15968e-14
1.35067e-14
1.47529e-14
2.1899e-14
3.05673e-14
3.3687e-14
3.95074e-14
3.8947e-14
3.65015e-14
3.64862e-14
3.75598e-14
3.58908e-14
3.64102e-14
3.72003e-14
3.283e-14
2.80586e-14
2.96883e-14
2.71787e-14
2.59578e-14
2.78966e-14
3.03294e-14
3.2398e-14
3.59959e-14
3.93135e-14
4.19826e-14
4.08598e-14
4.24776e-14
4.39048e-14
4.65645e-14
4.5942e-14
4.94065e-14
4.78732e-14
4.49226e-14
3.38594e-14
2.23282e-14
1.55727e-14
1.03588e-14
9.47112e-15
1.05226e-14
1.18123e-14
8.88406e-15
7.10024e-15
7.89178e-15
1.22464e-14
1.55819e-14
2.14645e-14
2.43365e-14
2.38825e-14
2.44839e-14
2.42502e-14
2.64725e-14
2.6864e-14
2.5994e-14
2.85937e-14
2.79782e-14
2.57482e-14
1.80979e-14
1.59705e-14
1.45826e-14
1.22451e-14
1.0722e-14
1.20742e-14
1.49566e-14
1.67077e-14
1.76811e-14
1.90474e-14
1.91402e-14
1.64714e-14
1.33532e-14
1.1838e-14
1.39181e-14
1.78199e-14
2.05499e-14
1.61216e-14
1.2771e-14
9.49411e-15
7.73022e-15
9.40467e-15
1.13689e-14
9.91185e-15
1.28033e-14
1.8773e-14
2.49195e-14
2.7417e-14
2.87389e-14
2.73086e-14
2.26662e-14
2.1669e-14
2.07295e-14
1.9448e-14
1.71342e-14
1.81789e-14
1.92682e-14
2.10135e-14
2.41101e-14
2.21981e-14
2.05837e-14
2.07808e-14
2.06583e-14
2.15933e-14
2.3126e-14
2.42474e-14
2.45854e-14
2.34746e-14
2.31509e-14
2.05142e-14
1.47963e-14
1.42383e-14
1.48694e-14
1.81678e-14
2.10958e-14
2.73718e-14
2.82554e-14
2.80138e-14
3.16791e-14
3.27198e-14
3.51868e-14
3.58169e-14
3.74779e-14
3.83248e-14
3.55415e-14
1.53633e-14
1.0895e-14
6.31216e-15
6.78915e-15
8.31959e-15
8.10282e-15
5.66744e-15
7.65075e-15
1.65035e-14
2.31526e-14
2.7915e-14
2.9978e-14
2.89612e-14
2.70531e-14
2.37409e-14
2.07398e-14
1.81251e-14
1.59272e-14
1.39273e-14
1.24912e-14
1.05924e-14
1.12813e-14
1.54711e-14
2.28366e-14
2.94298e-14
3.3231e-14
3.40938e-14
3.59775e-14
3.89104e-14
4.09643e-14
3.98923e-14
3.98553e-14
4.30556e-14
4.20357e-14
3.89561e-14
3.45522e-14
3.29488e-14
2.72969e-14
2.14388e-14
1.82136e-14
1.90101e-14
1.90124e-14
1.577e-14
1.70884e-14
1.50282e-14
1.48288e-14
1.37465e-14
1.55894e-14
1.37289e-14
1.41811e-14
1.02858e-14
9.81103e-15
1.29721e-14
1.1669e-14
1.21904e-14
8.35197e-15
7.38035e-15
8.65271e-15
8.41283e-15
9.55539e-15
9.66849e-15
9.09153e-15
7.76589e-15
9.10159e-15
1.36196e-14
1.4758e-14
1.4652e-14
1.2904e-14
1.25566e-14
1.62254e-14
2.13505e-14
2.32376e-14
2.90517e-14
3.21242e-14
3.69421e-14
3.81023e-14
4.27115e-14
4.46212e-14
4.31878e-14
3.99264e-14
3.32834e-14
2.45914e-14
1.5563e-14
1.39332e-14
1.21975e-14
1.10762e-14
1.67498e-14
2.05624e-14
2.24463e-14
2.1151e-14
2.41132e-14
2.80428e-14
3.26011e-14
3.71977e-14
3.68974e-14
3.50441e-14
3.5428e-14
3.40517e-14
3.17166e-14
2.95664e-14
2.89168e-14
3.00161e-14
3.15468e-14
2.83539e-14
2.4361e-14
1.8884e-14
1.2395e-14
9.13833e-15
4.12272e-15
3.90564e-15
1.00622e-14
1.33639e-14
1.5393e-14
2.17397e-14
2.67553e-14
3.16114e-14
3.66911e-14
3.82246e-14
3.72764e-14
3.55092e-14
3.57188e-14
3.47489e-14
3.52897e-14
3.57466e-14
3.384e-14
3.07561e-14
3.02847e-14
2.90107e-14
2.92652e-14
2.86508e-14
2.6995e-14
3.20424e-14
3.4887e-14
3.86305e-14
4.11942e-14
4.05354e-14
4.27355e-14
4.26281e-14
4.59572e-14
4.88241e-14
4.81086e-14
4.77382e-14
4.0673e-14
3.12869e-14
2.12738e-14
1.6556e-14
1.00479e-14
7.34853e-15
7.58058e-15
9.50422e-15
7.54795e-15
4.7973e-15
4.72583e-15
8.19952e-15
1.12947e-14
1.47421e-14
1.66294e-14
1.57278e-14
1.75243e-14
1.96369e-14
2.20445e-14
2.22497e-14
2.45759e-14
2.41608e-14
2.26286e-14
2.15012e-14
1.8951e-14
1.86768e-14
1.71752e-14
1.55171e-14
1.33806e-14
1.46702e-14
1.33347e-14
1.41096e-14
1.59855e-14
1.4878e-14
1.52515e-14
1.28114e-14
1.0933e-14
9.81039e-15
1.40835e-14
2.07801e-14
2.11477e-14
1.67119e-14
1.16147e-14
1.0031e-14
1.21304e-14
1.0839e-14
1.29673e-14
1.58061e-14
1.43712e-14
1.85192e-14
2.42722e-14
2.68132e-14
2.82444e-14
2.73707e-14
2.14625e-14
1.90692e-14
1.6895e-14
1.52808e-14
1.44467e-14
1.6057e-14
1.62696e-14
1.85664e-14
1.94012e-14
2.04645e-14
2.04732e-14
1.71937e-14
1.57586e-14
1.86659e-14
1.92122e-14
2.05775e-14
2.19715e-14
2.10169e-14
1.95448e-14
1.48423e-14
1.07475e-14
1.13619e-14
1.45167e-14
1.85036e-14
2.04473e-14
2.63468e-14
2.89185e-14
2.84729e-14
2.85198e-14
3.03901e-14
3.28845e-14
3.44191e-14
3.61548e-14
3.65102e-14
3.52753e-14
1.79194e-14
1.35449e-14
8.16821e-15
3.86329e-15
5.9485e-15
6.85592e-15
7.34269e-15
8.1954e-15
1.3984e-14
2.27179e-14
2.75517e-14
3.01347e-14
2.79944e-14
2.44648e-14
2.23818e-14
2.02566e-14
1.87427e-14
1.61556e-14
1.39375e-14
1.15111e-14
8.26147e-15
8.29074e-15
1.08519e-14
1.74578e-14
2.37412e-14
2.70475e-14
3.09068e-14
3.46834e-14
3.86207e-14
3.95155e-14
3.87602e-14
4.01014e-14
4.00569e-14
3.78164e-14
3.55774e-14
3.21227e-14
2.94185e-14
2.68299e-14
2.08766e-14
1.65651e-14
1.65911e-14
1.81176e-14
1.41215e-14
1.18726e-14
1.4203e-14
1.43701e-14
1.57355e-14
1.74464e-14
1.45945e-14
1.2908e-14
9.46402e-15
8.54813e-15
1.04527e-14
1.03805e-14
9.74739e-15
5.64994e-15
5.02262e-15
7.64601e-15
9.73452e-15
9.40808e-15
9.52111e-15
7.49205e-15
6.91775e-15
8.38098e-15
1.20262e-14
1.33963e-14
1.31888e-14
1.18183e-14
9.62515e-15
1.06074e-14
1.52525e-14
1.81935e-14
2.29577e-14
3.13632e-14
3.66184e-14
3.68525e-14
3.9908e-14
4.09261e-14
3.94586e-14
3.60759e-14
2.96521e-14
2.25915e-14
1.62312e-14
1.19338e-14
9.8306e-15
8.95496e-15
1.5918e-14
1.94632e-14
2.22611e-14
2.12457e-14
2.44613e-14
2.76953e-14
3.21959e-14
3.55282e-14
3.78857e-14
3.7838e-14
3.54506e-14
3.33182e-14
3.04395e-14
2.90331e-14
3.00941e-14
2.89898e-14
2.83788e-14
2.8778e-14
2.50825e-14
1.96749e-14
1.3522e-14
1.09553e-14
6.3447e-15
5.99501e-15
1.08804e-14
1.10312e-14
1.49767e-14
2.25646e-14
2.87013e-14
3.09404e-14
3.56341e-14
3.72044e-14
3.6473e-14
3.68735e-14
3.50349e-14
3.43269e-14
3.39993e-14
3.59503e-14
3.4587e-14
3.07443e-14
3.01401e-14
3.09345e-14
3.07094e-14
3.06063e-14
2.87938e-14
3.03125e-14
3.35002e-14
3.55045e-14
3.50356e-14
3.59446e-14
3.80685e-14
4.02248e-14
4.25459e-14
4.43383e-14
4.38802e-14
4.47783e-14
3.85612e-14
3.01166e-14
2.14222e-14
1.63084e-14
1.28937e-14
1.06041e-14
1.11e-14
9.71023e-15
6.46805e-15
4.21099e-15
4.85043e-15
6.26259e-15
8.83497e-15
1.11004e-14
1.18835e-14
1.19114e-14
1.53318e-14
1.72039e-14
1.68554e-14
1.9785e-14
2.275e-14
2.09064e-14
2.17336e-14
1.94187e-14
1.7885e-14
1.94198e-14
1.96831e-14
1.86322e-14
1.60295e-14
1.14337e-14
9.40554e-15
1.09299e-14
1.19405e-14
1.18962e-14
1.2339e-14
1.08758e-14
9.76373e-15
1.14908e-14
1.36203e-14
1.7036e-14
1.69442e-14
1.33109e-14
1.08592e-14
1.02075e-14
1.2684e-14
1.39307e-14
1.38414e-14
1.79722e-14
1.6682e-14
1.85334e-14
2.29368e-14
2.49409e-14
2.76015e-14
2.66172e-14
2.26648e-14
1.98343e-14
1.73446e-14
1.36506e-14
1.04569e-14
1.11361e-14
1.26545e-14
1.41254e-14
1.72597e-14
1.96424e-14
1.87948e-14
1.78126e-14
1.57142e-14
1.49122e-14
1.57122e-14
1.71991e-14
1.9995e-14
1.94444e-14
1.90114e-14
1.40779e-14
1.25237e-14
1.26515e-14
1.64565e-14
2.19362e-14
2.39484e-14
2.71011e-14
2.79297e-14
2.62373e-14
2.71934e-14
3.12162e-14
3.45076e-14
3.4793e-14
3.57287e-14
3.531e-14
3.59225e-14
1.72142e-14
1.34797e-14
1.0162e-14
7.81944e-15
1.06129e-14
7.73487e-15
6.18874e-15
6.59119e-15
1.26852e-14
2.02501e-14
2.20543e-14
2.67975e-14
2.74951e-14
2.37413e-14
2.26315e-14
2.11765e-14
1.67062e-14
1.74607e-14
1.71922e-14
1.24574e-14
7.92581e-15
8.66405e-15
1.23571e-14
1.77149e-14
2.27308e-14
2.48551e-14
2.90085e-14
3.59531e-14
4.1403e-14
3.99065e-14
3.83443e-14
3.87811e-14
4.20141e-14
3.75362e-14
3.46893e-14
3.14963e-14
2.7402e-14
2.51262e-14
2.17964e-14
1.76367e-14
1.90654e-14
1.95272e-14
1.28653e-14
7.28231e-15
1.107e-14
1.466e-14
1.57502e-14
1.4279e-14
1.2022e-14
1.13346e-14
8.17625e-15
6.22798e-15
7.00241e-15
7.24104e-15
5.98303e-15
3.29198e-15
5.33731e-15
6.67289e-15
7.90366e-15
1.00415e-14
1.13282e-14
7.44025e-15
7.08326e-15
9.68768e-15
1.34319e-14
1.22695e-14
9.80253e-15
9.29941e-15
8.4494e-15
8.50314e-15
9.638e-15
1.30773e-14
1.93354e-14
3.08375e-14
3.42272e-14
3.62515e-14
3.87929e-14
3.73825e-14
3.52125e-14
3.22639e-14
2.78662e-14
2.07242e-14
1.5156e-14
1.07749e-14
7.88567e-15
1.04647e-14
1.60402e-14
1.59131e-14
1.85522e-14
2.01539e-14
2.45505e-14
2.89213e-14
3.31576e-14
3.6896e-14
3.75519e-14
4.005e-14
3.52282e-14
3.03176e-14
3.19371e-14
3.06936e-14
3.00136e-14
3.08198e-14
2.8034e-14
2.63215e-14
2.35336e-14
1.79696e-14
1.38503e-14
9.81837e-15
6.59773e-15
7.72612e-15
7.64261e-15
1.06505e-14
1.95853e-14
2.5475e-14
3.16429e-14
2.88263e-14
3.13652e-14
3.61332e-14
3.58454e-14
3.57231e-14
3.44355e-14
3.16202e-14
3.12224e-14
3.21239e-14
3.1984e-14
2.75943e-14
2.99994e-14
3.06703e-14
2.86122e-14
3.19453e-14
3.13143e-14
3.07896e-14
3.28075e-14
2.69657e-14
2.72091e-14
3.12302e-14
3.38026e-14
3.40876e-14
3.64938e-14
3.82261e-14
3.81219e-14
3.67978e-14
3.50955e-14
2.8603e-14
2.12031e-14
1.66084e-14
1.40093e-14
1.31315e-14
1.31212e-14
1.01029e-14
7.36607e-15
5.35316e-15
5.32609e-15
6.19143e-15
5.27528e-15
7.72045e-15
8.55448e-15
1.0125e-14
1.12807e-14
1.28039e-14
1.44962e-14
1.71271e-14
1.82258e-14
2.03185e-14
2.42463e-14
2.05346e-14
1.89047e-14
1.8675e-14
1.98864e-14
1.89097e-14
1.4977e-14
9.89426e-15
6.77647e-15
8.72914e-15
1.13229e-14
1.2575e-14
1.39645e-14
1.1861e-14
1.07363e-14
1.07556e-14
1.36116e-14
1.5974e-14
1.49546e-14
8.65047e-15
9.0953e-15
1.23386e-14
1.21364e-14
1.16595e-14
1.41066e-14
1.67334e-14
1.87414e-14
1.93251e-14
2.20653e-14
2.38573e-14
2.43466e-14
2.46362e-14
2.40176e-14
1.89909e-14
1.62635e-14
1.5144e-14
1.27074e-14
1.22445e-14
1.37036e-14
1.35966e-14
1.3037e-14
1.69062e-14
1.92758e-14
1.47626e-14
1.42777e-14
1.45788e-14
1.54016e-14
1.27607e-14
1.66959e-14
1.9296e-14
1.74537e-14
1.43875e-14
1.42241e-14
1.34544e-14
1.53962e-14
2.09276e-14
2.19251e-14
2.52666e-14
2.75559e-14
2.68507e-14
2.94865e-14
3.19609e-14
3.35234e-14
3.39739e-14
3.34284e-14
3.55204e-14
3.71932e-14
1.46188e-14
1.11904e-14
9.5893e-15
1.03513e-14
8.09728e-15
5.51842e-15
6.65235e-15
7.59012e-15
1.40203e-14
2.09207e-14
2.31505e-14
2.57855e-14
2.7118e-14
2.68686e-14
2.52685e-14
2.24231e-14
1.85626e-14
1.34595e-14
1.25826e-14
9.21345e-15
6.69598e-15
7.7928e-15
1.18131e-14
1.62605e-14
2.25689e-14
2.55202e-14
2.75056e-14
3.29778e-14
3.65972e-14
3.83706e-14
3.76809e-14
3.29789e-14
3.43702e-14
3.24611e-14
3.1045e-14
3.02192e-14
2.77288e-14
2.51237e-14
2.10259e-14
1.64392e-14
1.45158e-14
1.3062e-14
9.58826e-15
6.6461e-15
6.47881e-15
8.83516e-15
9.59658e-15
9.41825e-15
8.5841e-15
9.59042e-15
6.4874e-15
4.16396e-15
4.35284e-15
5.85972e-15
5.25498e-15
3.35215e-15
3.03323e-15
6.39375e-15
7.92613e-15
1.01612e-14
1.08591e-14
8.95339e-15
7.40266e-15
8.23581e-15
1.0525e-14
1.09618e-14
9.6142e-15
6.00808e-15
4.84832e-15
3.72467e-15
6.92336e-15
1.38687e-14
2.31186e-14
3.02719e-14
3.1962e-14
3.48053e-14
3.58181e-14
3.52855e-14
3.28066e-14
2.96804e-14
2.63687e-14
2.25885e-14
1.50012e-14
1.07729e-14
1.01769e-14
1.32013e-14
1.67245e-14
1.73379e-14
1.89485e-14
2.13256e-14
2.47347e-14
2.96056e-14
3.41613e-14
3.60906e-14
3.8116e-14
4.04724e-14
3.55236e-14
3.0191e-14
3.14542e-14
3.22109e-14
3.01847e-14
3.02551e-14
2.80267e-14
2.56537e-14
2.32782e-14
1.64045e-14
1.18478e-14
8.64905e-15
3.7385e-15
4.34062e-15
7.16542e-15
1.45365e-14
2.03902e-14
2.29583e-14
2.6071e-14
2.75337e-14
3.07905e-14
3.56897e-14
3.6152e-14
3.59171e-14
3.64762e-14
3.3181e-14
3.1166e-14
3.00932e-14
3.0218e-14
2.96864e-14
3.00231e-14
3.00854e-14
2.90757e-14
3.063e-14
3.14236e-14
3.06563e-14
3.0252e-14
2.93451e-14
2.97128e-14
3.17451e-14
3.22041e-14
3.2303e-14
3.3128e-14
3.30972e-14
3.31308e-14
3.39439e-14
3.06366e-14
2.64276e-14
2.06741e-14
1.57564e-14
1.19823e-14
1.22231e-14
1.07058e-14
7.44898e-15
5.82632e-15
3.66795e-15
4.85841e-15
4.61588e-15
5.26055e-15
5.71567e-15
6.96977e-15
4.81745e-15
6.69666e-15
1.1444e-14
1.38216e-14
1.53342e-14
1.71841e-14
1.8583e-14
1.84414e-14
1.9306e-14
1.99237e-14
1.87536e-14
1.96625e-14
1.8237e-14
1.81924e-14
1.21696e-14
9.17483e-15
9.54293e-15
1.05869e-14
1.04721e-14
8.19697e-15
1.10041e-14
1.06437e-14
1.11955e-14
1.21216e-14
1.19744e-14
7.41691e-15
7.71549e-15
1.06178e-14
1.2382e-14
1.04775e-14
1.14062e-14
1.31572e-14
1.68294e-14
1.90724e-14
1.90548e-14
1.79235e-14
2.23072e-14
2.50413e-14
2.39848e-14
1.96291e-14
1.736e-14
1.59682e-14
1.56998e-14
1.33101e-14
1.41339e-14
1.33439e-14
1.25745e-14
1.44043e-14
1.50501e-14
1.63343e-14
1.26014e-14
1.21446e-14
1.29021e-14
1.41387e-14
1.5914e-14
1.67807e-14
1.73168e-14
1.79838e-14
1.49447e-14
1.27362e-14
1.24841e-14
1.45614e-14
1.9847e-14
2.30002e-14
2.36135e-14
2.53975e-14
2.55481e-14
2.88823e-14
2.97222e-14
3.22038e-14
3.45817e-14
3.32099e-14
3.47316e-14
3.5946e-14
1.20963e-14
1.06747e-14
9.94129e-15
1.07482e-14
1.13281e-14
7.4775e-15
6.76589e-15
1.04816e-14
1.6874e-14
2.03809e-14
2.06596e-14
2.56569e-14
2.8984e-14
3.17202e-14
2.69753e-14
2.11253e-14
1.68869e-14
7.42204e-15
7.45303e-15
5.3688e-15
5.02192e-15
7.6503e-15
1.23839e-14
1.5651e-14
2.32272e-14
2.52641e-14
2.39645e-14
2.88452e-14
3.18895e-14
3.41397e-14
3.55638e-14
3.18834e-14
3.25161e-14
2.80068e-14
2.59472e-14
2.68651e-14
2.62693e-14
2.2616e-14
2.01581e-14
1.71516e-14
1.2062e-14
9.88883e-15
6.00604e-15
3.20501e-15
4.46433e-15
8.81517e-15
7.22513e-15
9.29055e-15
7.45151e-15
9.08947e-15
9.30896e-15
3.85241e-15
5.49159e-15
6.23807e-15
6.70843e-15
2.73307e-15
2.49887e-15
6.59196e-15
7.1952e-15
8.11212e-15
9.83948e-15
7.55606e-15
8.88988e-15
9.63661e-15
9.65927e-15
7.892e-15
1.1915e-14
8.24428e-15
7.65801e-15
6.40241e-15
1.02025e-14
1.54985e-14
2.45787e-14
3.1915e-14
3.13449e-14
3.62401e-14
3.786e-14
3.53383e-14
3.46174e-14
2.95139e-14
2.51091e-14
2.07512e-14
1.32773e-14
9.26044e-15
1.19385e-14
1.33852e-14
1.61172e-14
2.05812e-14
2.00989e-14
2.12882e-14
2.61011e-14
2.76033e-14
3.2628e-14
3.72959e-14
3.63989e-14
3.73259e-14
3.36647e-14
2.93721e-14
3.09767e-14
3.20358e-14
2.97322e-14
3.04577e-14
2.9578e-14
2.66186e-14
2.22665e-14
1.68356e-14
1.25532e-14
7.62356e-15
2.90284e-15
4.64698e-15
7.39096e-15
1.68111e-14
2.16516e-14
2.14473e-14
2.71946e-14
2.62615e-14
2.95413e-14
3.59731e-14
3.53914e-14
3.53581e-14
3.67702e-14
3.22336e-14
3.05825e-14
3.00306e-14
3.07416e-14
2.79806e-14
2.72124e-14
3.1219e-14
3.06423e-14
2.88407e-14
3.0727e-14
2.98523e-14
3.12831e-14
2.89865e-14
2.79949e-14
3.03007e-14
3.05196e-14
2.66504e-14
3.17273e-14
3.14433e-14
3.08467e-14
3.59631e-14
2.86991e-14
2.83833e-14
1.87553e-14
1.13004e-14
9.12529e-15
1.04413e-14
8.33778e-15
3.9152e-15
3.10653e-15
5.20349e-15
2.80389e-15
4.4875e-15
5.75077e-15
8.50106e-15
4.75255e-15
3.65968e-15
5.49644e-15
1.0468e-14
1.28744e-14
1.76534e-14
1.82511e-14
1.77255e-14
1.91372e-14
1.82587e-14
1.63434e-14
1.49448e-14
1.70216e-14
1.54012e-14
1.51716e-14
1.36506e-14
9.35337e-15
5.53531e-15
1.03297e-14
1.17693e-14
8.75552e-15
1.04672e-14
8.24853e-15
3.85853e-15
6.62924e-15
6.62288e-15
3.74644e-15
5.27903e-15
1.17059e-14
1.07478e-14
9.54378e-15
1.10812e-14
1.23959e-14
1.49857e-14
2.28007e-14
2.38031e-14
1.62292e-14
2.14238e-14
2.49611e-14
2.28192e-14
1.88925e-14
2.13716e-14
2.09358e-14
1.82889e-14
1.52415e-14
1.52928e-14
1.37168e-14
1.38489e-14
1.47531e-14
1.46214e-14
1.67008e-14
1.34685e-14
1.00334e-14
1.18136e-14
1.44005e-14
1.61325e-14
1.62315e-14
1.47731e-14
1.5758e-14
1.27349e-14
1.01912e-14
1.25251e-14
1.56332e-14
1.81175e-14
1.88173e-14
2.49919e-14
2.85455e-14
2.87582e-14
3.28104e-14
3.19681e-14
3.13894e-14
3.15888e-14
3.03049e-14
3.33026e-14
3.59907e-14
1.12432e-14
1.04045e-14
7.7636e-15
1.00023e-14
1.11846e-14
6.59639e-15
6.19337e-15
9.70831e-15
1.64494e-14
1.88282e-14
1.88462e-14
2.62345e-14
2.95618e-14
3.06034e-14
2.58826e-14
2.4148e-14
1.40639e-14
4.26881e-15
6.74583e-15
4.67278e-15
4.09328e-15
8.57809e-15
1.2011e-14
1.38557e-14
2.33822e-14
2.50378e-14
2.44725e-14
3.10283e-14
3.10568e-14
3.04611e-14
3.801e-14
3.25046e-14
3.15246e-14
2.52647e-14
2.40079e-14
2.76368e-14
2.44005e-14
2.12008e-14
2.05937e-14
1.68317e-14
1.25489e-14
7.26643e-15
4.71521e-15
4.46515e-15
4.73506e-15
1.1615e-14
7.78042e-15
1.04727e-14
9.9402e-15
1.1421e-14
1.43674e-14
3.8005e-15
5.13379e-15
6.24156e-15
3.7376e-15
1.68054e-15
2.8604e-15
8.08849e-15
7.29789e-15
9.63594e-15
1.16212e-14
8.9099e-15
7.79052e-15
1.14705e-14
9.92974e-15
8.07954e-15
1.18573e-14
8.57037e-15
7.30557e-15
6.70676e-15
1.4492e-14
1.9164e-14
2.49026e-14
3.47103e-14
3.16428e-14
3.63497e-14
3.9251e-14
3.57054e-14
3.76085e-14
2.71991e-14
2.20364e-14
1.93987e-14
1.19882e-14
1.15289e-14
1.20812e-14
1.4409e-14
1.66755e-14
2.17955e-14
1.95685e-14
2.1458e-14
2.69809e-14
2.59603e-14
3.36602e-14
3.87663e-14
3.50981e-14
3.64663e-14
3.44324e-14
3.0641e-14
3.46355e-14
3.23695e-14
2.81615e-14
3.05084e-14
2.81681e-14
2.50285e-14
2.54237e-14
1.74007e-14
1.16269e-14
1.06207e-14
4.77129e-15
7.31992e-15
7.95634e-15
1.48839e-14
1.8548e-14
2.00517e-14
2.79272e-14
2.55411e-14
2.97781e-14
3.75644e-14
3.31305e-14
3.31779e-14
3.87346e-14
3.17662e-14
2.70913e-14
2.95607e-14
3.32155e-14
2.91947e-14
2.56631e-14
3.11474e-14
3.10317e-14
2.49532e-14
2.9652e-14
3.01632e-14
2.89806e-14
3.06484e-14
2.76518e-14
2.83837e-14
3.00342e-14
2.62124e-14
3.29163e-14
2.77696e-14
2.86533e-14
3.29788e-14
2.69056e-14
2.70501e-14
1.76629e-14
9.07564e-15
7.9117e-15
9.56168e-15
8.15711e-15
2.49544e-15
3.78515e-15
9.09534e-15
4.31829e-15
6.28145e-15
3.07236e-15
4.71885e-15
5.14414e-15
3.82465e-15
5.83518e-15
1.07953e-14
1.04265e-14
1.85052e-14
2.03603e-14
1.65422e-14
2.12682e-14
1.94288e-14
1.74309e-14
1.56053e-14
1.80332e-14
1.6175e-14
1.28959e-14
1.1172e-14
1.34176e-14
7.86479e-15
9.04113e-15
7.96338e-15
8.54797e-15
9.32439e-15
6.54905e-15
3.89467e-15
8.30981e-15
5.35032e-15
1.84559e-15
5.08089e-15
1.23214e-14
1.21474e-14
1.26597e-14
1.40031e-14
1.24257e-14
1.50686e-14
2.21812e-14
2.26677e-14
1.70782e-14
2.30373e-14
2.38648e-14
2.2146e-14
1.9423e-14
1.70139e-14
2.2603e-14
1.85798e-14
1.30065e-14
1.59065e-14
1.43466e-14
1.44913e-14
1.43082e-14
1.05813e-14
1.64388e-14
1.37389e-14
8.06641e-15
1.19506e-14
1.31838e-14
1.50257e-14
1.44406e-14
1.44112e-14
1.5755e-14
1.35624e-14
1.17541e-14
1.27624e-14
1.49058e-14
1.80366e-14
1.71362e-14
2.46963e-14
2.80555e-14
2.90408e-14
3.38902e-14
3.11265e-14
3.04531e-14
3.19734e-14
2.81043e-14
3.2647e-14
4.00624e-14
2.70065e-14
2.75648e-14
2.90395e-14
3.2385e-14
2.96364e-14
2.51433e-14
2.78328e-14
2.62793e-14
3.67584e-14
4.20616e-14
3.67664e-14
3.52702e-14
3.44069e-14
3.73003e-14
2.63712e-14
2.40111e-14
2.67963e-14
2.69147e-14
2.57785e-14
2.36427e-14
2.71072e-14
2.83401e-14
2.48291e-14
2.52909e-14
2.08465e-14
2.11443e-14
2.23417e-14
2.02717e-14
1.94307e-14
1.72436e-14
3.28006e-14
4.26119e-14
3.98894e-14
3.27314e-14
3.61276e-14
2.70817e-14
2.41586e-14
2.40304e-14
2.20138e-14
2.38271e-14
2.78918e-14
2.83363e-14
2.75775e-14
2.91885e-14
3.83599e-14
4.87063e-14
5.5332e-14
5.59108e-14
5.14808e-14
3.8684e-14
2.71967e-14
3.15403e-14
3.44503e-14
3.17774e-14
3.00645e-14
2.58679e-14
2.85301e-14
2.81351e-14
2.68263e-14
2.42124e-14
2.6285e-14
3.07815e-14
3.28983e-14
3.51957e-14
3.41028e-14
3.41841e-14
3.2984e-14
2.73563e-14
2.51158e-14
2.57396e-14
2.31771e-14
2.49183e-14
2.40083e-14
2.7475e-14
2.88688e-14
3.01679e-14
3.33175e-14
3.46625e-14
4.102e-14
4.30315e-14
4.6596e-14
4.81948e-14
4.61035e-14
4.4415e-14
4.34141e-14
4.12728e-14
5.27992e-14
4.76293e-14
5.19676e-14
4.37544e-14
4.53173e-14
5.16835e-14
4.91991e-14
2.94507e-14
1.65649e-14
1.61745e-14
2.19179e-14
1.9948e-14
3.32284e-14
5.35045e-14
2.56871e-14
2.94894e-14
3.47342e-14
2.97056e-14
3.33573e-14
3.01543e-14
3.00184e-14
3.404e-14
3.99876e-14
3.75657e-14
3.2457e-14
3.18508e-14
3.15459e-14
3.10951e-14
3.08101e-14
2.91559e-14
3.97787e-14
3.39759e-14
3.06386e-14
2.96696e-14
2.37578e-14
2.69233e-14
2.74502e-14
2.72664e-14
3.06951e-14
2.75522e-14
3.39726e-14
2.55389e-14
2.09177e-14
2.12404e-14
2.08696e-14
3.71231e-14
5.39734e-14
4.90129e-14
3.84241e-14
3.23124e-14
2.86971e-14
2.65605e-14
2.5804e-14
2.24624e-14
2.90809e-14
2.67156e-14
2.76832e-14
2.30134e-14
3.0918e-14
3.53991e-14
5.10002e-14
5.83502e-14
6.58414e-14
6.22785e-14
5.05285e-14
3.62866e-14
3.98813e-14
3.48598e-14
2.86681e-14
2.74322e-14
2.72483e-14
2.87725e-14
2.87723e-14
2.67875e-14
2.81157e-14
2.94634e-14
3.85533e-14
3.711e-14
4.10759e-14
3.78099e-14
4.17334e-14
3.15011e-14
2.82828e-14
2.47711e-14
2.64561e-14
2.65516e-14
2.59308e-14
2.65037e-14
3.36767e-14
3.20509e-14
3.19491e-14
3.82906e-14
4.31478e-14
4.17151e-14
4.55557e-14
4.73055e-14
4.9291e-14
5.0899e-14
5.39065e-14
4.74065e-14
4.76589e-14
5.16892e-14
4.7191e-14
4.62014e-14
4.55036e-14
4.6188e-14
4.89435e-14
4.8011e-14
3.39565e-14
1.99417e-14
2.28572e-14
2.84171e-14
2.65999e-14
3.49554e-14
3.85921e-14
4.43601e-14
5.04563e-14
4.61e-14
5.03767e-14
4.40936e-14
4.50531e-14
4.22948e-14
4.75828e-14
4.59739e-14
4.60794e-14
4.55404e-14
4.90785e-14
4.73172e-14
4.97899e-14
4.75061e-14
5.62274e-14
5.2152e-14
4.75079e-14
4.60952e-14
4.17524e-14
3.75929e-14
4.25133e-14
4.61573e-14
4.74382e-14
4.50677e-14
4.99528e-14
4.57103e-14
4.44644e-14
3.87272e-14
4.36315e-14
4.71716e-14
5.81296e-14
5.60424e-14
4.98778e-14
4.46514e-14
4.53102e-14
3.87553e-14
4.25894e-14
3.78068e-14
4.12667e-14
4.13175e-14
4.63389e-14
4.20441e-14
4.86674e-14
5.08156e-14
6.25708e-14
6.68247e-14
7.28017e-14
6.78454e-14
5.83172e-14
5.04682e-14
5.23657e-14
4.89962e-14
4.33725e-14
4.00352e-14
4.29345e-14
4.32783e-14
4.61238e-14
4.44989e-14
4.60745e-14
4.66457e-14
5.38348e-14
4.89097e-14
5.2331e-14
5.0443e-14
5.28503e-14
4.62366e-14
4.21167e-14
4.00606e-14
4.44134e-14
4.42785e-14
4.25086e-14
4.38106e-14
5.12414e-14
4.7753e-14
4.94442e-14
4.97015e-14
5.50202e-14
5.65163e-14
6.04218e-14
6.02421e-14
6.0353e-14
6.27746e-14
6.42979e-14
5.72436e-14
5.99205e-14
6.03249e-14
5.64075e-14
5.33708e-14
5.53876e-14
3.67145e-14
3.59622e-14
3.46244e-14
3.88224e-14
4.09321e-14
4.01671e-14
3.383e-14
3.34238e-14
3.11197e-14
3.3633e-14
3.29572e-14
3.91632e-14
3.93685e-14
3.78097e-14
3.88217e-14
4.25987e-14
4.09926e-14
4.53588e-14
4.46395e-14
3.79045e-14
3.90872e-14
3.75542e-14
3.27433e-14
3.63664e-14
3.61629e-14
3.93812e-14
3.63284e-14
4.17226e-14
4.52042e-14
4.31954e-14
3.44724e-14
3.60759e-14
3.84749e-14
4.26082e-14
4.31906e-14
3.68531e-14
3.35213e-14
3.98663e-14
3.85245e-14
4.15119e-14
4.07378e-14
3.89425e-14
3.5073e-14
3.68813e-14
4.24015e-14
3.89582e-14
4.0826e-14
4.64216e-14
5.68422e-14
6.82089e-14
6.84879e-14
5.52366e-14
4.3093e-14
4.01976e-14
3.88086e-14
3.59929e-14
3.54482e-14
3.61568e-14
3.42545e-14
2.08842e-14
1.79507e-14
1.54958e-14
1.48157e-14
2.11235e-14
1.89871e-14
1.04537e-14
1.46688e-14
1.62927e-14
1.75746e-14
1.617e-14
2.0184e-14
1.88129e-14
1.59363e-14
1.76837e-14
1.64331e-14
2.10596e-14
2.29937e-14
2.80539e-14
1.6594e-14
2.0511e-14