/*--------------------------------*- C++ -*----------------------------------*\
| =========                 |                                                 |
| \\      /  F ield         | OpenFOAM: The Open Source CFD Toolbox           |
|  \\    /   O peration     | Version:  2406                                  |
|   \\  /    A nd           | Website:  www.openfoam.com                      |
|    \\/     M anipulation  |                                                 |
\*---------------------------------------------------------------------------*/
FoamFile
{
    version     2.0;
    format      ascii;
    arch        "LSB;label=32;scalar=64";
    class       volVectorField;
    location    "0.025";
    object      U;
}
// * * * * * * * * * * * * * * * * * * * * * * * * * * * * * * * * * * * * * //

dimensions      [0 1 -1 0 0 0 0];

internalField   nonuniform List<vector> 
14020
(
(3.26682e-12 4.98861e-13 -1.4951e-12)
(1.47599e-12 3.95715e-13 -1.58744e-12)
(6.09251e-13 -4.16544e-13 -1.18082e-12)
(3.13532e-12 1.62738e-13 -6.05408e-13)
(3.40558e-12 1.26625e-12 1.49037e-13)
(2.30238e-12 1.23763e-12 -5.86892e-14)
(2.28816e-12 1.32813e-12 3.90734e-13)
(2.30906e-12 1.85036e-12 -9.54575e-13)
(1.98026e-12 8.96703e-13 -4.20569e-12)
(7.75651e-13 -1.59811e-12 -6.79491e-12)
(-3.07095e-13 -3.96029e-12 -8.37578e-12)
(4.34218e-13 -5.52503e-12 -8.85828e-12)
(7.54831e-13 -6.21412e-12 -9.47444e-12)
(1.34859e-12 -6.54228e-12 -1.07162e-11)
(1.64108e-12 -5.71528e-12 -1.02277e-11)
(-5.02337e-13 -5.16935e-12 -8.40192e-12)
(7.06514e-13 -4.65935e-12 -6.09295e-12)
(9.15109e-13 -1.96897e-12 -5.58714e-12)
(-5.33542e-13 -3.3512e-13 -5.56781e-12)
(-1.3534e-13 4.07882e-13 -7.46433e-12)
(-1.05832e-12 -1.67229e-13 -1.06653e-11)
(-3.81531e-12 -7.46859e-13 -1.05627e-11)
(-5.59431e-12 -2.30536e-12 -1.37401e-11)
(-5.61302e-12 -2.79712e-12 -1.66775e-11)
(-6.73241e-12 -2.00034e-12 -1.64645e-11)
(-8.01538e-12 -9.07645e-13 -1.34252e-11)
(-8.71786e-12 -1.14655e-12 -1.22276e-11)
(-9.0907e-12 -1.47212e-12 -1.30052e-11)
(-1.08876e-11 -2.35898e-12 -1.20881e-11)
(-1.21208e-11 -4.10099e-12 -1.33316e-11)
(-1.01381e-11 -5.68387e-12 -1.2638e-11)
(-7.5698e-12 -7.26183e-12 -1.50037e-11)
(-7.6612e-12 -7.41271e-12 -1.7779e-11)
(-6.56638e-12 -7.44468e-12 -1.57389e-11)
(-4.90381e-12 -7.68536e-12 -1.33677e-11)
(-3.36925e-12 -5.87945e-12 -1.39693e-11)
(-8.78788e-13 -2.62137e-12 -1.45594e-11)
(-9.23668e-13 -9.51087e-13 -1.54231e-11)
(-3.04103e-12 -4.67089e-13 -1.39451e-11)
(-5.2718e-12 -6.88117e-13 -1.21885e-11)
(-3.78203e-12 -2.60692e-12 -8.50566e-12)
(-1.81639e-12 -5.49566e-12 -6.17197e-12)
(-1.40651e-12 -7.51133e-12 -6.6491e-12)
(-5.78868e-14 -7.92793e-12 -4.78403e-12)
(2.914e-12 -7.57911e-12 -3.70412e-12)
(3.17705e-12 -6.46154e-12 -2.22355e-12)
(1.7338e-12 -6.0974e-12 -6.8745e-13)
(2.99112e-12 -6.3959e-12 -6.6146e-13)
(4.58827e-12 -5.27132e-12 1.21768e-12)
(4.05532e-12 -4.32942e-12 3.18937e-12)
(2.96467e-12 -3.36703e-12 1.68369e-12)
(3.87314e-12 -3.19089e-12 -2.11022e-14)
(2.52639e-12 -1.64999e-12 -1.14469e-12)
(3.59991e-13 -2.77888e-12 -2.5128e-12)
(-9.07052e-13 -3.28241e-12 -5.57575e-12)
(-1.38247e-12 -4.19316e-12 -7.0738e-12)
(-1.32056e-12 -4.29247e-12 -5.84522e-12)
(-2.38186e-12 -4.60133e-12 -5.79869e-12)
(-1.70632e-12 -4.63058e-12 -5.57401e-12)
(-7.52658e-13 -3.87068e-12 -6.67788e-12)
(9.38543e-13 -2.1618e-12 -4.59998e-12)
(1.5818e-12 1.02675e-13 -2.67442e-12)
(-4.77737e-16 7.92641e-13 -1.09244e-12)
(-1.5253e-12 1.1867e-12 -2.36359e-12)
(-3.50736e-12 3.35042e-13 -2.80624e-12)
(-4.00109e-12 -2.01257e-12 -2.51685e-12)
(-3.40658e-12 -4.51827e-12 -2.80426e-12)
(-2.29496e-12 -5.01879e-12 2.35109e-13)
(-2.76074e-12 -6.99972e-12 3.51506e-12)
(-1.70158e-14 -7.99125e-12 5.39414e-12)
(1.72822e-12 -6.03239e-12 6.71782e-12)
(4.03232e-12 -5.43791e-12 7.30897e-12)
(6.41803e-12 -4.95926e-12 8.86106e-12)
(9.01403e-12 -5.08497e-12 1.04283e-11)
(9.35042e-12 -3.35268e-12 1.31682e-11)
(8.72363e-12 -2.34817e-12 1.59353e-11)
(7.62254e-12 -2.47439e-12 1.65186e-11)
(6.84448e-12 -3.4121e-12 1.62904e-11)
(7.1798e-12 -4.33793e-12 1.58473e-11)
(6.86037e-12 -3.66936e-12 1.38666e-11)
(6.69892e-12 -1.57961e-12 1.21042e-11)
(5.32888e-12 1.29066e-12 9.87483e-12)
(1.64224e-12 1.72712e-12 6.73611e-12)
(-1.122e-12 1.36847e-12 5.05132e-12)
(-1.42439e-12 -1.50574e-13 4.65071e-12)
(-2.42158e-12 -2.9517e-13 5.1864e-12)
(-3.0273e-12 -1.01882e-15 6.77023e-12)
(-3.50803e-12 7.0627e-13 4.75732e-12)
(-5.76579e-12 4.56036e-13 3.55451e-12)
(-5.82459e-12 1.48653e-13 2.76128e-12)
(-6.34508e-12 1.6394e-14 2.24755e-12)
(-8.21168e-12 3.34622e-13 3.13144e-12)
(-9.87162e-12 -5.10042e-13 5.36043e-12)
(-9.71979e-12 -6.61821e-13 9.09075e-12)
(-1.09301e-11 -3.61437e-13 7.09788e-12)
(-1.16111e-11 -1.74984e-12 5.35796e-12)
(-9.85383e-12 -1.87766e-12 4.42932e-12)
(-9.83888e-12 -1.20717e-12 3.57092e-12)
(-1.13285e-11 -1.54741e-12 3.08414e-12)
(-1.12294e-11 -3.38514e-12 2.63895e-12)
(-1.02587e-11 -4.32517e-12 2.00836e-12)
(-1.06846e-11 -5.54154e-12 1.47092e-12)
(-9.44907e-12 -6.44906e-12 5.87866e-13)
(-8.6904e-12 -6.37629e-12 -9.58089e-13)
(-8.1484e-12 -6.23176e-12 5.59569e-13)
(-6.65835e-12 -6.04217e-12 2.59594e-13)
(-5.50687e-12 -5.14315e-12 -1.27357e-12)
(-3.32679e-12 -4.9189e-12 -1.01357e-14)
(-5.75618e-13 -5.28281e-12 1.29557e-13)
(1.90656e-12 -4.78952e-12 -5.18439e-13)
(3.09121e-12 -3.80363e-12 -1.8008e-12)
(3.55162e-12 -4.01121e-12 -2.40806e-12)
(4.42322e-12 -4.13221e-12 -2.21836e-12)
(5.35994e-12 -5.01558e-12 -2.73302e-12)
(7.69792e-12 -6.0366e-12 -3.02127e-12)
(1.01102e-11 -5.86078e-12 -3.96683e-12)
(1.05066e-11 -5.16991e-12 -4.53899e-12)
(9.82545e-12 -6.01068e-12 -4.94809e-12)
(9.22696e-12 -7.20028e-12 -4.62457e-12)
(1.07218e-11 -7.34552e-12 -3.87156e-12)
(1.24103e-11 -6.79779e-12 -3.07709e-12)
(1.26623e-11 -4.90999e-12 -4.04061e-12)
(1.2355e-11 -2.39774e-12 -5.96277e-12)
(1.09562e-11 -6.02529e-13 -6.76042e-12)
(8.56173e-12 -1.33407e-12 -5.8709e-12)
(6.65575e-12 -2.0057e-12 -3.39562e-12)
(6.43895e-12 -2.28845e-12 -5.41034e-13)
(6.81114e-12 -3.3108e-12 -1.1884e-12)
(7.33471e-12 -3.41349e-12 -1.10458e-12)
(8.66424e-12 -2.67709e-12 -2.23662e-12)
(9.3456e-12 -1.42159e-12 -5.71108e-12)
(8.25038e-12 -7.15942e-13 -9.30574e-12)
(9.10955e-12 6.02183e-13 -9.95434e-12)
(7.93602e-12 3.05115e-12 -1.13352e-11)
(4.70561e-12 3.75153e-12 -1.30846e-11)
(3.27718e-12 2.69799e-12 -1.35633e-11)
(4.13021e-12 1.17557e-12 -1.33072e-11)
(4.03062e-12 -3.00635e-13 -1.46998e-11)
(3.12811e-12 -4.83133e-13 -1.72379e-11)
(2.61648e-12 -1.18302e-12 -2.00156e-11)
(4.75656e-12 -4.53268e-13 -2.14495e-11)
(4.737e-12 1.96198e-12 -2.17555e-11)
(2.00644e-12 3.3031e-12 -1.97404e-11)
(1.52028e-13 3.33273e-12 -1.32255e-11)
(-3.48965e-12 -2.21413e-14 -8.02385e-12)
(-3.93856e-12 -4.63001e-12 -5.74687e-12)
(-1.50226e-12 -5.98209e-12 -3.38911e-12)
(4.99202e-13 -6.20172e-12 -1.33276e-12)
(1.38021e-12 -4.85959e-12 -5.12453e-13)
(2.07875e-12 -4.28366e-12 -1.3666e-12)
(2.53426e-12 -2.50723e-12 -1.56744e-12)
(1.49275e-12 -1.98412e-12 -1.95069e-13)
(-3.32814e-14 -2.00535e-12 -1.02921e-12)
(-3.25585e-12 -3.38436e-12 -2.1147e-12)
(-4.27605e-12 -7.0352e-12 -1.83419e-12)
(-2.36527e-12 -1.03676e-11 -3.12747e-12)
(1.13995e-12 -1.12997e-11 -3.75539e-12)
(3.64895e-12 -1.05268e-11 -4.71133e-12)
(4.07802e-12 -9.09498e-12 -6.58533e-12)
(5.11034e-12 -7.95931e-12 -8.56112e-12)
(4.93283e-12 -5.82649e-12 -7.16941e-12)
(5.30644e-12 -5.06543e-12 -6.26394e-12)
(5.81411e-12 -4.63175e-12 -7.48869e-12)
(4.95082e-12 -3.61675e-12 -9.47966e-12)
(5.26363e-12 -4.59889e-12 -1.13704e-11)
(4.99387e-12 -3.85407e-12 -1.06185e-11)
(2.60533e-12 -3.90791e-12 -7.62467e-12)
(2.88767e-12 -4.3195e-12 -2.40988e-12)
(2.98484e-12 -3.62039e-12 1.38743e-12)
(1.62113e-12 -4.32824e-12 1.75942e-12)
(1.14775e-12 -4.42566e-12 3.19272e-12)
(-1.56331e-13 -4.33117e-12 1.82928e-12)
(-9.24423e-13 -6.45476e-12 3.21003e-13)
(-1.0068e-12 -7.38626e-12 -1.82127e-12)
(2.22836e-13 -8.48972e-12 -2.48674e-12)
(2.48675e-12 -7.68232e-12 -2.25432e-12)
(2.93578e-12 -6.41181e-12 -3.97453e-12)
(2.05865e-12 -4.72175e-12 -5.48267e-12)
(3.90193e-13 -4.04666e-12 -6.16457e-12)
(6.73226e-13 -3.74494e-12 -5.98913e-12)
(1.25774e-12 -2.40881e-12 -5.50232e-12)
(-1.03924e-12 -1.12528e-12 -5.38238e-12)
(-4.95723e-12 -1.57851e-12 -4.79103e-12)
(-5.94779e-12 -4.42139e-12 -3.33293e-12)
(-3.54502e-12 -5.58948e-12 -1.66331e-12)
(-1.77395e-12 -5.52208e-12 -6.72057e-13)
(-1.62112e-12 -4.48209e-12 -8.50228e-13)
(-4.90092e-13 -3.97963e-12 -1.67724e-13)
(5.23492e-13 -2.66057e-12 -8.75084e-13)
(-1.46979e-12 -1.88559e-12 -2.77727e-12)
(-3.21338e-12 -1.26511e-12 -9.08712e-13)
(-6.05829e-12 -9.66482e-13 1.76305e-13)
(-8.81423e-12 -1.31458e-12 -6.22816e-13)
(-9.69522e-12 -3.0959e-12 -1.94506e-12)
(-8.72747e-12 -5.17124e-12 -4.21966e-12)
(-8.71629e-12 -5.50549e-12 -6.92403e-12)
(-8.01747e-12 -6.29439e-12 -4.98494e-12)
(-5.31087e-12 -5.21574e-12 -3.96977e-12)
(-4.85724e-12 -3.72748e-12 -2.45866e-12)
(-4.14272e-12 -3.35497e-12 -1.90489e-12)
(-4.06376e-12 -4.47736e-12 -2.09238e-12)
(-5.37929e-12 -5.43572e-12 -2.54648e-12)
(-4.64141e-12 -6.4264e-12 -2.93972e-12)
(-4.61857e-12 -6.56326e-12 -4.29334e-12)
(-4.67252e-12 -7.51361e-12 -6.02811e-12)
(-2.91732e-12 -6.84163e-12 -7.24792e-12)
(-3.8794e-12 -6.41716e-12 -6.94479e-12)
(-4.80448e-12 -6.80693e-12 -7.65076e-12)
(-2.61276e-12 -6.87329e-12 -7.57476e-12)
(-1.23161e-12 -6.35769e-12 -5.85968e-12)
(-2.52231e-12 -5.51174e-12 -6.35355e-12)
(-3.04265e-12 -5.40361e-12 -6.82137e-12)
(-2.09692e-12 -4.75121e-12 -6.86406e-12)
(-3.10171e-12 -5.65878e-12 -6.72421e-12)
(-2.68726e-12 -7.64768e-12 -6.80856e-12)
(-9.66639e-13 -8.26823e-12 -7.26605e-12)
(5.37438e-13 -7.95344e-12 -5.34543e-12)
(7.89984e-13 -6.79963e-12 -4.50571e-12)
(1.57607e-12 -7.00736e-12 -5.0564e-12)
(2.66771e-12 -7.2026e-12 -3.73257e-12)
(3.5314e-12 -7.48894e-12 -2.42693e-12)
(4.56242e-12 -6.89511e-12 -4.38521e-12)
(3.68067e-12 -8.39921e-12 -6.30001e-12)
(4.12032e-12 -9.99756e-12 -3.71279e-12)
(7.05415e-12 -1.09263e-11 -2.07456e-12)
(7.87427e-12 -9.41219e-12 1.76609e-12)
(9.24507e-12 -8.79943e-12 3.60739e-12)
(9.01068e-12 -8.67328e-12 3.36314e-12)
(9.20246e-12 -9.24886e-12 3.10259e-12)
(1.101e-11 -8.77743e-12 2.02135e-12)
(1.07307e-11 -7.79881e-12 -1.38391e-12)
(3.13039e-12 7.51655e-13 -1.98491e-12)
(1.86441e-12 1.38164e-12 -1.83211e-12)
(6.34594e-13 5.97624e-13 -1.29377e-12)
(2.5231e-12 6.21211e-13 -6.14497e-13)
(3.29034e-12 1.31555e-12 2.47349e-13)
(2.54836e-12 1.21751e-12 4.5371e-13)
(1.79167e-12 1.67723e-12 -6.50171e-13)
(2.06062e-12 2.55109e-12 -1.98694e-12)
(2.67076e-12 1.18814e-12 -4.43569e-12)
(2.07882e-12 -1.3327e-12 -6.81968e-12)
(9.9123e-13 -3.76826e-12 -8.67225e-12)
(6.27964e-13 -4.96016e-12 -9.35763e-12)
(1.26676e-12 -5.37515e-12 -9.25584e-12)
(1.63232e-12 -5.64302e-12 -1.00137e-11)
(1.11349e-12 -4.78997e-12 -9.61796e-12)
(-1.29512e-13 -4.07007e-12 -7.9572e-12)
(-2.12516e-13 -3.87901e-12 -6.3835e-12)
(-5.00269e-13 -1.64179e-12 -6.50664e-12)
(-8.93619e-13 -5.88905e-13 -5.40116e-12)
(1.19207e-13 -2.37806e-13 -6.2466e-12)
(-6.8044e-13 2.65337e-13 -7.79214e-12)
(-3.1606e-12 3.872e-13 -8.7141e-12)
(-4.56342e-12 -1.7899e-12 -1.06635e-11)
(-6.00185e-12 -2.24912e-12 -1.33025e-11)
(-7.96962e-12 -1.38734e-12 -1.3809e-11)
(-8.61162e-12 -1.48854e-12 -1.25002e-11)
(-8.38592e-12 -1.49871e-12 -1.19342e-11)
(-8.98572e-12 -1.77189e-12 -1.10507e-11)
(-1.0447e-11 -2.37744e-12 -1.06782e-11)
(-1.13457e-11 -3.97904e-12 -1.10043e-11)
(-9.89547e-12 -5.67458e-12 -1.10906e-11)
(-7.77935e-12 -5.96171e-12 -1.38568e-11)
(-7.74719e-12 -6.1929e-12 -1.58477e-11)
(-6.14987e-12 -6.77316e-12 -1.57822e-11)
(-4.27926e-12 -6.43499e-12 -1.43838e-11)
(-3.60188e-12 -5.89807e-12 -1.36697e-11)
(-2.20294e-12 -2.86303e-12 -1.41023e-11)
(-1.40676e-12 -6.12767e-13 -1.32886e-11)
(-3.51244e-12 -7.92721e-13 -1.21555e-11)
(-4.67338e-12 -9.77958e-13 -1.02271e-11)
(-2.65009e-12 -2.81376e-12 -7.84754e-12)
(-1.10202e-12 -4.88222e-12 -5.49169e-12)
(-1.31575e-12 -6.90397e-12 -4.97966e-12)
(-4.97032e-13 -7.21386e-12 -3.71692e-12)
(2.17274e-12 -6.98457e-12 -3.70736e-12)
(2.73897e-12 -5.42923e-12 -2.15729e-12)
(2.29435e-12 -5.463e-12 -1.38722e-13)
(3.61032e-12 -5.42147e-12 -1.84888e-13)
(4.41446e-12 -5.01621e-12 1.7928e-12)
(3.76548e-12 -4.26557e-12 1.98447e-12)
(3.18475e-12 -3.1867e-12 1.1875e-12)
(3.21215e-12 -3.06583e-12 -6.36495e-13)
(2.2509e-12 -1.38958e-12 -2.32571e-12)
(7.5062e-13 -2.72354e-12 -3.44421e-12)
(-8.58665e-13 -2.62173e-12 -5.26998e-12)
(-1.44089e-12 -3.73435e-12 -5.2816e-12)
(-1.34376e-12 -3.89208e-12 -4.4107e-12)
(-2.11182e-12 -4.09931e-12 -4.45212e-12)
(-1.86755e-12 -3.95115e-12 -4.23041e-12)
(-9.86048e-13 -3.4519e-12 -4.5055e-12)
(6.87173e-13 -2.48315e-12 -3.79534e-12)
(1.04461e-12 -3.25279e-13 -3.15564e-12)
(-4.44947e-13 7.21475e-13 -3.35091e-12)
(-1.92772e-12 3.53425e-13 -2.7169e-12)
(-3.55118e-12 -5.64798e-13 -2.89227e-12)
(-3.33464e-12 -2.22501e-12 -2.42671e-12)
(-3.42975e-12 -4.45044e-12 -2.5179e-12)
(-2.68725e-12 -4.39108e-12 1.43756e-13)
(-1.74256e-12 -6.20656e-12 3.14922e-12)
(-6.52699e-13 -6.79368e-12 4.94675e-12)
(1.89941e-12 -5.18576e-12 6.65386e-12)
(4.84789e-12 -4.0644e-12 7.31807e-12)
(6.63885e-12 -3.9602e-12 7.79953e-12)
(8.71747e-12 -4.45635e-12 8.81691e-12)
(8.76002e-12 -3.54142e-12 1.05597e-11)
(8.34837e-12 -2.64386e-12 1.37138e-11)
(8.32711e-12 -1.95599e-12 1.49045e-11)
(7.75425e-12 -2.91625e-12 1.58776e-11)
(6.91465e-12 -3.60027e-12 1.53271e-11)
(5.39679e-12 -2.91947e-12 1.40852e-11)
(5.41156e-12 -1.24799e-12 1.08427e-11)
(4.8035e-12 1.7492e-12 8.30877e-12)
(1.81561e-12 1.6088e-12 5.83647e-12)
(-4.75724e-13 1.31974e-12 4.79691e-12)
(-1.07791e-12 5.69958e-14 4.33336e-12)
(-2.64733e-12 -3.85371e-13 3.80865e-12)
(-3.52714e-12 -3.3471e-13 5.318e-12)
(-3.59627e-12 7.3197e-13 4.78789e-12)
(-5.06851e-12 6.41474e-13 3.90128e-12)
(-5.69375e-12 -5.64051e-13 3.15635e-12)
(-6.5118e-12 -6.32818e-14 2.79822e-12)
(-8.23141e-12 3.15122e-13 4.09974e-12)
(-9.77494e-12 -3.08323e-13 4.69617e-12)
(-1.02185e-11 -3.26475e-13 6.91345e-12)
(-1.03731e-11 2.07874e-13 5.78437e-12)
(-1.07784e-11 -8.39308e-13 5.18396e-12)
(-1.07216e-11 -3.06166e-13 4.26182e-12)
(-1.08312e-11 -1.33362e-13 3.52904e-12)
(-1.08117e-11 -2.25304e-13 3.36443e-12)
(-1.11583e-11 -1.81399e-12 3.17723e-12)
(-1.05447e-11 -3.22486e-12 2.24555e-12)
(-1.0255e-11 -4.71136e-12 1.59405e-12)
(-9.61775e-12 -5.01763e-12 8.49454e-13)
(-8.56615e-12 -5.27799e-12 5.22725e-13)
(-7.46523e-12 -5.3473e-12 1.22021e-12)
(-6.63033e-12 -4.9494e-12 1.09292e-12)
(-6.14697e-12 -4.80268e-12 7.91938e-14)
(-2.89016e-12 -4.88842e-12 3.17724e-13)
(6.09444e-14 -4.90953e-12 1.84423e-13)
(1.03368e-12 -3.35763e-12 -8.99889e-13)
(2.86275e-12 -3.47912e-12 -2.99526e-12)
(3.72897e-12 -3.39907e-12 -3.27385e-12)
(4.68564e-12 -3.85957e-12 -2.69059e-12)
(5.83646e-12 -3.70929e-12 -4.06555e-12)
(7.57733e-12 -5.16276e-12 -3.19588e-12)
(9.1253e-12 -5.92765e-12 -4.72313e-12)
(1.03866e-11 -4.7902e-12 -5.98068e-12)
(1.11427e-11 -5.44312e-12 -5.82489e-12)
(1.01863e-11 -6.70786e-12 -5.04808e-12)
(1.05663e-11 -7.10257e-12 -4.55887e-12)
(1.14097e-11 -6.57625e-12 -4.08276e-12)
(1.13464e-11 -4.33367e-12 -3.95893e-12)
(1.09647e-11 -2.3797e-12 -6.17418e-12)
(1.10431e-11 -5.03629e-13 -7.27441e-12)
(9.46177e-12 -1.22748e-12 -6.26043e-12)
(6.94038e-12 -1.04564e-12 -4.66784e-12)
(7.26028e-12 -2.36877e-12 -3.01722e-12)
(7.61044e-12 -3.67603e-12 -2.78302e-12)
(6.6296e-12 -3.71438e-12 -2.50183e-12)
(8.0557e-12 -2.94121e-12 -3.27447e-12)
(9.30168e-12 -1.40429e-12 -5.91933e-12)
(8.43626e-12 -3.82838e-13 -7.99085e-12)
(8.58673e-12 1.27433e-12 -9.99433e-12)
(6.73551e-12 3.36334e-12 -1.14816e-11)
(4.51451e-12 3.52526e-12 -1.3383e-11)
(3.88348e-12 3.10239e-12 -1.30297e-11)
(4.33761e-12 1.89094e-12 -1.39401e-11)
(4.2644e-12 1.64706e-13 -1.52036e-11)
(3.94759e-12 7.40875e-14 -1.72835e-11)
(3.43583e-12 4.50067e-13 -1.83851e-11)
(3.52336e-12 3.27524e-14 -1.92845e-11)
(3.46335e-12 1.91495e-12 -1.91731e-11)
(1.53262e-12 3.34161e-12 -1.79341e-11)
(4.50103e-13 2.54773e-12 -1.26978e-11)
(-1.26975e-12 1.84992e-13 -7.37882e-12)
(-2.56786e-12 -4.07964e-12 -5.54538e-12)
(-1.63631e-12 -5.47233e-12 -2.70412e-12)
(-1.56819e-13 -5.83408e-12 -1.86112e-13)
(1.49371e-12 -4.87103e-12 4.79939e-13)
(1.77008e-12 -4.17552e-12 -1.159e-12)
(1.54594e-12 -2.73362e-12 -1.20692e-12)
(1.2701e-12 -1.8517e-12 -1.78442e-12)
(-1.29722e-13 -2.14767e-12 -1.36821e-12)
(-2.49496e-12 -3.07322e-12 -1.7169e-12)
(-3.37316e-12 -6.41132e-12 -1.17567e-12)
(-2.22401e-12 -9.16079e-12 -2.72424e-12)
(8.86554e-13 -1.02794e-11 -3.34328e-12)
(3.38105e-12 -9.33271e-12 -4.33883e-12)
(4.0207e-12 -7.74209e-12 -5.78295e-12)
(3.92762e-12 -7.01479e-12 -7.04631e-12)
(4.41414e-12 -4.87305e-12 -6.93175e-12)
(5.54661e-12 -4.81814e-12 -5.47974e-12)
(5.06676e-12 -3.68267e-12 -6.99094e-12)
(5.06502e-12 -2.79449e-12 -9.13339e-12)
(5.75983e-12 -3.46839e-12 -9.92803e-12)
(4.82033e-12 -2.73358e-12 -9.74031e-12)
(3.23281e-12 -2.66038e-12 -7.19607e-12)
(2.75858e-12 -3.1158e-12 -2.3822e-12)
(2.85407e-12 -2.72289e-12 1.6084e-12)
(1.95175e-12 -3.28194e-12 1.98628e-12)
(9.2337e-13 -3.00738e-12 1.71321e-12)
(5.69547e-13 -2.86734e-12 7.11803e-13)
(1.6258e-13 -5.38736e-12 -2.39259e-14)
(-4.41219e-13 -6.05925e-12 -1.93528e-12)
(1.70392e-13 -7.09096e-12 -2.80797e-12)
(1.7471e-12 -6.85748e-12 -2.94364e-12)
(2.67455e-12 -5.37918e-12 -4.07664e-12)
(2.06789e-12 -3.89504e-12 -5.32885e-12)
(9.26654e-13 -3.18548e-12 -5.56553e-12)
(8.36057e-13 -2.97564e-12 -5.42643e-12)
(7.96933e-13 -1.90873e-12 -5.36731e-12)
(-8.88494e-13 -7.54289e-13 -5.37374e-12)
(-3.37861e-12 -9.97017e-13 -4.92857e-12)
(-4.233e-12 -3.61505e-12 -3.71745e-12)
(-3.72725e-12 -4.42431e-12 -1.57657e-12)
(-2.53e-12 -3.93925e-12 -1.47292e-14)
(-2.18305e-12 -3.69901e-12 1.0821e-12)
(-1.24049e-12 -3.96373e-12 8.86892e-13)
(-8.73623e-13 -2.41628e-12 4.54386e-13)
(-2.20692e-12 -1.55877e-12 -9.07017e-13)
(-3.8164e-12 -1.17336e-12 -1.59589e-13)
(-6.13993e-12 -1.01289e-12 1.9635e-13)
(-8.55125e-12 -1.22649e-12 -5.90428e-13)
(-9.04764e-12 -3.05816e-12 -1.75547e-12)
(-8.74474e-12 -4.46891e-12 -2.99589e-12)
(-8.11511e-12 -4.81461e-12 -3.86362e-12)
(-7.22047e-12 -5.61064e-12 -3.60565e-12)
(-6.36943e-12 -5.06199e-12 -3.207e-12)
(-6.09011e-12 -3.72327e-12 -2.16301e-12)
(-4.52155e-12 -3.01426e-12 -1.93376e-12)
(-3.94108e-12 -3.35319e-12 -2.03764e-12)
(-5.2132e-12 -4.06501e-12 -2.45876e-12)
(-4.40133e-12 -5.5429e-12 -3.25785e-12)
(-3.70518e-12 -5.45188e-12 -4.63642e-12)
(-4.31445e-12 -6.60596e-12 -6.11871e-12)
(-3.74281e-12 -6.05469e-12 -6.04679e-12)
(-3.51737e-12 -5.5584e-12 -5.77226e-12)
(-3.9592e-12 -5.8581e-12 -6.14154e-12)
(-3.0442e-12 -5.98682e-12 -6.28674e-12)
(-2.0829e-12 -5.11314e-12 -6.25508e-12)
(-2.89434e-12 -4.01326e-12 -6.64847e-12)
(-3.62933e-12 -4.81144e-12 -6.80739e-12)
(-2.3906e-12 -4.19367e-12 -6.83741e-12)
(-1.71167e-12 -5.34936e-12 -6.66962e-12)
(-1.57055e-12 -6.70027e-12 -6.10673e-12)
(-8.50903e-13 -7.28513e-12 -5.70618e-12)
(-6.23912e-13 -6.67419e-12 -3.97543e-12)
(2.45527e-13 -5.56627e-12 -2.19387e-12)
(1.98552e-12 -5.83047e-12 -3.85921e-12)
(3.00761e-12 -6.00994e-12 -4.07805e-12)
(2.9649e-12 -6.51101e-12 -3.70128e-12)
(4.43512e-12 -6.07611e-12 -4.782e-12)
(5.48281e-12 -7.79798e-12 -5.28397e-12)
(5.5013e-12 -8.62047e-12 -2.80909e-12)
(6.66938e-12 -1.02407e-11 -3.877e-13)
(7.20139e-12 -9.20608e-12 2.55496e-12)
(9.16446e-12 -8.1858e-12 2.97833e-12)
(9.64284e-12 -7.89922e-12 2.97993e-12)
(9.72636e-12 -8.42277e-12 2.54147e-12)
(1.0896e-11 -8.19361e-12 1.65093e-12)
(1.05953e-11 -7.05038e-12 -4.11406e-14)
(2.5985e-12 9.12566e-14 -2.99836e-12)
(1.15255e-12 9.68352e-13 -2.43569e-12)
(1.08942e-12 5.38324e-13 -1.37724e-12)
(3.03785e-12 2.97433e-13 -4.22297e-13)
(3.52346e-12 1.15378e-12 2.95013e-13)
(1.92744e-12 1.27846e-12 1.17276e-12)
(9.85139e-13 1.3784e-12 4.17553e-13)
(2.21998e-12 1.28991e-12 -1.2965e-12)
(3.51217e-12 3.31458e-13 -4.38322e-12)
(2.97376e-12 -1.21192e-13 -7.3609e-12)
(1.78851e-12 -1.51122e-12 -9.27561e-12)
(1.07927e-12 -2.89901e-12 -9.73826e-12)
(1.56743e-12 -3.73086e-12 -9.56649e-12)
(1.75918e-12 -3.47236e-12 -9.45993e-12)
(9.4953e-13 -3.12668e-12 -8.7297e-12)
(-1.16139e-14 -2.64756e-12 -7.47635e-12)
(-1.01151e-12 -2.40307e-12 -6.45083e-12)
(-8.22276e-13 -1.63994e-12 -5.44615e-12)
(-6.57058e-13 -1.51611e-12 -4.78242e-12)
(-6.34898e-13 -1.46757e-12 -4.92853e-12)
(-1.77642e-12 -1.29603e-12 -5.06691e-12)
(-2.71668e-12 -1.50467e-12 -5.78821e-12)
(-3.42296e-12 -2.38577e-12 -6.25955e-12)
(-5.33621e-12 -2.22497e-12 -8.08235e-12)
(-7.19606e-12 -2.03964e-12 -9.5794e-12)
(-8.06444e-12 -2.86501e-12 -1.01393e-11)
(-8.38618e-12 -2.54294e-12 -9.37805e-12)
(-8.84349e-12 -2.94727e-12 -9.19345e-12)
(-1.02552e-11 -3.19691e-12 -9.47471e-12)
(-1.12263e-11 -4.03692e-12 -9.40495e-12)
(-1.0547e-11 -4.93818e-12 -9.95334e-12)
(-8.32043e-12 -5.75553e-12 -1.16374e-11)
(-7.42237e-12 -6.26291e-12 -1.32111e-11)
(-6.4258e-12 -6.44171e-12 -1.40532e-11)
(-3.90536e-12 -5.75446e-12 -1.36995e-11)
(-3.28778e-12 -4.70275e-12 -1.28047e-11)
(-3.18051e-12 -3.95572e-12 -1.1552e-11)
(-1.75819e-12 -2.42347e-12 -9.38322e-12)
(-2.35856e-12 -1.61336e-12 -9.90081e-12)
(-3.44433e-12 -2.44031e-12 -8.27894e-12)
(-2.90341e-12 -3.41867e-12 -6.32167e-12)
(-1.59851e-12 -3.86108e-12 -4.37982e-12)
(-1.11212e-12 -4.7071e-12 -3.75997e-12)
(-3.17907e-13 -5.48219e-12 -3.4716e-12)
(1.3612e-12 -5.00558e-12 -3.75717e-12)
(2.39865e-12 -4.38697e-12 -2.46223e-12)
(2.24738e-12 -4.78944e-12 -1.57665e-12)
(3.6759e-12 -4.06954e-12 -7.638e-13)
(5.15391e-12 -3.38832e-12 2.68161e-13)
(4.17819e-12 -2.63304e-12 6.79316e-13)
(2.99515e-12 -2.32494e-12 2.1707e-13)
(2.48409e-12 -1.59716e-12 -2.04752e-12)
(1.99585e-12 -1.29808e-12 -4.29356e-12)
(8.42489e-13 -1.20544e-12 -4.20261e-12)
(-2.77623e-13 -1.63616e-12 -4.40806e-12)
(-7.9473e-13 -2.35051e-12 -3.76685e-12)
(-1.18656e-12 -2.54172e-12 -3.32594e-12)
(-2.44958e-12 -2.66455e-12 -3.29481e-12)
(-1.93239e-12 -3.04372e-12 -2.08006e-12)
(-1.03917e-12 -2.49671e-12 -3.69603e-12)
(-9.06276e-14 -1.74119e-12 -3.11223e-12)
(-3.58364e-13 -1.56455e-13 -2.86726e-12)
(-6.59333e-13 1.34221e-13 -3.10769e-12)
(-1.24119e-12 -4.07606e-13 -2.97602e-12)
(-3.21242e-12 -1.3714e-12 -2.90633e-12)
(-3.62667e-12 -2.68147e-12 -2.31272e-12)
(-4.09365e-12 -3.84634e-12 -1.96998e-12)
(-3.23905e-12 -4.28442e-12 1.30352e-13)
(-2.02497e-12 -4.92218e-12 3.08067e-12)
(-9.39525e-13 -5.22436e-12 5.43709e-12)
(2.02061e-12 -5.57357e-12 6.30556e-12)
(4.90811e-12 -3.40188e-12 6.7803e-12)
(7.84616e-12 -3.24886e-12 6.8636e-12)
(9.42766e-12 -2.41855e-12 6.29099e-12)
(9.25991e-12 -1.62239e-12 7.95428e-12)
(7.90071e-12 -1.82746e-12 1.05794e-11)
(8.32064e-12 -1.6096e-12 1.36147e-11)
(8.03658e-12 -1.12031e-12 1.5437e-11)
(7.299e-12 -1.21474e-12 1.46585e-11)
(5.34147e-12 -1.32124e-12 1.37777e-11)
(4.03047e-12 -9.47688e-13 1.08922e-11)
(3.74939e-12 1.44238e-13 7.47266e-12)
(2.04755e-12 9.40335e-13 4.37717e-12)
(7.48781e-14 6.98592e-13 4.92491e-12)
(-5.85113e-13 1.34767e-13 4.29032e-12)
(-2.04012e-12 -3.98781e-13 4.07048e-12)
(-3.98705e-12 -5.16416e-13 4.83023e-12)
(-4.72343e-12 -2.42778e-13 5.02069e-12)
(-4.70266e-12 4.46274e-13 5.79943e-12)
(-5.32844e-12 2.00585e-14 3.97775e-12)
(-6.95549e-12 1.04254e-12 3.1061e-12)
(-8.56778e-12 7.86844e-13 3.92387e-12)
(-1.0247e-11 6.48032e-13 4.89962e-12)
(-1.10054e-11 9.93556e-13 5.54542e-12)
(-1.06731e-11 1.30111e-12 5.58844e-12)
(-1.11237e-11 1.29455e-12 5.03014e-12)
(-1.10373e-11 1.39749e-12 4.08702e-12)
(-1.05586e-11 1.29124e-12 3.93247e-12)
(-1.04402e-11 1.09576e-12 4.34847e-12)
(-1.00404e-11 -6.31276e-14 4.08732e-12)
(-1.02515e-11 -1.24798e-12 2.70404e-12)
(-1.07976e-11 -2.63344e-12 1.96329e-12)
(-1.00819e-11 -3.28954e-12 1.22122e-12)
(-8.50209e-12 -2.73849e-12 1.0047e-12)
(-7.44959e-12 -3.17668e-12 1.29589e-12)
(-6.21633e-12 -2.46048e-12 1.46311e-12)
(-5.05266e-12 -3.00542e-12 6.39736e-13)
(-2.96284e-12 -3.61097e-12 4.9143e-13)
(-1.04985e-12 -2.54576e-12 2.73593e-13)
(1.21944e-12 -1.62388e-12 -6.42256e-13)
(3.25415e-12 -1.58683e-12 -1.66612e-12)
(3.70372e-12 -2.51922e-12 -1.21738e-12)
(3.95749e-12 -2.44316e-12 -2.01857e-12)
(5.88671e-12 -3.08933e-12 -3.52728e-12)
(9.19756e-12 -3.38836e-12 -3.77846e-12)
(9.32781e-12 -3.40587e-12 -5.95139e-12)
(1.01518e-11 -3.92147e-12 -8.1182e-12)
(1.11254e-11 -3.30633e-12 -6.66661e-12)
(1.0537e-11 -4.20496e-12 -5.35232e-12)
(1.06875e-11 -4.52478e-12 -4.74647e-12)
(1.10628e-11 -4.53322e-12 -4.86606e-12)
(1.08692e-11 -3.50658e-12 -4.65838e-12)
(1.05785e-11 -2.82067e-12 -6.05899e-12)
(1.04592e-11 -1.8643e-12 -7.11131e-12)
(8.95986e-12 -1.40161e-12 -6.71202e-12)
(8.28469e-12 -1.39531e-12 -4.73277e-12)
(8.47968e-12 -2.16074e-12 -5.24629e-12)
(7.75397e-12 -1.68346e-12 -4.92787e-12)
(7.21274e-12 -1.8023e-12 -4.93036e-12)
(7.66961e-12 -2.15563e-12 -5.3331e-12)
(8.49661e-12 -6.83129e-13 -5.99852e-12)
(7.77056e-12 9.63567e-13 -7.91561e-12)
(7.39738e-12 2.72348e-12 -9.53367e-12)
(6.7602e-12 4.08058e-12 -1.09629e-11)
(4.58515e-12 3.0093e-12 -1.33448e-11)
(3.77099e-12 2.17788e-12 -1.33497e-11)
(4.84684e-12 1.5228e-12 -1.36854e-11)
(4.46513e-12 6.00282e-13 -1.44002e-11)
(3.39318e-12 9.0798e-13 -1.56123e-11)
(3.76848e-12 9.12349e-13 -1.53051e-11)
(3.9352e-12 6.65584e-13 -1.65035e-11)
(2.77214e-12 1.16971e-12 -1.61748e-11)
(1.98203e-12 1.8109e-12 -1.52031e-11)
(9.43894e-13 1.33663e-12 -1.15206e-11)
(-6.58559e-13 1.62522e-13 -7.64335e-12)
(-1.46332e-12 -1.75747e-12 -4.83856e-12)
(-1.13558e-12 -2.25533e-12 -2.50939e-12)
(2.0132e-13 -3.17544e-12 -6.85791e-13)
(1.22393e-12 -3.26265e-12 -9.66533e-13)
(1.41754e-12 -2.90473e-12 -2.45608e-12)
(9.76667e-13 -2.6172e-12 -1.23206e-12)
(7.95304e-13 -2.14951e-12 -8.37367e-13)
(-1.7789e-13 -2.55424e-12 -8.94318e-13)
(-1.45639e-12 -3.25607e-12 -2.23375e-12)
(-2.08241e-12 -4.71939e-12 -1.43752e-12)
(-1.52824e-12 -6.68915e-12 -2.70802e-12)
(3.45343e-13 -7.97491e-12 -2.49619e-12)
(2.27705e-12 -7.21966e-12 -3.17103e-12)
(3.83254e-12 -6.27129e-12 -4.09659e-12)
(3.67266e-12 -5.42573e-12 -5.15044e-12)
(4.25475e-12 -5.57103e-12 -5.79898e-12)
(4.99027e-12 -5.04784e-12 -5.90337e-12)
(4.37899e-12 -4.19846e-12 -6.55741e-12)
(5.04153e-12 -4.35121e-12 -7.22581e-12)
(5.2992e-12 -3.61454e-12 -7.16268e-12)
(4.0113e-12 -3.41113e-12 -7.11151e-12)
(2.87776e-12 -2.74902e-12 -4.7796e-12)
(2.93883e-12 -3.61506e-12 -2.90139e-12)
(3.37279e-12 -3.60219e-12 -8.73993e-13)
(2.06519e-12 -3.62745e-12 -5.3439e-13)
(5.86524e-13 -3.54879e-12 -7.99773e-13)
(1.33758e-12 -3.80243e-12 -9.85115e-13)
(1.43455e-12 -4.61743e-12 -1.74397e-12)
(-1.29654e-13 -5.04178e-12 -2.74455e-12)
(6.7295e-13 -5.17087e-12 -3.11951e-12)
(2.09119e-12 -5.10143e-12 -3.52861e-12)
(2.02695e-12 -4.39549e-12 -4.45405e-12)
(2.01481e-12 -3.30234e-12 -4.13251e-12)
(1.0929e-12 -2.73941e-12 -3.5157e-12)
(1.0815e-12 -2.41339e-12 -3.09143e-12)
(6.73007e-13 -1.20655e-12 -4.57927e-12)
(-1.15755e-12 -1.74579e-13 -6.01114e-12)
(-2.51344e-12 -3.47405e-13 -6.59069e-12)
(-3.2419e-12 -6.653e-13 -4.4434e-12)
(-3.9751e-12 -7.6887e-13 -1.69418e-12)
(-3.05116e-12 -9.02258e-13 7.22587e-13)
(-1.59759e-12 -9.31693e-13 1.90714e-12)
(-1.57028e-12 -1.66882e-12 2.27934e-12)
(-1.73163e-12 -1.47414e-12 3.17705e-12)
(-2.57542e-12 -1.13426e-12 1.91934e-12)
(-4.25119e-12 -3.13466e-13 1.09064e-12)
(-6.36562e-12 -1.04896e-12 4.0012e-14)
(-8.39464e-12 -1.3985e-12 -9.56601e-13)
(-8.87162e-12 -2.69164e-12 -1.68157e-12)
(-9.07045e-12 -3.16808e-12 -2.28828e-12)
(-8.32301e-12 -3.67558e-12 -2.30123e-12)
(-6.63394e-12 -3.53039e-12 -2.05049e-12)
(-6.20243e-12 -4.03092e-12 -8.5865e-13)
(-6.10018e-12 -3.54651e-12 -9.80446e-13)
(-5.10051e-12 -4.15443e-12 -1.18142e-12)
(-4.29816e-12 -3.8238e-12 -1.25602e-12)
(-4.01688e-12 -4.4602e-12 -1.73252e-12)
(-3.30767e-12 -5.07463e-12 -2.67495e-12)
(-3.87238e-12 -4.45593e-12 -4.15942e-12)
(-4.10459e-12 -4.28162e-12 -5.7857e-12)
(-3.76358e-12 -4.25566e-12 -5.09136e-12)
(-3.94649e-12 -3.55888e-12 -4.669e-12)
(-4.10888e-12 -3.38809e-12 -4.75824e-12)
(-3.76113e-12 -3.65326e-12 -4.78649e-12)
(-3.24391e-12 -3.55177e-12 -5.65073e-12)
(-2.35632e-12 -3.45231e-12 -6.75966e-12)
(-2.63511e-12 -4.37083e-12 -6.58715e-12)
(-2.1157e-12 -5.01537e-12 -6.46202e-12)
(-1.81288e-12 -5.03354e-12 -6.03818e-12)
(-2.21541e-12 -5.01514e-12 -5.76544e-12)
(-1.07802e-12 -4.72884e-12 -5.11648e-12)
(-4.76027e-13 -4.41287e-12 -2.48127e-12)
(9.45534e-14 -4.89185e-12 6.47423e-14)
(2.00881e-12 -4.50143e-12 -1.34707e-12)
(3.13063e-12 -4.12217e-12 -3.49138e-12)
(3.55114e-12 -5.0732e-12 -3.76999e-12)
(5.41833e-12 -6.48641e-12 -4.12966e-12)
(6.37766e-12 -6.73134e-12 -2.88196e-12)
(6.08913e-12 -7.43681e-12 -5.49762e-13)
(7.45545e-12 -7.9336e-12 1.71856e-15)
(7.37038e-12 -8.36558e-12 1.46156e-12)
(8.94812e-12 -7.85013e-12 2.12919e-12)
(9.83585e-12 -6.96202e-12 2.50948e-12)
(1.04151e-11 -7.17302e-12 2.44192e-12)
(1.08379e-11 -7.09956e-12 2.36828e-12)
(1.03097e-11 -6.31148e-12 1.751e-12)
(2.93942e-12 3.31456e-13 -4.37338e-12)
(1.43793e-12 -1.37911e-13 -3.45435e-12)
(1.33762e-12 -6.18375e-13 -1.59188e-12)
(2.26028e-12 -5.57458e-13 -1.55279e-13)
(2.55346e-12 1.24173e-12 3.35676e-13)
(2.12851e-12 1.42151e-12 1.09683e-12)
(1.67126e-12 9.02321e-13 4.31553e-13)
(2.17878e-12 -1.84579e-13 -1.46013e-12)
(2.8102e-12 3.68157e-13 -4.91272e-12)
(2.95085e-12 2.32829e-13 -7.38562e-12)
(3.47427e-12 -8.54595e-13 -8.90124e-12)
(2.9735e-12 -1.89906e-12 -9.67938e-12)
(2.30902e-12 -2.41484e-12 -9.37536e-12)
(1.35887e-12 -1.71164e-12 -9.03665e-12)
(6.65037e-13 -2.04857e-12 -7.86947e-12)
(-3.27809e-13 -1.79351e-12 -6.89041e-12)
(-9.55695e-13 -1.36174e-12 -6.00267e-12)
(-1.09583e-12 -9.0376e-13 -5.28609e-12)
(-9.31891e-13 -1.21675e-12 -4.5343e-12)
(-5.92923e-13 -1.04585e-12 -4.121e-12)
(-1.0155e-12 -7.71663e-13 -3.40947e-12)
(-2.48931e-12 -1.1861e-12 -2.72533e-12)
(-3.94144e-12 -3.61631e-13 -3.5501e-12)
(-5.77169e-12 -1.15979e-12 -5.18992e-12)
(-7.68658e-12 -9.67113e-13 -6.50183e-12)
(-8.41211e-12 -1.48317e-12 -7.58024e-12)
(-8.55216e-12 -1.92767e-12 -7.7736e-12)
(-8.86846e-12 -2.25143e-12 -8.31592e-12)
(-9.81513e-12 -2.50333e-12 -8.72982e-12)
(-1.05582e-11 -3.04273e-12 -8.80092e-12)
(-9.9268e-12 -4.06832e-12 -8.53574e-12)
(-8.20686e-12 -4.45012e-12 -1.00223e-11)
(-8.00985e-12 -4.34403e-12 -1.16582e-11)
(-6.21577e-12 -4.44892e-12 -1.22582e-11)
(-4.28848e-12 -4.99584e-12 -1.16569e-11)
(-3.45787e-12 -3.55393e-12 -1.07895e-11)
(-2.55508e-12 -4.43042e-12 -1.01025e-11)
(-3.15636e-12 -3.58875e-12 -8.0722e-12)