/*--------------------------------*- C++ -*----------------------------------*\
| =========                 |                                                 |
| \\      /  F ield         | OpenFOAM: The Open Source CFD Toolbox           |
|  \\    /   O peration     | Version:  2406                                  |
|   \\  /    A nd           | Website:  www.openfoam.com                      |
|    \\/     M anipulation  |                                                 |
\*---------------------------------------------------------------------------*/
FoamFile
{
    version     2.0;
    format      ascii;
    arch        "LSB;label=32;scalar=64";
    class       volVectorField;
    location    "0.05";
    object      U;
}
// * * * * * * * * * * * * * * * * * * * * * * * * * * * * * * * * * * * * * //

dimensions      [0 1 -1 0 0 0 0];

internalField   nonuniform List<vector> 
13818
(
(-7.65366e-12 -4.20011e-12 5.64364e-12)
(-8.45458e-12 -4.66149e-12 3.17667e-12)
(-1.08528e-11 -1.61509e-12 6.98464e-12)
(-1.55403e-11 -2.02307e-12 1.66026e-11)
(-1.83763e-11 -4.71245e-12 1.79134e-11)
(-1.78048e-11 -4.78546e-12 1.95636e-11)
(-1.94903e-11 -4.58503e-12 1.87186e-11)
(-1.89756e-11 -2.44976e-12 1.56705e-11)
(-2.0404e-11 -2.81084e-12 1.28829e-11)
(-2.38961e-11 -4.20464e-12 1.0446e-11)
(-2.77471e-11 -2.84577e-12 8.39413e-12)
(-2.87065e-11 1.1111e-12 3.51726e-12)
(-2.67761e-11 3.00005e-12 6.03191e-12)
(-2.26597e-11 2.94555e-12 9.16584e-12)
(-1.9547e-11 3.82756e-12 7.24172e-12)
(-1.87092e-11 5.0111e-12 5.26299e-12)
(-1.56163e-11 3.16887e-12 6.75287e-12)
(-1.42874e-11 3.72222e-12 8.58489e-12)
(-1.47972e-11 4.44768e-12 5.43073e-12)
(-1.07266e-11 2.92425e-12 1.3688e-12)
(-1.1568e-11 2.588e-12 3.27017e-12)
(-1.28101e-11 1.87824e-12 1.60677e-13)
(-1.0611e-11 2.90013e-13 -2.96501e-13)
(-9.61151e-12 -1.27274e-12 -3.93651e-12)
(-6.19584e-12 -1.9923e-12 -4.45639e-12)
(-5.47615e-12 -1.57899e-12 -4.27485e-12)
(-5.62289e-12 -7.25693e-13 -8.16126e-12)
(-3.16097e-12 1.45773e-13 -1.1748e-11)
(-1.76048e-12 -2.61929e-12 -1.71935e-11)
(-1.46576e-12 -2.21233e-12 -2.25476e-11)
(-3.98354e-12 -1.74743e-12 -2.18747e-11)
(-5.34182e-12 -1.28895e-12 -2.32664e-11)
(-1.9133e-12 -1.8343e-12 -2.2437e-11)
(-7.06247e-13 -2.2271e-12 -1.54215e-11)
(-2.49272e-12 -4.01848e-13 -4.7332e-12)
(-1.27504e-12 1.98574e-13 1.34371e-11)
(-1.8153e-12 1.56308e-13 2.69876e-11)
(-2.88112e-12 -1.46918e-12 2.56553e-11)
(-3.10535e-13 -3.92394e-13 2.3301e-11)
(-8.55225e-13 1.38724e-12 2.45728e-11)
(7.34609e-13 2.92602e-12 2.09353e-11)
(4.26563e-12 3.18625e-12 2.30939e-11)
(3.22126e-12 2.92438e-12 2.17989e-11)
(2.63836e-12 4.66687e-13 1.44981e-11)
(5.17535e-12 -2.82487e-12 4.57165e-12)
(6.05506e-12 -1.50281e-12 -2.66126e-12)
(2.92264e-12 3.77247e-13 -3.96162e-12)
(3.18555e-12 1.4202e-12 -6.68267e-12)
(2.27792e-12 7.8088e-13 -1.11913e-11)
(1.22398e-12 -4.8187e-13 -7.38448e-12)
(3.90215e-12 2.64795e-12 -2.53658e-12)
(5.10359e-12 5.72862e-12 -1.28127e-12)
(5.28853e-12 2.36728e-12 -9.02741e-13)
(4.15111e-12 9.5174e-13 6.95577e-12)
(2.6145e-12 4.29793e-12 1.00965e-11)
(1.74179e-12 3.31562e-12 1.13109e-11)
(2.77253e-12 -4.28411e-13 4.84813e-12)
(4.1908e-12 6.49329e-13 -1.88743e-13)
(3.61454e-12 4.15668e-13 1.57497e-13)
(3.83008e-12 1.58927e-12 -2.2878e-12)
(5.03391e-12 3.11467e-12 -2.32938e-12)
(5.48987e-12 6.92568e-13 -2.95866e-12)
(2.28477e-12 -2.55515e-13 -7.56724e-12)
(-8.18848e-13 1.33284e-12 -1.62042e-11)
(-6.20332e-13 8.90538e-13 -2.33801e-11)
(8.57385e-13 -2.79181e-13 -2.12084e-11)
(2.10071e-12 2.22378e-13 -1.98594e-11)
(2.02813e-12 -1.26839e-13 -1.72824e-11)
(9.6194e-13 2.32849e-12 -1.49262e-11)
(-3.04389e-13 9.32828e-13 -6.19441e-12)
(-2.20775e-12 -8.21004e-14 8.04299e-12)
(-6.44394e-12 1.0741e-12 9.69451e-12)
(-4.10157e-12 3.77728e-13 1.35018e-11)
(-2.54668e-12 1.11459e-12 1.4055e-11)
(-2.41326e-12 6.36161e-13 1.12539e-11)
(-2.47969e-12 2.5708e-12 4.81191e-12)
(2.16905e-12 2.46565e-12 -7.02939e-12)
(5.489e-12 5.00666e-12 -1.55712e-11)
(3.99607e-12 5.04441e-12 -1.26598e-11)
(1.41886e-12 4.21457e-12 -1.23901e-11)
(1.20257e-12 2.02745e-12 -1.56236e-11)
(6.86186e-13 9.44455e-13 -1.09839e-11)
(-2.0371e-12 7.43124e-13 -7.75408e-12)
(-4.99965e-12 3.33501e-13 -5.3366e-12)
(-6.4648e-12 3.24114e-12 -3.15648e-12)
(-5.68483e-12 2.9532e-12 1.08297e-12)
(-3.37541e-12 3.37444e-12 2.63638e-12)
(-2.23078e-12 9.75695e-13 -2.3223e-12)
(-5.37531e-13 2.68383e-12 -8.63067e-12)
(-1.2535e-12 1.40842e-13 -1.73813e-11)
(-1.71097e-12 3.3281e-13 -1.4055e-11)
(-2.65658e-12 -2.64519e-13 -1.3196e-11)
(-9.10211e-13 4.34977e-13 -1.30409e-11)
(2.78113e-13 6.11384e-13 -1.23986e-11)
(-1.19692e-12 2.2611e-12 -1.11791e-11)
(3.86978e-14 2.64909e-12 -6.79919e-12)
(8.64337e-13 7.46464e-13 -1.58391e-12)
(2.04719e-12 9.35856e-13 -1.81217e-12)
(1.7002e-12 2.07502e-13 -4.5573e-12)
(-6.38344e-13 1.95162e-12 -5.15461e-12)
(-1.7356e-12 3.0196e-12 -2.49151e-12)
(1.25326e-12 1.97619e-12 7.31197e-12)
(1.85853e-12 1.99125e-12 1.93722e-11)
(-1.11706e-12 1.80929e-13 1.86771e-11)
(-3.54675e-12 1.97165e-13 1.15347e-11)
(-3.636e-13 -1.17504e-12 4.89891e-12)
(-4.38958e-12 -5.013e-12 3.59342e-12)
(-9.60149e-12 -4.99132e-12 3.17671e-12)
(-1.22619e-11 -9.08782e-13 6.73939e-12)
(-1.25662e-11 -2.93107e-12 1.36937e-11)
(-1.5386e-11 -6.94837e-12 2.07537e-11)
(-1.82302e-11 -7.5889e-12 2.3674e-11)
(-2.08664e-11 -4.71811e-12 2.13333e-11)
(-2.10985e-11 -4.95336e-12 1.41164e-11)
(-2.03957e-11 -5.19683e-13 1.07801e-11)
(-2.35698e-11 -3.44005e-12 1.04978e-11)
(-2.88258e-11 -1.16516e-12 8.51682e-12)
(-2.86543e-11 -5.68942e-13 6.27653e-12)
(-2.64175e-11 -1.20265e-12 4.98668e-12)
(-2.45993e-11 -1.06318e-13 7.91651e-12)
(-2.08317e-11 4.04074e-12 7.66162e-12)
(-1.71216e-11 3.38423e-12 6.42975e-12)
(-1.58869e-11 1.77879e-12 8.15369e-12)
(-1.5927e-11 3.63925e-12 6.75336e-12)
(-1.28685e-11 3.37009e-12 2.13116e-12)
(-9.5418e-12 2.35797e-12 -2.00144e-13)
(-1.13884e-11 3.40258e-12 -6.52617e-13)
(-1.16496e-11 6.90166e-13 -1.94323e-12)
(-9.63467e-12 3.75801e-13 -2.23058e-12)
(-8.17579e-12 -1.73416e-12 -4.33491e-12)
(-6.70824e-12 -1.95713e-12 -5.99794e-12)
(-6.69468e-12 -8.81969e-13 -5.48251e-12)
(-6.44664e-12 -1.62977e-12 -8.29928e-12)
(-2.5418e-12 -3.08252e-12 -8.94465e-12)
(-2.50172e-13 -4.35002e-12 -1.50805e-11)
(-2.57332e-12 -4.01261e-12 -2.07386e-11)
(-4.73096e-12 -2.81828e-12 -2.41029e-11)
(-4.91493e-12 -4.37709e-12 -2.32519e-11)
(-3.05508e-12 -3.0677e-12 -2.43401e-11)
(-8.24911e-13 -3.74696e-12 -1.94459e-11)
(-2.34551e-12 -6.22721e-13 -7.03345e-12)
(-2.64259e-12 -2.37009e-12 8.99327e-12)
(-7.62989e-13 2.24003e-12 2.02113e-11)
(-5.24558e-13 -1.0238e-12 2.11798e-11)
(-2.16815e-12 -1.17745e-12 2.13815e-11)
(-2.75086e-12 6.204e-13 1.98115e-11)
(1.65405e-12 -9.18994e-13 1.90488e-11)
(3.96198e-12 -1.63038e-12 2.47966e-11)
(3.28047e-12 -1.71604e-13 2.29446e-11)
(3.58512e-12 -2.26789e-12 2.11422e-11)
(6.43675e-12 -4.76225e-12 1.00527e-11)
(3.35791e-12 -2.59462e-12 -6.16338e-13)
(2.15178e-12 -5.89553e-13 -5.45674e-12)
(3.44474e-12 -2.46024e-12 -7.23686e-12)
(3.83798e-12 -1.52091e-12 -1.0431e-11)
(2.17382e-12 -2.61756e-12 -4.70986e-12)
(1.58863e-12 -3.546e-12 4.59734e-13)
(5.14819e-12 -1.42991e-12 -1.55669e-12)
(7.36735e-12 -1.80196e-13 -3.9981e-12)
(3.60829e-12 -9.75845e-13 2.9953e-12)
(8.19233e-13 -5.33647e-13 6.7672e-12)
(3.89242e-12 -1.07684e-12 9.21733e-12)
(3.69523e-12 -2.87954e-12 4.34379e-12)
(2.9365e-12 -3.05125e-12 1.91296e-12)
(3.04568e-12 -1.97436e-12 2.37549e-12)
(1.54662e-12 -3.10392e-12 1.08984e-12)
(4.97707e-12 -2.76953e-12 1.12498e-12)
(7.07287e-12 -5.64202e-13 -1.38422e-12)
(1.484e-12 -1.0192e-12 -6.97961e-12)
(-2.40791e-12 2.3102e-13 -1.56099e-11)
(1.58108e-12 1.36955e-13 -2.12616e-11)
(2.55282e-12 -3.96602e-13 -2.0262e-11)
(6.30256e-13 1.59637e-13 -2.02123e-11)
(-4.20428e-13 1.15895e-12 -2.11227e-11)
(1.37402e-12 3.3733e-12 -1.65887e-11)
(1.64016e-12 -1.688e-13 -9.30193e-12)
(-1.96794e-12 4.61288e-13 3.39151e-12)
(-5.77764e-12 -2.97443e-12 7.08295e-12)
(-3.81782e-12 -3.02232e-12 1.43388e-11)
(-2.37902e-12 -3.04064e-12 1.37302e-11)
(-2.96644e-12 -2.28564e-12 1.40845e-11)
(-4.43356e-12 -2.73844e-12 9.06775e-12)
(-8.33713e-14 -1.2992e-12 -5.75728e-12)
(2.89469e-12 3.25038e-12 -1.21311e-11)
(3.07536e-12 6.95613e-12 -1.07245e-11)
(3.14945e-12 5.2322e-12 -1.08571e-11)
(3.18639e-12 3.2778e-12 -1.19751e-11)
(1.4531e-12 2.77077e-12 -9.26638e-12)
(-1.83038e-12 1.35814e-12 -7.93593e-12)
(-5.91431e-12 5.18595e-13 -5.45055e-12)
(-6.91411e-12 9.48959e-13 -5.06814e-12)
(-5.40223e-12 1.34317e-12 -9.3064e-13)
(-2.87203e-12 1.74367e-12 1.06285e-13)
(-2.5863e-12 1.65919e-12 -3.83082e-12)
(-9.0306e-13 1.00044e-12 -1.0051e-11)
(-2.72436e-13 7.61724e-14 -1.45475e-11)
(-1.28377e-12 -1.33396e-12 -1.36813e-11)
(-2.08246e-12 -3.33668e-12 -1.34378e-11)
(-5.27159e-13 -4.10603e-12 -1.33924e-11)
(-6.97584e-13 -2.05127e-12 -1.3159e-11)
(-2.67535e-12 -2.7562e-12 -1.10433e-11)
(4.14729e-13 -1.66013e-12 -7.44699e-12)
(1.70403e-12 -1.85106e-12 -2.62136e-12)
(2.61069e-12 -1.06473e-12 -3.83347e-12)
(1.56032e-12 1.00621e-12 -5.3723e-12)
(-1.35099e-12 -7.07965e-14 -5.04455e-12)
(-1.44228e-12 -2.74508e-12 -3.04495e-12)
(-2.63747e-15 -1.77605e-13 4.62233e-12)
(2.03304e-12 1.91509e-12 1.2983e-11)
(1.33717e-13 2.11477e-12 1.27321e-11)
(-1.09142e-12 -1.57353e-13 9.44456e-12)
(-2.26813e-13 -3.34365e-12 8.56036e-12)
(-5.86469e-12 -4.67425e-12 -3.79881e-13)
(-9.14963e-12 -2.38288e-12 1.31437e-12)
(-1.19368e-11 -3.7089e-12 5.06501e-12)
(-1.06371e-11 -6.24574e-12 1.28071e-11)
(-1.49148e-11 -4.01799e-12 2.04416e-11)
(-1.97301e-11 -4.27183e-12 2.08141e-11)
(-2.09699e-11 -2.97539e-12 2.15122e-11)
(-2.14152e-11 -3.13297e-12 1.68572e-11)
(-2.11244e-11 -1.05918e-12 8.26015e-12)
(-2.4078e-11 -2.85909e-13 8.68806e-12)
(-2.88566e-11 2.77094e-12 8.76721e-12)
(-2.79076e-11 1.02945e-13 9.46259e-12)
(-2.66726e-11 5.40628e-13 7.2051e-12)
(-2.6451e-11 2.50386e-13 8.47865e-12)
(-2.17744e-11 2.08666e-12 8.45268e-12)
(-1.69713e-11 1.4487e-12 6.22823e-12)
(-1.5432e-11 2.14634e-12 8.44013e-12)
(-1.52943e-11 2.00284e-12 5.90992e-12)
(-1.39011e-11 1.36197e-12 9.27342e-13)
(-1.03012e-11 2.3367e-12 -5.89875e-13)
(-9.96128e-12 1.49328e-12 -2.36247e-12)
(-1.04455e-11 3.36435e-13 -3.60393e-12)
(-9.52477e-12 1.01475e-12 -3.4034e-12)
(-7.78195e-12 -2.63895e-13 -3.93702e-12)
(-7.67523e-12 6.83223e-14 -6.24476e-12)
(-6.37688e-12 3.7565e-13 -8.86785e-12)
(-3.85391e-12 -9.00678e-13 -1.17568e-11)
(-1.59704e-12 -2.29792e-12 -1.13898e-11)
(-1.07329e-12 -1.58877e-12 -1.46169e-11)
(-2.61256e-12 -6.60214e-14 -1.88578e-11)
(-4.57023e-12 -2.13764e-12 -1.93918e-11)
(-5.70705e-12 -3.10448e-12 -2.06562e-11)
(-2.63798e-12 -3.96531e-12 -2.01498e-11)
(-6.27066e-13 -3.22535e-12 -1.62e-11)
(-3.05122e-12 -1.09023e-12 -1.04822e-11)
(-3.99809e-12 -2.1991e-12 2.42819e-12)
(-2.34497e-12 -2.57859e-13 1.11016e-11)
(-1.07401e-12 -2.3344e-13 1.40094e-11)
(-1.95919e-12 -1.73041e-12 1.32844e-11)
(-1.32985e-12 -4.41515e-12 1.41387e-11)
(2.50646e-12 -4.36338e-12 1.63147e-11)
(3.54068e-12 -3.78321e-12 2.17627e-11)
(3.33518e-12 -2.81889e-12 2.05463e-11)
(4.80884e-12 -1.861e-12 2.11478e-11)
(5.91684e-12 -2.16054e-12 1.17075e-11)
(3.20182e-12 -9.33772e-13 1.78303e-12)
(2.87576e-12 -3.77504e-12 -5.85018e-12)
(3.97255e-12 -2.32921e-12 -7.68821e-12)
(2.44264e-12 -1.54021e-12 -1.09898e-11)
(2.62287e-12 -2.23547e-12 -6.44802e-12)
(3.36378e-12 -3.51593e-12 -2.00583e-12)
(3.01726e-12 -3.27055e-12 -3.12288e-12)
(4.7805e-12 -5.99401e-13 -4.42995e-12)
(3.7849e-12 1.59424e-13 -4.43807e-13)
(3.07995e-12 -2.47151e-12 9.28614e-13)
(4.01636e-12 -2.46321e-12 2.45485e-12)
(3.95454e-12 -5.21064e-13 2.78775e-12)
(2.86721e-12 -1.9937e-12 3.26032e-12)
(3.04093e-12 -1.53662e-12 3.00193e-12)
(3.82857e-12 -3.32303e-12 3.50257e-12)
(2.29522e-12 -5.67739e-12 5.57393e-12)
(3.95275e-12 -1.16855e-12 1.1704e-12)
(1.63895e-12 1.84016e-13 -7.03383e-12)
(-1.28239e-12 -1.07319e-12 -1.43545e-11)
(6.3459e-13 -3.50583e-13 -1.7933e-11)
(1.16018e-12 1.37562e-12 -1.87618e-11)
(7.66666e-13 1.92348e-12 -2.01334e-11)
(4.49895e-14 1.15701e-13 -1.98193e-11)
(1.96895e-12 -3.79963e-15 -1.8369e-11)
(1.60095e-12 2.78138e-13 -8.52892e-12)
(-8.45496e-13 8.53968e-13 2.15431e-12)
(-4.45556e-12 -2.21951e-12 8.04522e-12)
(-3.71554e-12 -2.88052e-12 1.42105e-11)
(-3.16177e-12 -3.93354e-12 1.53311e-11)
(-3.18077e-12 -2.77771e-12 1.3966e-11)
(-3.59948e-12 -4.48661e-12 8.04726e-12)
(-1.79458e-12 -2.29797e-13 -2.04752e-12)
(-4.88423e-13 6.64164e-13 -9.11868e-12)
(1.88953e-12 3.1063e-12 -9.13248e-12)
(3.22879e-12 3.20192e-12 -8.62271e-12)
(1.97264e-12 4.65164e-12 -6.60091e-12)
(1.41402e-12 6.2549e-12 -6.24057e-12)
(-6.93161e-13 5.64982e-12 -6.05977e-12)
(-4.12982e-12 3.7372e-12 -2.60403e-12)
(-5.98283e-12 1.55564e-12 -2.12201e-12)
(-5.45872e-12 2.27478e-12 -9.57944e-13)
(-3.89685e-12 1.37451e-12 -1.64327e-12)
(-2.29637e-12 1.87285e-12 -6.03296e-12)
(-1.41551e-12 1.40654e-13 -1.19726e-11)
(-1.44041e-13 1.53305e-12 -1.38585e-11)
(2.08684e-13 4.20234e-13 -1.3601e-11)
(-7.9245e-13 -8.47934e-13 -1.36433e-11)
(-1.18531e-12 -1.71376e-12 -1.36604e-11)
(-4.73442e-13 -4.8407e-13 -1.41141e-11)
(-1.49794e-12 -1.17249e-12 -1.07409e-11)
(-3.20793e-14 -2.04222e-12 -9.17828e-12)
(1.08546e-12 -1.51332e-12 -5.89077e-12)
(1.31033e-13 1.35027e-13 -7.60277e-12)
(5.20966e-13 2.58348e-12 -7.50403e-12)
(8.72815e-13 1.29293e-12 -5.64452e-12)
(-2.13991e-12 -6.43338e-14 -3.46056e-12)
(-2.03184e-12 1.24894e-12 1.53859e-12)
(-7.21514e-13 1.36446e-12 6.1449e-12)
(-9.25936e-13 2.9389e-12 6.40804e-12)
(9.46032e-13 4.7864e-13 6.62013e-12)
(4.14127e-13 7.69988e-14 5.93997e-12)
(-5.97342e-12 -5.94024e-12 -3.79592e-12)
(-9.88131e-12 -3.32018e-12 -1.21373e-12)
(-8.08738e-12 -5.16887e-12 2.77329e-12)
(-1.05844e-11 -4.65393e-12 1.02504e-11)
(-1.53219e-11 -1.36947e-12 1.62517e-11)
(-1.94768e-11 -1.43621e-13 1.78831e-11)
(-2.21895e-11 -1.70051e-12 1.90936e-11)
(-2.28226e-11 -1.67243e-12 1.47395e-11)
(-2.252e-11 -2.95243e-13 8.54937e-12)
(-2.72091e-11 3.79592e-12 7.42778e-12)
(-2.86841e-11 5.18634e-12 5.27654e-12)
(-2.77115e-11 3.41258e-12 5.64883e-12)
(-2.71084e-11 4.75769e-12 5.29984e-12)
(-2.51075e-11 3.85904e-12 8.28027e-12)
(-2.09173e-11 2.42022e-12 9.83257e-12)
(-1.77136e-11 2.9891e-12 7.93712e-12)
(-1.67007e-11 4.33036e-12 8.99106e-12)
(-1.50879e-11 3.76248e-12 7.95598e-12)
(-1.26944e-11 2.12135e-12 1.23607e-12)
(-9.0513e-12 2.68733e-12 -3.67029e-13)
(-9.40632e-12 3.60224e-13 -1.98275e-12)
(-1.11303e-11 -5.46215e-13 -4.48907e-12)
(-9.75869e-12 -1.18052e-12 -3.31862e-12)
(-8.19557e-12 -1.55278e-13 -3.26965e-12)
(-7.23364e-12 -2.05107e-13 -6.0275e-12)
(-5.36671e-12 -1.27235e-12 -1.0288e-11)
(-3.83539e-12 -1.19057e-12 -1.47809e-11)
(-2.96965e-12 -1.52666e-12 -1.26669e-11)
(-3.58433e-12 -1.29493e-12 -1.29054e-11)
(-2.86025e-12 -1.6436e-13 -1.38912e-11)
(-2.19456e-12 -7.53863e-14 -1.31351e-11)
(-3.58054e-12 -2.01238e-13 -1.43872e-11)
(-1.89558e-12 -1.05268e-12 -1.4519e-11)
(-1.29793e-12 -1.74014e-12 -1.1223e-11)
(-3.02558e-12 -1.86112e-12 -6.67287e-12)
(-3.40311e-12 5.08345e-13 -9.88888e-14)
(-1.7506e-12 -3.41668e-12 3.48916e-12)
(5.12328e-13 -3.08909e-12 5.78163e-12)
(-7.47511e-13 -4.67705e-12 5.99176e-12)
(-1.92418e-12 -5.76406e-12 7.6271e-12)
(1.52057e-12 -6.00498e-12 1.0727e-11)
(4.30714e-12 -3.9182e-12 1.37792e-11)
(2.22925e-12 -4.17298e-12 1.58442e-11)
(2.85453e-12 -3.32311e-12 1.62276e-11)
(6.07145e-12 -2.06597e-12 1.0545e-11)
(5.60388e-12 4.64489e-13 1.56545e-12)
(3.31088e-12 -1.66498e-12 -3.95329e-12)
(2.75071e-12 -4.51323e-13 -1.04588e-11)
(3.01172e-12 -9.27007e-13 -1.43659e-11)
(3.04697e-12 -1.70286e-12 -8.70506e-12)
(2.90793e-12 -1.98055e-13 -4.54666e-12)
(3.6256e-12 -4.21445e-13 -4.83429e-12)
(4.41207e-12 -6.97952e-13 -8.08521e-12)
(4.14238e-12 -1.13388e-12 -6.01668e-12)
(2.83147e-12 -3.27761e-12 -5.55752e-12)
(1.00923e-12 -2.73761e-12 -3.05942e-12)
(2.7183e-12 -9.80881e-13 7.78511e-13)
(4.54881e-12 -4.90878e-13 2.36076e-12)
(3.81589e-12 -2.59595e-12 3.14284e-12)
(3.86875e-12 -1.78628e-12 5.95741e-12)
(2.05807e-12 -1.95829e-12 9.93329e-12)
(1.25082e-12 -5.17372e-14 3.47733e-12)
(1.85171e-12 2.46967e-12 -6.37703e-12)
(-1.17527e-12 4.71344e-13 -1.38085e-11)
(-3.11574e-13 -3.32829e-13 -1.59947e-11)
(8.94667e-13 -7.09358e-14 -1.61692e-11)
(1.31545e-12 6.8452e-13 -1.75464e-11)
(1.56662e-12 2.39097e-13 -1.86509e-11)
(1.6437e-12 -6.04424e-13 -2.01186e-11)
(9.95476e-13 6.27159e-13 -1.03213e-11)
(-1.52118e-12 3.64997e-13 1.08187e-12)
(-2.56497e-12 2.97104e-13 1.04641e-11)
(-2.40591e-12 -3.06879e-12 1.63973e-11)
(-2.62279e-12 -1.35721e-12 1.7549e-11)
(-3.1122e-12 -1.52849e-12 1.53964e-11)
(-6.10241e-12 -1.76303e-12 9.15895e-12)
(-3.47702e-12 -1.33427e-13 -8.07093e-13)
(1.86414e-13 1.70509e-12 -6.07686e-12)
(1.05955e-12 3.45455e-12 -5.8887e-12)
(1.83655e-12 4.7196e-12 -6.61171e-12)
(4.15172e-13 6.26784e-12 -2.86048e-12)
(2.80529e-13 6.19807e-12 -2.73343e-12)
(2.36302e-13 6.44627e-12 -8.34903e-13)
(-1.7335e-12 6.13012e-12 1.931e-12)
(-3.98225e-12 4.3208e-12 2.29898e-12)
(-3.96504e-12 2.33722e-12 7.80128e-13)
(-2.71688e-12 1.27672e-12 -2.12121e-12)
(-2.53124e-12 -3.8838e-13 -6.57752e-12)
(-2.23668e-12 8.26041e-14 -1.31679e-11)
(-1.00641e-12 1.29723e-12 -1.33674e-11)
(-1.0347e-12 1.52204e-12 -1.27213e-11)
(-1.08693e-12 2.29153e-12 -1.26313e-11)
(-6.10534e-13 8.81156e-13 -1.08451e-11)
(-2.79074e-13 9.69415e-13 -1.04809e-11)
(-2.03741e-14 2.13379e-12 -1.09895e-11)
(1.25607e-12 1.47867e-12 -9.45589e-12)
(2.51094e-13 1.35614e-12 -6.88533e-12)
(-4.22889e-13 1.9486e-12 -1.09629e-11)
(-8.31619e-14 2.54922e-12 -9.47636e-12)
(-4.09748e-13 4.02646e-12 -6.79061e-12)
(-1.89923e-12 4.87055e-12 -4.28325e-12)
(-6.99719e-13 5.18754e-12 -1.44333e-12)
(-2.07271e-13 4.2632e-12 2.15043e-14)
(4.07562e-13 4.2387e-12 1.72851e-12)
(8.17496e-13 4.147e-12 4.78114e-12)
(-5.77332e-12 -3.43261e-12 -3.97141e-12)
(-9.17354e-12 -4.16084e-12 -3.04854e-12)
(-7.60028e-12 -3.6636e-12 7.16099e-13)
(-1.15844e-11 -1.22891e-12 7.62808e-12)
(-1.69722e-11 1.96292e-12 1.29631e-11)
(-1.94647e-11 3.81908e-12 1.5855e-11)
(-2.10583e-11 3.72537e-12 1.80061e-11)
(-2.20937e-11 2.58985e-12 1.39668e-11)
(-2.44314e-11 5.06303e-12 9.14242e-12)
(-2.95808e-11 7.49584e-12 6.49228e-12)
(-2.89257e-11 9.75559e-12 4.98463e-12)
(-2.79249e-11 1.03594e-11 3.49538e-12)
(-2.83176e-11 1.13755e-11 3.12605e-12)
(-2.51809e-11 1.0098e-11 5.71551e-12)
(-2.05988e-11 9.15756e-12 8.34356e-12)
(-1.77447e-11 9.09982e-12 7.19318e-12)
(-1.62e-11 9.68008e-12 9.27732e-12)
(-1.36241e-11 8.7868e-12 7.06312e-12)
(-1.29418e-11 6.02354e-12 2.45407e-12)
(-9.16412e-12 6.84658e-12 2.35807e-13)
(-8.13265e-12 6.04771e-12 -1.1535e-12)
(-1.00038e-11 4.65882e-12 -2.00234e-12)
(-9.93919e-12 1.51544e-12 -2.78593e-12)
(-8.69308e-12 2.40474e-12 -3.90808e-12)
(-6.30327e-12 9.66509e-13 -6.44047e-12)
(-5.58019e-12 1.29304e-12 -1.01517e-11)
(-3.53802e-12 2.09038e-12 -1.30329e-11)
(-2.86425e-12 2.86667e-12 -1.17284e-11)
(-3.92114e-12 3.94684e-12 -1.14993e-11)
(-3.25774e-12 4.15761e-12 -1.20188e-11)
(-2.80269e-12 5.46673e-12 -1.15769e-11)
(-3.75115e-12 5.16008e-12 -1.20368e-11)
(-1.05841e-12 5.38173e-12 -1.24574e-11)
(-3.80558e-13 4.22865e-12 -9.08886e-12)
(-3.54195e-12 4.0684e-12 -5.26725e-12)
(-2.09187e-12 5.32793e-12 -1.85306e-12)
(-9.28967e-13 1.83624e-12 -1.243e-13)
(-1.56693e-13 9.27038e-13 1.15493e-12)
(-8.25309e-13 1.21396e-12 1.24462e-12)
(-1.32828e-12 -3.75552e-13 2.24103e-12)
(1.53029e-12 -7.41553e-13 5.26958e-12)
(3.50083e-12 1.75745e-12 8.85646e-12)
(3.0708e-12 2.14214e-12 1.30118e-11)
(3.2944e-12 4.72823e-13 1.31188e-11)
(4.29987e-12 5.90451e-13 9.47205e-12)
(4.58826e-12 4.60003e-12 4.09217e-12)
(3.92225e-12 3.01277e-12 -1.84672e-12)
(3.58254e-12 2.29045e-12 -9.07349e-12)
(2.76343e-12 9.14137e-13 -1.26154e-11)
(2.23714e-12 1.79021e-12 -8.6523e-12)
(2.33288e-12 3.5442e-12 -4.26654e-12)
(3.66433e-12 4.22543e-12 -3.90779e-12)
(4.64519e-12 3.07366e-12 -7.39805e-12)
(4.48178e-12 2.89706e-12 -8.84085e-12)
(2.96847e-12 1.95942e-12 -9.15419e-12)
(1.30295e-12 1.55339e-12 -6.13547e-12)
(2.04634e-12 1.69478e-12 1.26589e-13)
(4.88024e-12 2.66084e-12 1.32749e-12)
(4.52622e-12 2.16956e-12 3.00502e-12)
(2.56284e-12 3.74937e-12 4.85595e-12)
(7.04388e-13 4.27051e-12 6.66964e-12)
(-4.05654e-14 5.0645e-12 1.73257e-12)
(1.48243e-12 6.84452e-12 -5.70256e-12)
(6.88287e-13 4.82134e-12 -1.26402e-11)
(9.5583e-14 2.99988e-12 -1.4843e-11)
(1.87217e-13 2.92616e-12 -1.39692e-11)
(1.06817e-12 3.5033e-12 -1.43018e-11)
(2.12386e-12 3.87718e-12 -1.58398e-11)
(1.99106e-12 2.5334e-12 -1.69595e-11)
(7.33241e-13 1.74963e-12 -9.82275e-12)
(-2.27252e-12 1.21581e-12 9.49812e-13)
(-1.08402e-12 3.75303e-12 1.00523e-11)
(-2.82296e-12 1.03986e-12 1.54594e-11)
(-3.76553e-12 2.94586e-12 1.51754e-11)
(-3.05437e-12 2.40867e-12 1.21869e-11)
(-5.16988e-12 2.37287e-12 5.81047e-12)
(-3.61498e-12 2.05229e-12 -1.29961e-12)
(-1.69506e-12 7.37055e-12 -5.62829e-12)
(2.61883e-13 7.19441e-12 -6.69435e-12)
(3.93178e-13 8.82198e-12 -8.08729e-12)
(3.73877e-13 1.05473e-11 -5.4877e-12)
(1.61688e-12 8.48732e-12 -1.68459e-12)
(1.77124e-13 8.65945e-12 2.16611e-12)
(-1.56888e-12 9.46609e-12 4.24825e-12)
(-2.51761e-12 9.46852e-12 4.42539e-12)
(-3.00085e-12 7.43325e-12 1.94338e-12)
(-2.0344e-12 5.74795e-12 -2.2932e-12)
(-2.52482e-12 4.38019e-12 -4.66534e-12)
(-3.36165e-12 3.7786e-12 -8.55648e-12)
(-1.16941e-12 5.40676e-12 -1.09213e-11)
(-1.12486e-12 6.86984e-12 -1.21589e-11)
(-5.25302e-13 6.99515e-12 -1.14812e-11)
(1.19719e-13 5.34231e-12 -9.81905e-12)
(-2.22252e-13 6.7346e-12 -9.8985e-12)
(-1.00701e-13 6.37059e-12 -1.1559e-11)
(1.02874e-12 6.69157e-12 -1.01777e-11)
(5.1116e-13 7.59226e-12 -8.57394e-12)
(-9.50026e-13 6.94772e-12 -1.03783e-11)
(-4.1913e-13 7.65345e-12 -9.49987e-12)
(-4.47644e-13 9.66447e-12 -6.32069e-12)
(-2.11223e-12 9.71611e-12 -2.62614e-12)
(-1.15505e-12 9.7882e-12 -1.51263e-12)
(5.14988e-14 1.01702e-11 -1.36805e-12)
(3.70323e-13 8.67621e-12 -8.83382e-13)
(9.25978e-13 1.00557e-11 9.69299e-13)
(-5.74903e-12 -5.28263e-12 -6.11675e-12)
(-8.48557e-12 -5.94085e-12 -3.80782e-12)
(-9.30539e-12 -3.33272e-12 3.59776e-13)
(-1.51197e-11 -4.76195e-13 7.3119e-12)
(-2.02224e-11 1.92653e-12 1.18646e-11)
(-2.24934e-11 3.91812e-12 1.54242e-11)
(-2.33217e-11 6.17528e-12 1.48145e-11)
(-2.44103e-11 3.76013e-12 1.18804e-11)
(-2.57031e-11 5.49075e-12 7.7601e-12)
(-3.04131e-11 6.82263e-12 4.85768e-12)
(-3.17195e-11 1.07542e-11 3.56493e-12)
(-2.98394e-11 1.21688e-11 2.23043e-12)
(-2.65408e-11 1.252e-11 1.99327e-12)
(-2.41257e-11 1.23188e-11 6.28027e-12)
(-2.08343e-11 1.22046e-11 5.31519e-12)
(-1.7773e-11 8.57925e-12 4.19114e-12)
(-1.57834e-11 8.03231e-12 7.26016e-12)
(-1.27339e-11 7.95147e-12 7.08947e-12)
(-1.20579e-11 5.52565e-12 3.42832e-12)
(-9.39437e-12 3.81937e-12 9.20244e-13)
(-7.76266e-12 4.88354e-12 3.53782e-13)
(-6.53912e-12 3.75659e-12 3.54698e-13)
(-7.95713e-12 1.63422e-12 -2.0967e-12)
(-8.45017e-12 -6.93719e-13 -4.62774e-12)
(-5.95432e-12 -9.2873e-13 -7.25401e-12)
(-6.24638e-12 -4.54789e-13 -9.42896e-12)
(-4.57911e-12 1.15549e-12 -1.0823e-11)
(-4.07688e-12 2.83723e-12 -1.0102e-11)
(-5.02379e-12 5.511e-12 -9.97375e-12)
(-3.77222e-12 6.62384e-12 -1.09659e-11)
(-2.52928e-12 4.99304e-12 -1.12771e-11)
(-3.53564e-12 3.49644e-12 -1.10058e-11)
(-1.81818e-12 4.95517e-12 -9.68451e-12)
(-6.21168e-13 3.48271e-12 -6.18729e-12)
(-2.4913e-12 3.08645e-12 -2.96223e-12)
(-5.14731e-13 4.59519e-12 -2.07549e-12)
(2.24659e-12 2.10853e-12 -1.28149e-12)
(5.82691e-13 9.99643e-13 -1.97994e-12)
(-6.09453e-13 2.55654e-12 -2.4871e-12)
(2.32878e-13 4.40488e-12 -1.30253e-12)
(3.34445e-13 2.66234e-12 1.21348e-12)
(2.43567e-12 4.22928e-13 7.23698e-12)
(3.15861e-12 2.28885e-12 1.03231e-11)
(3.0907e-12 1.84015e-12 1.01283e-11)
(2.02166e-12 3.72732e-12 9.71735e-12)
(3.69557e-12 4.87177e-12 7.15094e-12)
(4.69487e-12 1.35638e-12 6.08752e-13)
(4.54165e-12 1.65183e-12 -7.11167e-12)
(4.0509e-12 1.39981e-12 -1.15244e-11)
(2.18594e-12 4.0267e-13 -8.73526e-12)
(1.87586e-12 1.62409e-12 -3.21194e-12)
(3.43928e-12 2.44117e-12 -4.94818e-13)
(4.85582e-12 3.18339e-12 -1.62776e-12)
(4.49937e-12 1.9552e-12 -6.56705e-12)
(3.71657e-12 2.67714e-12 -8.58284e-12)
(1.64739e-12 1.24477e-12 -6.14227e-12)
(1.68197e-12 2.015e-12 -1.56777e-12)
(3.81729e-12 1.85203e-12 3.90485e-13)
(3.40476e-12 3.53669e-12 6.51693e-13)
(3.90497e-12 4.54168e-12 1.04589e-12)
(1.53868e-12 4.24603e-12 8.12843e-13)
(-5.90934e-13 4.23015e-12 -1.4154e-12)
(1.25482e-12 3.70021e-12 -4.95211e-12)
(8.96282e-13 2.5099e-12 -8.93768e-12)
(8.32359e-13 1.14031e-12 -1.02083e-11)
(5.76087e-13 3.47633e-13 -1.04193e-11)
(1.0582e-12 1.51406e-12 -1.10326e-11)
(2.66343e-12 1.46958e-12 -1.29795e-11)
(3.73563e-12 1.20511e-12 -1.48707e-11)
(1.87648e-12 1.30514e-12 -7.88897e-12)
(-3.36817e-12 4.04326e-13 1.08821e-12)
(-1.10738e-12 3.41472e-12 9.5451e-12)
(-1.37158e-12 4.39365e-12 1.39777e-11)
(-3.36383e-12 2.72056e-12 1.40261e-11)
(-1.81003e-12 3.9338e-12 1.2187e-11)
(-3.62867e-12 3.3265e-12 4.71922e-12)
(-6.86599e-12 4.90427e-12 -1.11275e-12)
(-3.30108e-12 7.31984e-12 -4.24424e-12)
(-2.78492e-13 4.73763e-12 -5.7861e-12)
(-7.00455e-13 5.48692e-12 -6.46307e-12)
(6.36023e-13 7.06354e-12 -5.22376e-12)
(2.50181e-12 6.75467e-12 -6.56982e-13)
(4.32697e-13 6.54252e-12 3.56291e-12)
(-2.20338e-12 7.17093e-12 6.00846e-12)
(-3.53225e-12 7.944e-12 6.12002e-12)
(-2.07173e-12 6.79915e-12 5.24461e-12)
(-1.46192e-12 4.30115e-12 2.69028e-12)
(-5.37166e-13 3.66508e-12 -8.8042e-13)
(-2.44735e-12 3.92273e-12 -3.8399e-12)
(-2.82055e-12 4.84632e-12 -9.30762e-12)
(-1.75198e-12 8.07788e-12 -1.20407e-11)
(2.83934e-13 7.37224e-12 -1.12682e-11)
(-7.58314e-14 8.54448e-12 -1.03824e-11)
(-5.17809e-13 8.14732e-12 -9.98816e-12)
(1.64146e-14 5.72113e-12 -1.0574e-11)
(5.54725e-14 6.61836e-12 -1.05444e-11)
(3.92329e-15 7.39791e-12 -9.73345e-12)
(-1.51402e-12 7.36287e-12 -9.5743e-12)
(-2.51843e-12 9.43325e-12 -1.01627e-11)
(-1.58252e-12 1.07173e-11 -4.67438e-12)
(-6.05761e-13 1.15906e-11 5.35684e-13)
(-1.33171e-12 1.00824e-11 -4.9692e-13)
(3.37644e-13 9.49488e-12 -1.27025e-12)
(7.20282e-13 8.38381e-12 -1.87392e-12)
(-9.13898e-14 8.9463e-12 -1.19003e-12)
(-2.53734e-12 -4.4921e-12 -4.48424e-12)
(-1.01554e-11 -4.45154e-12 -2.16184e-12)
(-1.29283e-11 1.65744e-12 3.47638e-12)
(-1.67849e-11 4.29105e-12 9.64065e-12)
(-2.04306e-11 7.28593e-12 1.12627e-11)
(-2.43494e-11 7.83549e-12 1.2159e-11)
(-2.27648e-11 7.78315e-12 1.07773e-11)
(-2.24919e-11 7.01326e-12 8.80426e-12)
(-2.75817e-11 7.38785e-12 6.56708e-12)
(-3.28537e-11 9.35389e-12 4.55544e-12)
(-3.31411e-11 1.02816e-11 1.98187e-12)
(-2.99746e-11 1.25358e-11 4.1972e-13)
(-2.78383e-11 1.15005e-11 -1.22007e-12)
(-2.51261e-11 1.18661e-11 3.34069e-12)
(-1.85558e-11 1.26342e-11 3.75948e-12)
(-1.52219e-11 1.2441e-11 3.64224e-12)
(-1.47885e-11 1.15375e-11 4.40072e-12)
(-1.12746e-11 1.2358e-11 4.42386e-12)
(-8.96264e-12 9.66624e-12 3.06997e-12)
(-8.38692e-12 7.08962e-12 1.54751e-12)
(-6.94232e-12 6.90546e-12 1.98514e-12)
(-6.04106e-12 5.82409e-12 3.36863e-12)
(-6.16454e-12 6.21488e-12 -1.08816e-12)
(-7.19056e-12 3.76181e-12 -5.43812e-12)
(-6.39344e-12 3.88604e-12 -7.641e-12)
(-7.57599e-12 3.84068e-12 -8.55727e-12)
(-6.52967e-12 4.99191e-12 -9.39482e-12)
(-5.59019e-12 6.43678e-12 -1.02616e-11)
(-7.18042e-12 8.4686e-12 -1.02212e-11)
(-3.307e-12 7.05167e-12 -1.14407e-11)
(-1.59983e-13 7.21692e-12 -1.07213e-11)
(-3.71626e-12 5.96557e-12 -9.80551e-12)
(-1.57036e-12 6.26924e-12 -7.43076e-12)
(1.16032e-12 4.06044e-12 -4.06528e-12)
(-3.74912e-12 3.00847e-12 -6.03529e-13)
(-6.78029e-13 4.62251e-12 -2.39851e-12)
(3.79197e-12 4.68449e-12 -2.2532e-12)
(-1.44906e-14 4.43548e-12 -2.61182e-12)
(-3.22564e-12 4.25713e-12 -2.35077e-12)
(-1.32279e-12 6.5546e-12 -2.92086e-12)
(3.70481e-12 5.3405e-12 1.9103e-12)
(1.99486e-12 4.10943e-12 7.50749e-12)
(2.11409e-12 6.63914e-12 1.14525e-11)
(1.74695e-12 5.93713e-12 1.19096e-11)
(9.71802e-13 6.83769e-12 1.06446e-11)
(5.63551e-12 7.0702e-12 9.19359e-12)
(6.22352e-12 4.49321e-12 3.09956e-12)
(3.49716e-12 3.42643e-12 -4.64536e-12)
(5.55494e-12 4.97831e-12 -6.99279e-12)
(3.57229e-12 2.35385e-12 -4.89291e-12)
(1.38524e-12 5.29789e-12 -7.03468e-13)
(1.44788e-12 5.22818e-12 3.54951e-12)
(4.00216e-12 6.11869e-12 3.06917e-12)
(4.70128e-12 5.64156e-12 -2.25831e-12)
(4.22988e-12 5.35676e-12 -6.44675e-12)
(3.0793e-12 3.69015e-12 -4.13861e-12)
(2.02906e-12 4.75202e-12 -2.05124e-12)
(2.96086e-12 5.78115e-12 -1.46234e-12)
(1.34648e-12 6.96643e-12 -2.82852e-12)
(2.02176e-12 9.45539e-12 -2.63984e-12)
(1.27031e-12 1.03226e-11 -3.07244e-12)
(9.33062e-13 9.44834e-12 -4.22538e-12)
(2.0913e-12 6.72154e-12 -4.75665e-12)
(1.53943e-12 5.89753e-12 -4.19078e-12)
(2.13019e-12 5.55221e-12 -3.27718e-12)
(6.68349e-13 4.38573e-12 -4.62613e-12)
(6.22046e-13 5.58633e-12 -7.31549e-12)
(1.65656e-12 3.85892e-12 -8.01453e-12)
(1.50687e-12 4.88327e-12 -8.14392e-12)
(1.33147e-12 5.6988e-12 -3.94682e-12)
(-2.40055e-12 5.36102e-12 3.38524e-12)
(-3.05117e-12 7.36243e-12 9.93472e-12)
(-2.13378e-12 9.56985e-12 1.02685e-11)
(-3.68277e-12 7.88708e-12 1.01446e-11)
(-3.57603e-12 8.8724e-12 8.57924e-12)
(-4.56006e-12 8.38756e-12 2.80753e-12)
(-6.83024e-12 8.70383e-12 -8.36089e-13)
(-1.83835e-12 6.81364e-12 -3.36942e-12)
(3.28784e-13 6.70901e-12 -3.57912e-12)
(-2.18194e-12 7.21539e-12 -3.63104e-12)
(-1.57809e-13 8.63187e-12 -2.9737e-12)
(2.17026e-12 1.05794e-11 3.25145e-13)
(-6.99205e-14 9.5312e-12 5.16999e-12)
(-2.94997e-12 9.33385e-12 8.56907e-12)
(-2.38605e-12 8.36921e-12 8.47547e-12)
(-3.14894e-13 8.91225e-12 8.54522e-12)
(-1.26497e-13 6.71028e-12 8.56581e-12)
(-2.2028e-12 5.90218e-12 3.01979e-12)
(-2.53029e-12 8.01439e-12 -2.58171e-12)
(-4.27938e-12 7.35476e-12 -8.95955e-12)
(-2.35786e-12 7.63841e-12 -1.41011e-11)
(-6.08587e-13 9.54983e-12 -1.09302e-11)
(-1.11355e-12 1.02487e-11 -9.69046e-12)
(1.55292e-12 7.58027e-12 -1.00301e-11)
(1.05767e-12 6.68222e-12 -1.04456e-11)
(-6.18299e-13 6.88254e-12 -1.16637e-11)
(-2.26377e-13 6.93371e-12 -8.71966e-12)
(-2.95117e-12 9.58951e-12 -8.81705e-12)
(-3.39526e-12 1.15394e-11 -9.22968e-12)
(-2.59969e-12 1.2897e-11 -4.04884e-12)
(-7.69633e-13 1.50192e-11 -5.80153e-13)
(-1.17948e-13 1.34983e-11 -3.55819e-12)
(1.228e-12 1.26985e-11 -3.71213e-12)
(1.32655e-12 1.16041e-11 -2.7184e-12)
(-1.183e-12 1.07322e-11 -4.06977e-12)
(-3.78303e-12 3.62828e-12 -3.16139e-12)
(-1.308e-11 1.67547e-12 1.34504e-13)
(-1.76505e-11 2.72279e-12 6.38306e-12)
(-2.07825e-11 6.90395e-12 7.44818e-12)