/*--------------------------------*- C++ -*----------------------------------*\
| =========                 |                                                 |
| \\      /  F ield         | OpenFOAM: The Open Source CFD Toolbox           |
|  \\    /   O peration     | Version:  2406                                  |
|   \\  /    A nd           | Website:  www.openfoam.com                      |
|    \\/     M anipulation  |                                                 |
\*---------------------------------------------------------------------------*/
FoamFile
{
    version     2.0;
    format      ascii;
    arch        "LSB;label=32;scalar=64";
    class       volVectorField;
    location    "0.095";
    object      U;
}
// * * * * * * * * * * * * * * * * * * * * * * * * * * * * * * * * * * * * * //

dimensions      [0 1 -1 0 0 0 0];

internalField   nonuniform List<vector> 
13962
(
(347.059 -4.81492e-12 -3.05557e-11)
(347.059 -3.97482e-12 -3.42525e-11)
(347.059 -4.59961e-12 -3.60464e-11)
(347.059 -4.5075e-12 -3.55443e-11)
(347.059 -5.07586e-12 -3.47872e-11)
(347.059 -4.10743e-12 -3.46535e-11)
(347.059 -1.66112e-12 -3.6547e-11)
(347.059 -1.90492e-12 -3.67097e-11)
(347.059 -2.05107e-12 -3.65829e-11)
(347.059 -5.64222e-12 -3.54553e-11)
(347.059 -8.1133e-12 -3.44508e-11)
(347.059 -1.94308e-12 -3.44362e-11)
(347.059 5.87349e-12 -3.38131e-11)
(347.059 7.50622e-12 -3.4842e-11)
(347.059 5.32812e-12 -3.53131e-11)
(347.059 3.25195e-12 -3.47642e-11)
(347.059 1.08228e-12 -3.40766e-11)
(347.059 -2.84701e-12 -3.56355e-11)
(347.059 -7.27791e-12 -3.43185e-11)
(347.059 -1.17935e-11 -3.20391e-11)
(347.059 -1.86701e-11 -3.06073e-11)
(347.059 -2.20515e-11 -3.03524e-11)
(347.059 -2.12865e-11 -2.99739e-11)
(347.059 -1.41433e-11 -2.91194e-11)
(347.059 -2.24068e-12 -2.8712e-11)
(347.059 6.29199e-12 -2.82753e-11)
(347.059 9.3208e-12 -2.94423e-11)
(347.059 4.18419e-12 -2.92662e-11)
(347.059 2.40656e-12 -2.85309e-11)
(347.059 4.69715e-12 -2.69882e-11)
(347.059 7.48378e-12 -2.84073e-11)
(347.059 4.75844e-12 -2.69016e-11)
(347.059 1.65392e-13 -2.71209e-11)
(347.059 -4.51072e-12 -2.80053e-11)
(347.059 -1.1707e-11 -2.67532e-11)
(347.059 -2.28767e-11 -2.72395e-11)
(347.059 -2.06594e-11 -2.49823e-11)
(347.059 -1.43282e-11 -2.6309e-11)
(347.059 -1.02384e-11 -2.70583e-11)
(347.059 -6.848e-12 -2.52697e-11)
(347.059 -9.56018e-12 -2.52817e-11)
(347.059 -2.06587e-11 -2.54973e-11)
(347.059 -2.52986e-11 -2.58924e-11)
(347.059 -2.74124e-11 -2.61611e-11)
(347.059 -2.98468e-11 -2.56366e-11)
(347.059 -3.04947e-11 -2.51101e-11)
(347.059 -5.52073e-11 -2.4198e-11)
(347.059 4.1938e-10 -3.82684e-11)
(347.058 -6.95284e-09 1.55344e-10)
(347.017 3.35044e-08 -3.12111e-11)
(345.973 9.32934e-07 -4.52617e-08)
(333.679 -1.12361e-05 3.92701e-07)
(319.277 -2.59977e-06 1.41494e-07)
(318.26 7.43334e-06 -1.79201e-07)
(318.269 1.64098e-05 -5.00106e-07)
(318.282 2.35585e-05 -7.77493e-07)
(318.292 1.84501e-05 -6.6811e-07)
(318.301 -6.46559e-06 2.06835e-07)
(318.313 -1.30752e-05 4.54583e-07)
(318.322 -1.56719e-05 5.5765e-07)
(318.329 -1.50767e-05 5.35636e-07)
(318.335 -1.45269e-05 5.16534e-07)
(318.339 -1.2721e-05 4.45016e-07)
(318.343 -6.23346e-06 2.11585e-07)
(318.347 4.81908e-06 -1.75108e-07)
(318.344 1.25625e-05 -4.56766e-07)
(318.342 1.35219e-05 -4.96155e-07)
(318.339 1.18821e-05 -4.39601e-07)
(318.335 1.17173e-05 -4.30535e-07)
(318.331 7.98042e-06 -2.91798e-07)
(318.326 1.24265e-07 -1.32709e-09)
(318.328 -5.19962e-06 1.9516e-07)
(318.332 -6.30121e-06 2.37959e-07)
(318.335 -7.47463e-06 2.88284e-07)
(318.336 -7.93287e-06 3.1345e-07)
(318.334 -7.01945e-06 2.87897e-07)
(318.33 -6.08621e-06 2.58026e-07)
(318.325 -7.03046e-07 7.42209e-08)
(318.313 7.67912e-07 2.74063e-08)
(318.306 1.35109e-06 6.4549e-09)
(318.302 1.50211e-06 -2.71e-09)
(318.3 1.94979e-06 -2.27585e-08)
(318.302 -7.12239e-08 5.29588e-08)
(318.303 -2.25954e-06 1.3774e-07)
(318.31 -3.50718e-06 1.83402e-07)
(318.314 -3.10846e-06 1.63839e-07)
(318.316 -1.46969e-06 7.85775e-08)
(318.317 -3.15657e-06 1.46877e-07)
(318.317 -1.53779e-07 1.12645e-08)
(318.317 4.16545e-06 -1.73758e-07)
(318.319 3.18503e-06 -1.32243e-07)
(318.318 1.74782e-06 -7.43288e-08)
(318.318 1.56132e-06 -6.32541e-08)
(318.318 1.80093e-06 -7.0943e-08)
(318.318 6.55745e-07 -2.0175e-08)
(318.318 -6.93311e-07 6.1507e-08)
(318.318 -1.18058e-05 5.03762e-07)
(318.318 -6.74887e-06 3.03748e-07)
(318.323 -5.1616e-06 2.39984e-07)
(318.325 -3.77786e-06 1.86315e-07)
(318.328 -2.86029e-06 1.57296e-07)
(318.33 -6.90303e-07 6.44771e-08)
(318.332 2.68127e-06 -7.81492e-08)
(318.332 6.00061e-06 -2.08231e-07)
(318.326 7.86683e-06 -2.80658e-07)
(318.322 6.36702e-06 -2.05139e-07)
(318.318 2.68499e-06 -4.01254e-08)
(318.316 -2.40729e-07 8.11804e-08)
(318.315 -1.22131e-06 1.25231e-07)
(318.315 -4.01447e-06 2.52255e-07)
(318.321 -4.83587e-06 2.85453e-07)
(318.326 -2.90252e-06 1.9319e-07)
(318.33 -8.37791e-07 9.18094e-08)
(318.333 1.83199e-06 -3.66762e-08)
(318.334 6.07196e-06 -2.3156e-07)
(318.334 7.48515e-06 -2.9599e-07)
(318.332 6.08725e-06 -2.21111e-07)
(318.327 5.11699e-06 -1.69148e-07)
(318.324 2.86945e-06 -4.68619e-08)
(318.322 1.36263e-06 2.73578e-08)
(318.32 -1.16936e-06 1.31138e-07)
(318.319 -4.61892e-06 2.85787e-07)
(318.317 -5.17587e-06 3.20008e-07)
(318.318 -3.74989e-06 2.67437e-07)
(318.318 -2.61739e-06 2.27963e-07)
(318.318 -1.1411e-06 2.07199e-07)
(318.318 9.20916e-08 1.75004e-07)
(318.319 1.54192e-06 9.70577e-08)
(318.32 2.50078e-06 2.85801e-08)
(318.319 2.25183e-06 2.22762e-08)
(318.317 1.39057e-06 4.83322e-08)
(318.316 -2.23828e-08 9.11414e-08)
(318.314 -1.18665e-06 1.3272e-07)
(318.311 -1.67883e-06 1.60002e-07)
(318.309 -1.62405e-06 1.52873e-07)
(318.311 -1.0499e-06 1.19755e-07)
(318.314 -2.87354e-07 8.824e-08)
(318.318 5.04826e-07 4.19397e-08)
(318.322 6.88531e-07 3.2513e-08)
(318.327 2.68095e-10 2.85402e-08)
(318.331 -1.19561e-06 4.56927e-08)
(318.333 -2.60378e-06 1.31376e-07)
(318.332 -3.21121e-06 1.86498e-07)
(318.331 -3.90209e-06 2.65991e-07)
(318.329 -4.10558e-06 2.86291e-07)
(318.327 -3.47537e-06 2.32659e-07)
(318.325 -1.94179e-06 1.34474e-07)
(318.324 8.68813e-08 3.23938e-08)
(318.325 9.53043e-07 -1.35573e-08)
(318.325 1.43709e-06 -4.37463e-08)
(318.325 1.83603e-06 -6.86185e-08)
(318.325 1.84906e-06 -5.48099e-08)
(318.325 1.24633e-06 3.8945e-09)
(318.324 6.04905e-07 2.95577e-08)
(318.324 2.68979e-07 1.81856e-08)
(318.323 -1.4739e-07 3.93528e-09)
(318.322 -4.12979e-07 1.09644e-08)
(318.321 1.9519e-07 7.10462e-09)
(318.318 8.13898e-07 -1.14358e-09)
(318.315 1.51929e-06 -2.97419e-08)
(318.314 2.12688e-06 -5.55595e-08)
(318.313 2.39845e-06 -6.885e-08)
(318.312 3.08613e-06 -1.13383e-07)
(318.313 2.11001e-06 -8.97725e-08)
(318.316 1.58566e-06 -7.95447e-08)
(318.32 9.81565e-07 -5.58221e-08)
(318.325 5.97063e-07 -1.77151e-08)
(318.326 2.06625e-07 -2.2506e-08)
(318.324 -4.10482e-06 1.40122e-07)
(318.316 -3.64993e-06 1.5101e-07)
(318.309 -2.08243e-06 1.12797e-07)
(318.311 -6.08072e-06 3.06029e-07)
(318.327 2.37313e-05 -8.73371e-07)
(318.383 -1.74977e-05 6.36411e-07)
(318.502 9.03507e-06 -3.93278e-07)
(318.692 4.59223e-06 -3.27629e-07)
(318.945 -8.57062e-05 2.99531e-06)
(319.242 9.18019e-05 -2.73369e-06)
(319.565 -0.000165257 4.62207e-06)
(319.9 0.000272893 -6.75293e-06)
(320.239 -0.000317057 5.469e-06)
(320.573 0.000203914 1.11311e-06)
(320.9 -6.83977e-05 -3.80578e-06)
(321.207 -0.000596867 3.02054e-05)
(321.499 0.00111341 -4.37259e-05)
(321.759 -0.00152217 6.25672e-05)
(322.015 0.00769018 -0.000244505)
(322.149 0.00672802 -0.000263577)
(322.184 0.00585089 -0.000244273)
(322.184 0.00528797 -0.000226159)
(322.178 0.00503134 -0.000219184)
(322.164 0.00435042 -0.000191505)
(322.144 0.00350323 -0.000155337)
(322.12 0.0030209 -0.000133116)
(322.095 0.0026817 -0.000120086)
(322.072 0.00251928 -0.000110578)
(322.053 0.00226976 -0.000104161)
(322.039 0.00181887 -7.91232e-05)
(322.027 0.00170487 -7.68295e-05)
(322.01 0.00167355 -7.76299e-05)
(321.978 0.00156594 -6.92254e-05)
(321.905 0.00137901 -5.76637e-05)
(321.738 0.00116559 -8.08226e-05)
(321.409 0.000879324 -0.000103593)
(320.912 0.000922588 0.00064867)
(320.402 0.00137041 -0.000644296)
(320.042 0.000581777 -0.000964597)
(319.821 0.000320743 0.000384659)
(319.663 0.000688834 0.000864182)
(319.526 0.00104572 0.00035366)
(319.399 0.00103246 -0.000508976)
(319.284 0.000590494 -0.000796278)
(319.184 -6.86896e-05 -0.000287638)
(319.102 -0.000249781 0.000242814)
(319.036 -1.84427e-06 0.000374795)
(318.985 0.000126356 0.000218729)
(318.947 9.66516e-05 3.50796e-05)
(318.919 -4.65653e-06 -6.78375e-05)
(318.899 -9.05206e-05 -2.65117e-05)
(318.884 -3.44307e-05 0.000123117)
(318.872 0.00018783 0.00023399)
(318.861 0.000334116 0.000176824)
(318.851 0.000241445 1.94694e-05)
(318.841 6.15953e-05 -0.000103853)
(318.83 -2.63577e-05 -0.000129413)
(318.818 -6.4343e-05 -0.000118077)
(318.806 -9.63668e-05 -0.000105543)
(318.793 -8.61744e-05 -0.000120264)
(318.78 -7.55947e-05 -0.000131914)
(318.766 -9.90413e-05 -9.84782e-05)
(318.752 -0.000128425 -2.64869e-05)
(318.737 -0.000139633 5.00197e-05)
(318.722 -0.00013539 6.64388e-05)
(318.708 -0.000102636 7.55472e-05)
(318.695 -4.17347e-05 6.77301e-05)
(318.686 1.6431e-05 6.15635e-05)
(318.679 5.0775e-05 5.85387e-05)
(318.676 4.96901e-05 4.14081e-05)
(318.675 4.41332e-05 1.87069e-05)
(318.675 1.99864e-05 -3.12987e-05)
(318.675 1.13436e-05 -4.58027e-05)
(318.675 2.44623e-06 -5.95204e-05)
(318.676 -8.64946e-06 -7.13985e-05)
(318.676 -2.26536e-05 -7.77889e-05)
(318.676 -2.73094e-05 -7.49357e-05)
(318.675 -1.81446e-05 -5.91899e-05)
(318.674 -2.8926e-06 -3.22183e-05)
(318.672 9.5819e-06 -7.63357e-06)
(318.669 1.22582e-05 -1.24511e-06)
(318.666 1.24547e-05 9.58776e-06)
(318.661 4.23292e-06 2.46119e-05)
(318.657 -1.53821e-05 4.06787e-05)
(318.651 -4.36054e-05 5.665e-05)
(318.645 -6.87759e-05 6.79226e-05)
(318.638 -7.95854e-05 7.17241e-05)
(318.631 -7.58739e-05 6.82516e-05)
(318.626 -6.78332e-05 6.35836e-05)
(318.622 -5.20724e-05 5.35886e-05)
(318.619 -1.79132e-06 2.98211e-05)
(318.617 2.11186e-05 8.61743e-06)
(318.616 5.45313e-05 -1.10029e-05)
(318.616 8.68355e-05 -2.96359e-05)
(318.615 8.89661e-05 -4.26828e-05)
(318.615 6.94024e-05 -4.79436e-05)
(318.615 3.88531e-05 -4.48534e-05)
(318.615 -4.14688e-06 -3.35741e-05)
(318.614 -4.89813e-05 -1.57912e-05)
(318.614 -7.78543e-05 2.63805e-06)
(318.613 -8.5384e-05 1.87931e-05)
(318.612 -7.5442e-05 2.8031e-05)
(318.61 -6.49423e-05 3.1423e-05)
(318.608 -4.05462e-05 3.46891e-05)
(318.604 -7.89626e-06 3.18058e-05)
(318.6 1.88565e-05 2.13989e-05)
(318.595 3.0829e-05 7.22617e-06)
(318.59 3.08787e-05 -6.77576e-06)
(318.585 2.01784e-05 -1.7148e-05)
(318.58 2.38143e-06 -2.21311e-05)
(318.574 -2.06656e-05 -2.28181e-05)
(318.57 -3.62651e-05 -1.71063e-05)
(318.565 -4.44476e-05 -6.41073e-06)
(318.561 -5.24612e-05 3.4455e-06)
(318.556 -5.50258e-05 1.39326e-05)
(318.552 -4.29624e-05 2.22904e-05)
(318.549 -2.60043e-05 2.59778e-05)
(318.547 -1.52111e-06 2.81742e-05)
(318.545 1.85512e-05 2.73292e-05)
(318.544 2.81727e-05 2.43556e-05)
(318.542 2.74446e-05 2.18055e-05)
(318.54 1.80122e-05 2.14529e-05)
(318.538 2.17617e-06 2.25343e-05)
(318.536 -1.4489e-05 2.43578e-05)
(318.534 -2.22103e-05 2.50136e-05)
(318.532 -2.99755e-05 2.62181e-05)
(318.53 -3.60499e-05 2.80496e-05)
(318.527 -2.75319e-05 2.49959e-05)
(318.525 -1.31608e-05 2.09395e-05)
(318.522 1.52178e-06 1.90784e-05)
(318.519 1.85927e-05 7.58172e-06)
(318.516 2.40889e-05 -1.62803e-06)
(318.514 2.01087e-05 -2.62595e-06)
(318.512 1.44793e-05 -1.70018e-06)
(318.51 2.275e-05 -2.93268e-05)
(318.508 4.85884e-06 -2.76027e-05)
(318.507 -7.79504e-06 -2.16973e-05)
(318.505 -1.63488e-05 -1.68337e-05)
(318.503 -1.86101e-05 -1.2648e-05)
(318.501 -1.63986e-05 -2.38038e-06)
(318.5 -1.51357e-05 6.1032e-06)
(318.501 -1.57855e-05 1.44555e-05)
(318.502 -1.65854e-05 2.20842e-05)
(318.503 -1.22588e-05 1.52608e-05)
(318.505 -3.50122e-06 -2.20922e-06)
(318.505 3.52407e-06 -1.90923e-05)
(318.505 9.49189e-06 -3.52281e-05)
(318.504 1.66202e-05 -4.89863e-05)
(318.5 2.15067e-05 -5.52012e-05)
(318.497 2.64198e-05 -5.84171e-05)
(318.494 3.22968e-05 -5.746e-05)
(318.491 3.02152e-05 -4.58025e-05)
(318.489 2.01669e-05 -3.08358e-05)
(318.486 1.77505e-06 -1.06997e-05)
(318.482 -1.4763e-05 6.12889e-06)
(318.478 -3.07724e-05 2.12212e-05)
(318.475 -4.08073e-05 3.07547e-05)
(318.472 -4.54168e-05 3.65583e-05)
(318.471 -3.68345e-05 3.11524e-05)
(318.47 -5.95148e-05 5.314e-05)
(318.469 -1.23738e-05 2.32612e-05)
(318.468 6.77201e-06 1.06728e-05)
(318.467 1.86602e-05 2.32381e-06)
(318.465 2.795e-05 -6.52777e-06)
(318.464 3.17301e-05 -1.40665e-05)
(318.463 3.00703e-05 -1.60596e-05)
(318.463 2.10809e-05 -1.67507e-05)
(318.463 1.64314e-06 -1.18845e-05)
(318.463 -2.08621e-05 -1.64295e-06)
(318.463 -3.64536e-05 9.84662e-06)
(318.462 -4.17215e-05 1.93825e-05)
(318.461 -3.91068e-05 2.50007e-05)
(318.46 -3.25496e-05 2.66519e-05)
(318.458 -2.88784e-05 2.65474e-05)
(318.457 -2.21065e-05 2.45846e-05)
(318.456 -1.48634e-05 1.94297e-05)
(318.457 -1.0231e-05 1.26524e-05)
(318.458 -7.62169e-06 4.76538e-06)
(318.459 -4.40672e-06 -3.8355e-06)
(318.461 1.20841e-06 -1.06428e-05)
(318.46 1.09999e-06 -1.66961e-05)
(318.459 7.81294e-06 -1.74466e-05)
(318.459 1.28904e-05 -1.62618e-05)
(318.458 1.55562e-05 -1.42218e-05)
(318.459 1.64164e-05 -9.70032e-06)
(318.46 1.5998e-05 -4.77493e-06)
(318.461 1.30678e-05 1.77399e-06)
(318.463 9.10288e-06 6.18947e-06)
(318.463 4.86143e-06 9.01181e-06)
(318.464 1.47383e-06 1.03706e-05)
(318.464 -1.01464e-06 1.03004e-05)
(318.464 -1.96316e-06 8.01927e-06)
(318.464 -1.33949e-06 3.98265e-06)
(318.465 1.71722e-07 8.27257e-08)
(318.467 1.1073e-06 -3.9634e-06)
(318.467 7.87564e-07 -7.77995e-06)
(318.467 -2.63102e-07 -8.24776e-06)
(318.466 -1.59282e-06 -6.24294e-06)
(318.464 -2.87851e-06 -4.20088e-06)
(318.462 -4.86926e-06 -9.15483e-08)
(318.459 -6.32022e-06 5.97e-06)
(318.457 -6.12637e-06 1.47848e-05)
(318.455 -3.48295e-06 2.59486e-05)
(318.453 9.79542e-07 3.70944e-05)
(318.451 5.60074e-06 4.54678e-05)
(318.448 8.93465e-06 5.02932e-05)
(318.447 1.00877e-05 5.24805e-05)
(318.446 9.72432e-06 5.33304e-05)
(318.445 8.65885e-06 5.38987e-05)
(318.444 5.47911e-06 5.45057e-05)
(318.444 1.13897e-06 5.52227e-05)
(318.443 -2.55139e-06 5.45782e-05)
(318.441 -5.08668e-06 5.44073e-05)
(318.44 -6.1279e-06 5.32107e-05)
(318.438 -4.91041e-06 5.30175e-05)
(318.436 -1.24303e-06 4.83602e-05)
(318.435 2.56843e-06 4.90639e-05)
(318.434 8.2152e-06 4.29754e-05)
(318.433 1.2203e-05 3.67986e-05)
(318.431 1.22213e-05 3.32602e-05)
(318.429 1.27442e-05 2.93049e-05)
(318.427 1.19357e-05 2.47708e-05)
(318.423 6.27535e-06 2.11265e-05)
(318.419 2.09669e-06 2.02333e-05)
(318.416 -3.0307e-06 1.94042e-05)
(318.413 -8.18176e-06 1.83959e-05)
(318.411 -1.47583e-05 1.78414e-05)
(318.409 -2.29188e-05 1.88582e-05)
(318.406 -2.8134e-05 2.1194e-05)
(318.403 -2.67092e-05 2.30051e-05)
(318.4 -2.16421e-05 2.34211e-05)
(318.398 -1.31902e-05 2.22223e-05)
(318.396 -7.11105e-06 2.0206e-05)
(318.395 -3.19166e-06 1.87319e-05)
(318.396 3.00084e-06 1.57178e-05)
(318.397 8.71391e-06 1.15057e-05)
(318.401 1.06697e-05 7.53715e-06)
(318.406 1.08568e-05 4.56518e-06)
(318.408 6.2866e-06 1.8062e-06)
(318.41 6.73191e-07 1.79108e-07)
(318.41 -8.12824e-06 -2.77984e-07)
(318.411 -1.71785e-05 -8.00234e-07)
(318.411 -2.25426e-05 -5.19697e-07)
(318.411 -2.62577e-05 8.66364e-07)
(318.413 -2.74647e-05 2.41774e-06)
(318.413 -2.24397e-05 5.06236e-06)
(318.413 -1.54831e-05 8.17799e-06)
(318.411 -7.28226e-06 1.08694e-05)
(318.409 3.55639e-06 1.26403e-05)
(318.406 1.55716e-05 1.35223e-05)
(318.404 2.49222e-05 1.47493e-05)
(318.403 3.23087e-05 1.4881e-05)
(318.402 3.90954e-05 1.36536e-05)
(318.401 4.07591e-05 1.10201e-05)
(318.4 3.58609e-05 7.79603e-06)
(318.398 2.79185e-05 4.79795e-06)
(318.397 1.9731e-05 2.16882e-06)
(318.396 1.50746e-05 6.10729e-07)
(318.396 8.1895e-06 -2.02671e-06)
(318.396 -1.14341e-06 -5.37532e-06)
(318.396 -8.36641e-06 -8.36546e-06)
(318.396 -1.29317e-05 -1.11415e-05)
(318.395 -1.55589e-05 -1.49838e-05)
(318.395 -1.46076e-05 -1.85917e-05)
(318.394 -1.00773e-05 -2.24076e-05)
(318.393 -3.66154e-06 -2.50035e-05)
(318.392 1.28138e-06 -2.50494e-05)
(318.391 5.15217e-06 -2.48837e-05)
(318.391 6.85871e-06 -2.41326e-05)
(318.391 8.42323e-06 -2.25176e-05)
(318.391 1.19878e-05 -2.0157e-05)
(318.39 1.26793e-05 -1.77512e-05)
(318.389 9.25016e-06 -1.53736e-05)
(318.387 5.53382e-06 -9.5586e-06)
(318.385 2.99932e-06 -4.22061e-06)
(318.384 -6.82852e-07 1.41132e-06)
(318.383 -3.49743e-06 8.23769e-06)
(318.382 -6.01997e-06 1.79156e-05)
(318.381 -7.46871e-06 2.59341e-05)
(318.379 -8.30084e-06 3.01381e-05)
(318.377 -7.89043e-06 3.25744e-05)
(318.375 -6.19535e-06 3.6473e-05)
(318.374 -3.46974e-06 4.00547e-05)
(318.373 3.0283e-07 4.09208e-05)
(318.373 3.70639e-06 3.96296e-05)
(318.373 5.81694e-06 3.63997e-05)
(318.374 6.82587e-06 3.15153e-05)
(318.374 7.47881e-06 2.69687e-05)
(318.374 3.4821e-06 2.15528e-05)
(318.374 -2.39603e-06 1.39483e-05)
(318.375 -1.06167e-05 9.44949e-06)
(318.375 -1.60381e-05 -6.11424e-08)
(318.376 -2.19963e-05 -6.12442e-06)
(318.377 -2.53247e-05 -1.07972e-05)
(318.378 -2.55172e-05 -2.11266e-05)
(318.379 -2.36247e-05 -3.08589e-05)
(347.059 -1.36786e-12 -3.79015e-11)
(347.059 -2.6509e-12 -4.0356e-11)
(347.059 -3.86072e-12 -4.06852e-11)
(347.059 -7.3139e-12 -4.01034e-11)
(347.059 -1.00183e-11 -4.15345e-11)
(347.059 -7.3252e-12 -4.24794e-11)
(347.059 -4.53281e-12 -4.46534e-11)
(347.059 -5.80455e-12 -4.40297e-11)
(347.059 -5.34472e-12 -4.41456e-11)
(347.059 -4.19117e-12 -4.43583e-11)
(347.059 -6.04055e-12 -4.38306e-11)
(347.059 -3.80081e-12 -4.31372e-11)
(347.059 1.79635e-12 -4.31177e-11)
(347.059 1.17236e-11 -4.34845e-11)
(347.059 1.06436e-11 -4.3e-11)
(347.059 7.70765e-12 -4.24899e-11)
(347.059 5.04469e-12 -4.21409e-11)
(347.059 -1.14254e-12 -4.36041e-11)
(347.059 -7.49593e-12 -4.20316e-11)
(347.059 -1.2727e-11 -3.83763e-11)
(347.059 -1.85895e-11 -3.87662e-11)
(347.059 -2.37248e-11 -3.67241e-11)
(347.059 -2.22697e-11 -3.64029e-11)
(347.059 -1.56892e-11 -3.59622e-11)
(347.059 -6.56767e-12 -3.71439e-11)
(347.059 -1.22275e-12 -3.54111e-11)
(347.059 7.69854e-12 -3.62045e-11)
(347.059 5.74385e-12 -3.59455e-11)
(347.059 9.12937e-12 -3.47052e-11)
(347.059 8.50807e-12 -3.52239e-11)
(347.059 9.39073e-12 -3.53582e-11)
(347.059 6.9542e-12 -3.42072e-11)
(347.059 7.27418e-13 -3.35123e-11)
(347.059 -5.42772e-12 -3.43563e-11)
(347.059 -1.09075e-11 -3.41887e-11)
(347.059 -1.89319e-11 -3.31056e-11)
(347.059 -2.2188e-11 -3.17686e-11)
(347.059 -1.71282e-11 -3.17076e-11)
(347.059 -1.19693e-11 -3.13494e-11)
(347.059 -9.39199e-12 -3.21091e-11)
(347.059 -1.07623e-11 -3.11561e-11)
(347.059 -1.42839e-11 -3.0007e-11)
(347.059 -2.13166e-11 -2.95805e-11)
(347.059 -2.51154e-11 -2.8594e-11)
(347.059 -2.63377e-11 -2.77168e-11)
(347.059 -2.64917e-11 -2.73163e-11)
(347.059 -4.92942e-11 -2.63782e-11)
(347.059 3.85115e-10 -3.90222e-11)
(347.058 -6.39431e-09 1.46203e-10)
(347.017 3.16207e-08 -1.39075e-10)
(345.973 8.9922e-07 -4.29148e-08)
(333.679 -1.09462e-05 3.86496e-07)
(319.277 -2.10145e-06 1.2032e-07)
(318.26 6.99952e-06 -1.77206e-07)
(318.269 1.50712e-05 -4.68649e-07)
(318.282 2.15188e-05 -7.20582e-07)
(318.292 1.6887e-05 -6.1764e-07)
(318.301 -5.96537e-06 1.9759e-07)
(318.313 -1.19572e-05 4.25011e-07)
(318.322 -1.42233e-05 5.14349e-07)
(318.329 -1.36524e-05 4.90756e-07)
(318.335 -1.31621e-05 4.71372e-07)
(318.339 -1.15087e-05 4.01899e-07)
(318.343 -5.65123e-06 1.85091e-07)
(318.347 4.29705e-06 -1.63745e-07)
(318.344 1.11253e-05 -4.09313e-07)
(318.342 1.1914e-05 -4.40743e-07)
(318.339 1.02987e-05 -3.83681e-07)
(318.335 1.01333e-05 -3.70809e-07)
(318.331 6.95537e-06 -2.46696e-07)
(318.326 2.17195e-07 3.07663e-09)
(318.328 -4.33452e-06 1.71555e-07)
(318.332 -5.30064e-06 2.09753e-07)
(318.335 -6.40759e-06 2.56245e-07)
(318.336 -6.89752e-06 2.80712e-07)
(318.334 -6.25334e-06 2.61307e-07)
(318.33 -5.378e-06 2.36965e-07)
(318.325 -1.32829e-06 8.63026e-08)
(318.313 -2.10436e-07 4.49191e-08)
(318.306 4.31215e-07 2.77035e-08)
(318.302 7.44158e-07 2.08561e-08)
(318.3 1.4917e-06 -1.17989e-08)
(318.302 -4.5949e-07 6.56753e-08)
(318.303 -1.89254e-06 1.16723e-07)
(318.31 -2.63247e-06 1.42973e-07)
(318.314 -2.18978e-06 1.18297e-07)
(318.316 -6.66324e-07 2.79793e-08)
(318.317 -2.3032e-06 1.0432e-07)
(318.317 3.51731e-07 -1.39169e-08)
(318.317 4.23433e-06 -1.80069e-07)
(318.319 3.0508e-06 -1.30829e-07)
(318.318 1.511e-06 -7.25166e-08)
(318.318 1.30804e-06 -6.15432e-08)
(318.318 1.56235e-06 -7.07276e-08)
(318.318 5.7635e-07 -2.51712e-08)
(318.318 -6.60779e-07 5.11897e-08)
(318.318 -1.10516e-05 4.61577e-07)
(318.318 -6.05713e-06 2.72705e-07)
(318.323 -4.54236e-06 2.13983e-07)
(318.325 -3.22829e-06 1.64112e-07)
(318.328 -2.47518e-06 1.42308e-07)
(318.33 -3.45917e-07 4.60516e-08)
(318.332 2.66687e-06 -8.41095e-08)
(318.332 5.38806e-06 -1.89642e-07)
(318.326 7.15048e-06 -2.57365e-07)
(318.322 5.72511e-06 -1.86962e-07)
(318.318 2.24295e-06 -3.09054e-08)
(318.316 -5.87453e-07 8.94822e-08)
(318.315 -1.46706e-06 1.27985e-07)
(318.315 -3.91811e-06 2.38528e-07)
(318.321 -4.62797e-06 2.67094e-07)
(318.326 -2.70553e-06 1.76359e-07)
(318.33 -5.16229e-07 7.28672e-08)
(318.333 2.0885e-06 -5.21449e-08)
(318.334 6.23209e-06 -2.38103e-07)
(318.334 7.63804e-06 -2.97245e-07)
(318.332 6.19964e-06 -2.20227e-07)
(318.327 5.20215e-06 -1.66999e-07)
(318.324 2.89222e-06 -4.5124e-08)
(318.322 1.29419e-06 4.12941e-08)
(318.32 -1.07051e-06 1.19593e-07)
(318.319 -4.44862e-06 2.71967e-07)
(318.317 -5.10455e-06 3.19737e-07)
(318.318 -3.77225e-06 2.70339e-07)
(318.318 -2.64481e-06 2.23503e-07)
(318.318 -1.32402e-06 1.95974e-07)
(318.318 -2.94024e-07 1.78184e-07)
(318.319 1.05146e-06 1.10245e-07)
(318.32 1.85706e-06 4.72951e-08)
(318.319 1.60069e-06 4.01025e-08)
(318.317 8.019e-07 6.29222e-08)
(318.316 -5.56858e-07 9.44754e-08)
(318.314 -1.68661e-06 1.48739e-07)
(318.311 -2.0191e-06 1.67862e-07)
(318.309 -1.67546e-06 1.49054e-07)
(318.311 -9.33659e-07 1.11757e-07)
(318.314 -7.5686e-08 7.8535e-08)
(318.318 8.38106e-07 2.33507e-08)
(318.322 1.05018e-06 1.23656e-08)
(318.327 2.74073e-07 1.16414e-08)
(318.331 -9.55687e-07 2.86591e-08)
(318.333 -2.40251e-06 1.1118e-07)
(318.332 -3.03339e-06 1.68519e-07)
(318.331 -3.75833e-06 2.52796e-07)
(318.329 -3.98834e-06 2.77482e-07)
(318.327 -3.37876e-06 2.26986e-07)
(318.325 -1.90077e-06 1.30325e-07)
(318.324 3.62751e-08 2.90309e-08)
(318.325 8.65065e-07 -1.53408e-08)
(318.325 1.33801e-06 -4.44873e-08)
(318.325 1.7137e-06 -6.96044e-08)
(318.325 1.75516e-06 -5.99804e-08)
(318.325 1.31553e-06 3.21945e-09)
(318.324 7.99459e-07 3.8875e-08)
(318.324 5.0631e-07 3.16272e-08)
(318.323 2.20228e-07 -4.45355e-10)
(318.322 5.27962e-08 -1.85968e-08)
(318.321 6.41516e-07 -1.18462e-08)
(318.318 1.20296e-06 -2.70499e-08)
(318.315 1.79841e-06 -4.73021e-08)
(318.314 2.34795e-06 -6.79635e-08)
(318.313 2.58067e-06 -7.86268e-08)
(318.312 3.23087e-06 -1.20584e-07)
(318.313 2.27709e-06 -9.64699e-08)
(318.316 1.83391e-06 -9.07405e-08)
(318.32 1.25928e-06 -6.14548e-08)
(318.325 7.57593e-07 -2.0948e-08)
(318.326 6.06774e-07 -2.4624e-08)
(318.324 -3.89543e-06 1.41143e-07)
(318.316 -2.93432e-06 1.34296e-07)
(318.309 -2.41463e-06 1.32221e-07)
(318.311 -6.54876e-06 3.31601e-07)
(318.327 2.53157e-05 -9.41031e-07)
(318.383 -2.11692e-05 7.50978e-07)
(318.502 1.2288e-05 -4.48367e-07)
(318.692 3.14094e-06 -4.63067e-07)
(318.945 -8.1285e-05 3.31114e-06)
(319.242 8.91994e-05 -3.25685e-06)
(319.565 -0.000158732 5.05679e-06)
(319.9 0.000258266 -7.1363e-06)
(320.239 -0.000307173 5.75024e-06)
(320.573 0.000203414 1.5865e-07)
(320.9 -3.95625e-05 -4.26756e-06)
(321.207 -0.000693934 3.55375e-05)
(321.499 0.00128076 -5.24216e-05)
(321.759 -0.00149917 5.97804e-05)
(322.009 0.00552477 -0.000168286)
(322.148 0.00603169 -0.000242871)
(322.184 0.00524818 -0.000223361)
(322.184 0.00454642 -0.00019986)
(322.178 0.00426577 -0.000191571)
(322.164 0.00373956 -0.000168942)
(322.144 0.00303279 -0.000137527)
(322.12 0.00258214 -0.000116393)
(322.095 0.00227236 -0.000104706)
(322.072 0.00211647 -9.53598e-05)
(322.053 0.0018917 -9.00084e-05)
(322.039 0.00150705 -6.75268e-05)
(322.027 0.00141799 -6.5656e-05)
(322.01 0.0014066 -6.7458e-05)
(321.978 0.00130764 -5.94879e-05)
(321.905 0.00114974 -4.87533e-05)
(321.738 0.000956254 -7.36932e-05)
(321.408 0.000729417 -9.61355e-05)
(320.912 0.00074925 0.000648783)
(320.402 0.00122147 -0.000642154)
(320.042 0.000483335 -0.000939678)
(319.821 0.000204268 0.000397197)
(319.663 0.000532207 0.000862213)
(319.526 0.000861909 0.000351404)
(319.399 0.000861646 -0.000498752)
(319.284 0.000463435 -0.000778492)
(319.184 -0.000148022 -0.000272797)
(319.102 -0.000295066 0.000246603)
(319.036 -9.00314e-06 0.000367582)
(318.985 0.000127337 0.000210721)
(318.947 9.48243e-05 3.16327e-05)
(318.919 -6.37182e-06 -6.32295e-05)
(318.899 -7.57583e-05 -2.24754e-05)
(318.884 -3.19505e-06 0.000114548)
(318.872 0.000212316 0.000209556)
(318.861 0.000343654 0.000152793)
(318.851 0.000264852 7.95981e-06)
(318.841 9.47642e-05 -0.000105602)
(318.83 6.23067e-06 -0.000128445)
(318.818 -3.40093e-05 -0.000116058)
(318.806 -7.55721e-05 -0.000101521)
(318.793 -7.15607e-05 -0.000114543)
(318.78 -6.06357e-05 -0.000126919)
(318.766 -8.83891e-05 -9.48383e-05)
(318.752 -0.000126219 -2.41405e-05)
(318.737 -0.00014049 5.02771e-05)
(318.722 -0.000136411 6.62617e-05)
(318.708 -0.000109418 7.55883e-05)
(318.695 -5.43895e-05 6.90598e-05)
(318.686 6.18952e-06 6.13468e-05)
(318.679 4.1635e-05 5.6146e-05)
(318.676 4.36777e-05 3.9049e-05)
(318.675 3.98982e-05 1.71616e-05)
(318.675 1.60337e-05 -3.12467e-05)
(318.675 7.38129e-06 -4.52106e-05)
(318.675 -2.17408e-06 -5.81199e-05)
(318.676 -1.44321e-05 -6.89705e-05)
(318.676 -2.76049e-05 -7.44624e-05)
(318.676 -3.28085e-05 -6.83066e-05)
(318.675 -2.79153e-05 -5.18407e-05)
(318.674 -1.49035e-05 -2.78987e-05)
(318.672 3.35186e-06 -6.46844e-06)
(318.669 8.18898e-06 -4.66281e-07)
(318.666 1.08093e-05 1.01579e-05)
(318.661 4.47877e-06 2.49106e-05)
(318.657 -1.45859e-05 4.06742e-05)
(318.651 -4.23955e-05 5.62915e-05)
(318.645 -6.57055e-05 6.62631e-05)
(318.638 -7.75428e-05 6.96524e-05)
(318.631 -7.66816e-05 6.69231e-05)
(318.626 -6.89742e-05 6.26892e-05)
(318.622 -5.22878e-05 5.29521e-05)
(318.619 -1.26232e-06 2.95667e-05)
(318.617 2.31908e-05 8.45319e-06)
(318.616 5.66291e-05 -1.08191e-05)
(318.616 9.01533e-05 -2.83411e-05)
(318.615 9.41795e-05 -3.99857e-05)
(318.615 7.59865e-05 -4.45856e-05)
(318.615 4.51782e-05 -4.16094e-05)
(318.615 1.45744e-06 -3.01457e-05)
(318.614 -4.46058e-05 -1.29938e-05)
(318.614 -7.57055e-05 3.93232e-06)
(318.613 -8.54766e-05 1.89651e-05)
(318.612 -7.76238e-05 2.71654e-05)
(318.61 -6.79306e-05 2.98503e-05)
(318.608 -4.4385e-05 3.19869e-05)
(318.604 -1.14369e-05 2.86012e-05)
(318.6 1.75451e-05 1.91892e-05)
(318.595 3.18913e-05 6.21806e-06)
(318.59 3.34022e-05 -7.19294e-06)
(318.585 2.29303e-05 -1.71681e-05)
(318.58 4.83139e-06 -2.16749e-05)
(318.574 -1.78241e-05 -2.21732e-05)
(318.57 -3.42474e-05 -1.64472e-05)
(318.565 -4.2625e-05 -6.07549e-06)
(318.561 -5.034e-05 3.60743e-06)
(318.556 -5.28047e-05 1.39466e-05)
(318.552 -4.1785e-05 2.20593e-05)
(318.549 -2.59572e-05 2.55338e-05)
(318.547 -2.23353e-06 2.7556e-05)
(318.545 1.75059e-05 2.67186e-05)
(318.544 2.71578e-05 2.39439e-05)
(318.542 2.62806e-05 2.15565e-05)
(318.54 1.67564e-05 2.09456e-05)
(318.538 2.22445e-06 2.22162e-05)
(318.536 -1.36022e-05 2.44999e-05)
(318.534 -2.13282e-05 2.55873e-05)
(318.532 -2.87616e-05 2.72605e-05)
(318.53 -3.45073e-05 2.91841e-05)
(318.527 -2.56265e-05 2.55926e-05)
(318.525 -9.04381e-06 2.07165e-05)
(318.522 6.1931e-06 1.84303e-05)
(318.519 2.11662e-05 7.30519e-06)
(318.516 2.35902e-05 -1.2529e-06)
(318.514 1.97765e-05 -1.90519e-06)
(318.512 1.5197e-05 -1.20014e-06)
(318.51 2.41506e-05 -2.7625e-05)
(318.508 7.38742e-06 -2.6092e-05)
(318.507 -4.85369e-06 -2.05166e-05)
(318.505 -1.29665e-05 -1.58821e-05)
(318.503 -1.43571e-05 -1.20295e-05)
(318.501 -1.2336e-05 -2.03956e-06)
(318.5 -1.21009e-05 6.22193e-06)
(318.501 -1.31931e-05 1.44162e-05)
(318.502 -1.42905e-05 2.17719e-05)
(318.503 -1.03653e-05 1.46607e-05)
(318.505 -2.19043e-06 -3.02467e-06)
(318.505 4.19588e-06 -1.97832e-05)
(318.505 9.32274e-06 -3.51528e-05)
(318.504 1.65705e-05 -4.77411e-05)
(318.5 2.23732e-05 -5.32405e-05)
(318.497 2.82344e-05 -5.60653e-05)
(318.494 3.43383e-05 -5.5498e-05)
(318.491 3.1886e-05 -4.45668e-05)
(318.489 2.12079e-05 -2.98729e-05)
(318.486 3.01648e-06 -1.01303e-05)
(318.482 -1.32702e-05 6.18123e-06)
(318.478 -2.83705e-05 2.07345e-05)
(318.475 -3.93964e-05 2.99738e-05)
(318.472 -4.40813e-05 3.54328e-05)
(318.471 -3.60886e-05 2.96423e-05)
(318.47 -5.80449e-05 5.16776e-05)
(318.469 -1.24443e-05 2.16455e-05)
(318.468 5.90372e-06 8.81594e-06)
(318.467 1.75987e-05 1.52478e-07)
(318.465 2.74623e-05 -7.94023e-06)
(318.464 3.18095e-05 -1.46193e-05)
(318.463 3.02544e-05 -1.62377e-05)
(318.463 2.17412e-05 -1.60104e-05)
(318.463 2.63144e-06 -1.0479e-05)
(318.463 -2.03157e-05 2.36455e-07)
(318.463 -3.65075e-05 1.20703e-05)
(318.462 -4.22316e-05 2.13224e-05)
(318.461 -3.99656e-05 2.5916e-05)
(318.46 -3.41723e-05 2.66415e-05)
(318.458 -3.09015e-05 2.59371e-05)
(318.457 -2.39031e-05 2.25763e-05)
(318.456 -1.50119e-05 1.67383e-05)
(318.457 -8.08319e-06 1.04202e-05)
(318.458 -5.89602e-06 3.19946e-06)
(318.46 -2.95734e-06 -4.65521e-06)
(318.461 2.82234e-06 -1.07573e-05)
(318.46 2.15356e-06 -1.66185e-05)
(318.459 7.66733e-06 -1.69885e-05)
(318.459 1.2717e-05 -1.56453e-05)
(318.458 1.56936e-05 -1.35285e-05)
(318.459 1.6647e-05 -8.89549e-06)
(318.46 1.61378e-05 -3.98294e-06)
(318.461 1.30744e-05 2.42099e-06)
(318.463 9.08897e-06 6.80652e-06)
(318.463 4.88441e-06 9.65761e-06)
(318.464 1.63124e-06 1.09344e-05)
(318.464 -8.92257e-07 1.07479e-05)
(318.464 -1.8413e-06 8.37159e-06)
(318.464 -9.8423e-07 4.22645e-06)
(318.465 8.09741e-07 1.08379e-07)
(318.467 1.67627e-06 -4.15204e-06)
(318.467 9.15464e-07 -8.25118e-06)
(318.467 -3.37055e-07 -8.89711e-06)
(318.466 -1.56979e-06 -6.96122e-06)
(318.464 -2.5484e-06 -4.93864e-06)
(318.462 -4.43188e-06 -1.03252e-06)
(318.459 -6.72904e-06 4.44082e-06)
(318.457 -6.61553e-06 1.22118e-05)
(318.455 -2.94236e-06 2.30386e-05)
(318.453 1.87396e-06 3.43495e-05)
(318.451 6.01277e-06 4.31811e-05)
(318.448 8.96792e-06 4.86326e-05)
(318.447 1.00099e-05 5.1352e-05)