/*--------------------------------*- C++ -*----------------------------------*\
| =========                 |                                                 |
| \\      /  F ield         | OpenFOAM: The Open Source CFD Toolbox           |
|  \\    /   O peration     | Version:  2406                                  |
|   \\  /    A nd           | Website:  www.openfoam.com                      |
|    \\/     M anipulation  |                                                 |
\*---------------------------------------------------------------------------*/
FoamFile
{
    version     2.0;
    format      ascii;
    arch        "LSB;label=32;scalar=64";
    class       volScalarField;
    location    "0.07";
    object      Ma;
}
// * * * * * * * * * * * * * * * * * * * * * * * * * * * * * * * * * * * * * //

dimensions      [0 0 0 0 0 0 0];

internalField   nonuniform List<scalar> 
83682
(
1.132
1.132
1.132
1.132
1.132
1.132
1.132
1.132
1.132
1.132
1.132
1.132
1.132
1.132
1.132
1.132
1.132
1.132
1.132
1.132
1.132
1.132
1.132
1.132
1.132
1.132
1.132
1.132
1.132
1.132
1.132
1.132
1.132
1.132
1.132
1.13199
1.13159
1.12216
1.05719
1.02011
1.01899
1.01888
1.01881
1.01879
1.01878
1.01879
1.01884
1.01892
1.01897
1.01901
1.01904
1.01904
1.01902
1.019
1.019
1.01899
1.01899
1.01902
1.01906
1.01911
1.01914
1.01917
1.01919
1.01918
1.01915
1.01913
1.01912
1.01911
1.01912
1.01913
1.01914
1.01914
1.01913
1.01911
1.01909
1.01907
1.01905
1.01905
1.01905
1.01905
1.01905
1.01905
1.01904
1.01903
1.01901
1.019
1.019
1.019
1.01902
1.01905
1.01907
1.0191
1.01912
1.01912
1.01912
1.01911
1.0191
1.01909
1.01909
1.01909
1.0191
1.0191
1.01911
1.01912
1.01912
1.01912
1.01911
1.0191
1.01909
1.01907
1.01906
1.01906
1.01906
1.01907
1.01909
1.01911
1.01912
1.01911
1.01911
1.0191
1.01908
1.01905
1.01905
1.01905
1.01905
1.01906
1.01908
1.01909
1.01909
1.01909
1.01908
1.01907
1.01906
1.01906
1.01907
1.01908
1.01909
1.0191
1.01912
1.01912
1.01912
1.01912
1.01911
1.01911
1.0191
1.0191
1.01909
1.01909
1.01909
1.01909
1.01909
1.01909
1.01909
1.01909
1.01908
1.01908
1.01907
1.01907
1.01907
1.01907
1.01908
1.01909
1.0191
1.01911
1.0191
1.01909
1.01904
1.01898
1.01899
1.01911
1.01949
1.02026
1.02143
1.02288
1.02452
1.02621
1.02788
1.0295
1.03104
1.03235
1.03324
1.03371
1.03388
1.03396
1.034
1.03402
1.03397
1.0339
1.03381
1.0337
1.0336
1.03354
1.0335
1.03345
1.03337
1.03316
1.03269
1.03174
1.03023
1.0285
1.02704
1.02603
1.0253
1.0247
1.02417
1.02368
1.02324
1.02284
1.02249
1.02219
1.02194
1.02174
1.02158
1.02146
1.02136
1.02129
1.02124
1.02118
1.02114
1.0211
1.02105
1.02101
1.02096
1.02092
1.02087
1.02082
1.02077
1.02072
1.02067
1.02062
1.02057
1.02054
1.02051
1.0205
1.02049
1.02048
1.02048
1.02047
1.02047
1.02046
1.02046
1.02045
1.02044
1.02042
1.02041
1.0204
1.02038
1.02037
1.02035
1.02033
1.02032
1.0203
1.02028
1.02027
1.02026
1.02025
1.02025
1.02025
1.02024
1.02024
1.02023
1.02023
1.02022
1.02021
1.0202
1.02019
1.02018
1.02018
1.02016
1.02015
1.02014
1.02012
1.02011
1.02009
1.02008
1.02007
1.02005
1.02004
1.02003
1.02001
1.02
1.01998
1.01998
1.01997
1.01996
1.01994
1.01992
1.01991
1.0199
1.01988
1.01987
1.01987
1.01986
1.01985
1.01985
1.01984
1.01983
1.01983
1.01983
1.01982
1.01982
1.01982
1.01981
1.0198
1.0198
1.01979
1.01979
1.01979
1.01979
1.01979
1.01978
1.01977
1.01976
1.01974
1.01973
1.01972
1.01972
1.01971
1.0197
1.0197
1.01969
1.01968
1.01968
1.01968
1.01968
1.01967
1.01967
1.01966
1.01965
1.01964
1.01964
1.01963
1.01962
1.01962
1.01961
1.0196
1.0196
1.01959
1.01959
1.01958
1.01959
1.0196
1.01961
1.01963
1.01964
1.01964
1.01964
1.01964
1.01964
1.01964
1.01965
1.01965
1.01965
1.01964
1.01963
1.01963
1.01962
1.01962
1.01962
1.01963
1.01962
1.01962
1.01961
1.01961
1.01961
1.0196
1.0196
1.0196
1.0196
1.01959
1.01959
1.01959
1.01959
1.01958
1.01957
1.01956
1.01955
1.01954
1.01952
1.01951
1.01951
1.0195
1.01949
1.01948
1.01948
1.01947
1.01946
1.01945
1.01944
1.01944
1.01943
1.01943
1.01942
1.01942
1.01941
1.0194
1.01939
1.01938
1.01937
1.01937
1.01938
1.0194
1.01941
1.01941
1.01941
1.01941
1.01941
1.01941
1.01942
1.01943
1.01943
1.01943
1.01942
1.01941
1.01941
1.0194
1.0194
1.0194
1.0194
1.01939
1.01938
1.01937
1.01937
1.01936
1.01936
1.01936
1.01936
1.01935
1.01935
1.01934
1.01934
1.01934
1.01933
1.01934
1.01934
1.01935
1.01934
1.01933
1.01933
1.01932
1.01932
1.01932
1.01932
1.01931
1.0193
1.01929
1.01928
1.01928
1.01928
1.01927
1.01928
1.01928
1.01928
1.01927
1.01927
1.01928
1.01928
1.01928
1.01928
1.01929
1.0193
1.01929
1.01929
1.01929
1.01929
1.01928
1.01928
1.01927
1.01927
1.01926
1.01924
1.01924
1.01923
1.01922
1.01921
1.01921
1.01921
1.01921
1.01919
1.01918
1.01917
1.01916
1.01915
1.01913
1.01913
1.01913
1.01912
1.01909
1.01908
1.01907
1.01908
1.01909
1.0191
1.01909
1.01907
1.01903
1.01899
1.01893
1.01884
1.0187
1.0185
1.01823
1.01782
1.01721
1.01637
1.01522
1.01361
1.01145
1.00853
1.00471
0.999712
0.993287
0.985165
0.975086
0.962771
0.948053
0.930857
0.911265
0.889552
0.866265
0.84233
0.819108
0.798362
0.781935
0.77168
0.767476
0.766216
0.765803
0.765748
0.765756
0.765807
0.765922
0.766104
0.766334
0.766581
0.766722
0.766723
0.766678
0.766596
0.766519
0.766498
0.7665
0.766526
0.766591
0.766652
0.766671
0.766668
0.766645
0.766583
0.766496
0.766433
0.766424
0.766431
0.766459
0.766513
0.766578
0.766617
0.766622
0.766614
0.766585
0.766531
0.766475
0.766447
0.766443
0.766447
0.766463
0.766491
0.766513
0.766516
0.766511
0.766497
0.76647
0.76644
0.766429
0.766429
0.766434
0.76645
0.766475
0.766493
0.766494
0.766491
0.766481
0.766461
0.766435
0.766415
0.76641
0.766412
0.766418
0.76643
0.766441
0.766446
0.766448
0.766446
0.766437
0.766423
0.766415
0.766416
0.766421
0.766433
0.766453
0.766481
0.766513
0.766548
0.766584
0.766622
0.766661
0.766698
0.766725
0.76674
0.766756
0.766774
0.766785
0.766787
0.766785
0.766775
0.766757
0.766731
0.766699
0.766666
0.766636
0.76661
0.766592
0.76658
0.766574
0.766569
0.766564
0.766556
0.766545
0.766533
0.766524
0.766521
0.766521
0.766521
0.766522
0.766524
0.766524
0.766523
0.766522
0.766517
0.76651
0.766503
0.766498
0.766497
0.766495
0.76649
0.766479
0.766462
0.766442
0.766422
0.766406
0.766416
0.766647
0.767779
0.770332
0.774034
0.778396
0.783105
0.788005
0.793041
0.798163
0.803365
0.808619
0.813925
0.819266
0.824655
0.830067
0.835512
0.840979
0.846481
0.851994
0.857529
0.863082
0.868664
0.874256
0.87986
0.885485
0.891138
0.896801
0.902472
0.90816
0.913878
0.919594
0.925323
0.931055
0.936822
0.942564
0.948334
0.954085
0.95987
0.965594
0.971332
0.976997
0.982738
0.988971
1.00026
1.132
1.132
1.132
1.132
1.132
1.132
1.132
1.132
1.132
1.132
1.132
1.132
1.132
1.132
1.132
1.132
1.132
1.132
1.132
1.132
1.132
1.132
1.132
1.132
1.132
1.132
1.132
1.132
1.132
1.132
1.132
1.132
1.132
1.132
1.132
1.13199
1.13159
1.12216
1.05719
1.02011
1.01899
1.01888
1.01881
1.01879
1.01878
1.01879
1.01884
1.01892
1.01897
1.01901
1.01904
1.01904
1.01902
1.019
1.019
1.01899
1.01899
1.01902
1.01906
1.01911
1.01914
1.01917
1.01919
1.01918
1.01915
1.01913
1.01912
1.01911
1.01912
1.01913
1.01914
1.01914
1.01913
1.01911
1.01909
1.01907
1.01905
1.01905
1.01905
1.01905
1.01905
1.01905
1.01904
1.01903
1.01901
1.019
1.019
1.019
1.01902
1.01905
1.01907
1.0191
1.01912
1.01912
1.01912
1.01911
1.0191
1.01909
1.01909
1.01909
1.0191
1.0191
1.01911
1.01912
1.01912
1.01912
1.01911
1.0191
1.01909
1.01907
1.01906
1.01906
1.01906
1.01907
1.01909
1.01911
1.01912
1.01911
1.01911
1.0191
1.01908
1.01905
1.01905
1.01905
1.01905
1.01906
1.01908
1.01909
1.01909
1.01909
1.01908
1.01907
1.01906
1.01906
1.01907
1.01908
1.01909
1.0191
1.01912
1.01912
1.01912
1.01912
1.01911
1.01911
1.0191
1.0191
1.01909
1.01909
1.01909
1.01909
1.01909
1.01909
1.01909
1.01909
1.01908
1.01908
1.01907
1.01907
1.01907
1.01907
1.01908
1.01909
1.0191
1.01911
1.0191
1.01909
1.01904
1.01898
1.01899
1.01911
1.01949
1.02026
1.02143
1.02288
1.02452
1.02621
1.02789
1.0295
1.03104
1.03236
1.03324
1.0337
1.03387
1.03396
1.03401
1.03403
1.03398
1.03391
1.03381
1.0337
1.0336
1.03354
1.0335
1.03345
1.03337
1.03316
1.03269
1.03174
1.03023
1.0285
1.02704
1.02603
1.0253
1.0247
1.02417
1.02368
1.02324
1.02284
1.02249
1.02219
1.02194
1.02174
1.02158
1.02146
1.02136
1.02129
1.02124
1.02118
1.02114
1.0211
1.02105
1.02101
1.02096
1.02092
1.02087
1.02082
1.02077
1.02072
1.02067
1.02062
1.02057
1.02054
1.02051
1.0205
1.02049
1.02048
1.02048
1.02047
1.02047
1.02046
1.02046
1.02045
1.02044
1.02042
1.02041
1.0204
1.02038
1.02037
1.02035
1.02033
1.02032
1.0203
1.02028
1.02027
1.02026
1.02025
1.02025
1.02025
1.02024
1.02024
1.02023
1.02023
1.02022
1.02021
1.0202
1.02019
1.02018
1.02018
1.02016
1.02015
1.02014
1.02012
1.02011
1.02009
1.02008
1.02007
1.02005
1.02004
1.02003
1.02001
1.02
1.01998
1.01998
1.01997
1.01996
1.01994
1.01992
1.01991
1.0199
1.01988
1.01987
1.01987
1.01986
1.01985
1.01985
1.01984
1.01983
1.01983
1.01983
1.01982
1.01982
1.01982
1.01981
1.0198
1.0198
1.01979
1.01979
1.01979
1.01979
1.01979
1.01978
1.01977
1.01976
1.01974
1.01973
1.01972
1.01972
1.01971
1.0197
1.0197
1.01969
1.01968
1.01968
1.01968
1.01968
1.01967
1.01967
1.01966
1.01965
1.01964
1.01964
1.01963
1.01962
1.01962
1.01961
1.0196
1.0196
1.01959
1.01959
1.01958
1.01959
1.0196
1.01961
1.01963
1.01964
1.01964
1.01964
1.01964
1.01964
1.01964
1.01965
1.01965
1.01965
1.01964
1.01963
1.01963
1.01962
1.01962
1.01962
1.01963
1.01962
1.01962
1.01961
1.01961
1.01961
1.0196
1.0196
1.0196
1.0196
1.01959
1.01959
1.01959
1.01959
1.01958
1.01957
1.01956
1.01955
1.01954
1.01952
1.01952
1.01951
1.0195
1.01949
1.01948
1.01948
1.01947
1.01946
1.01945
1.01944
1.01944
1.01943
1.01943
1.01942
1.01942
1.01941
1.0194
1.01939
1.01938
1.01937
1.01937
1.01938
1.0194
1.01941
1.01941
1.01941
1.01941
1.01941
1.01941
1.01942
1.01943
1.01943
1.01943
1.01942
1.01941
1.01941
1.0194
1.0194
1.0194
1.0194
1.01939
1.01938
1.01937
1.01937
1.01936
1.01936
1.01936
1.01936
1.01935
1.01935
1.01934
1.01934
1.01934
1.01933
1.01934
1.01934
1.01935
1.01934
1.01933
1.01933
1.01932
1.01932
1.01932
1.01932
1.01931
1.0193
1.01929
1.01928
1.01928
1.01928
1.01927
1.01928
1.01928
1.01928
1.01927
1.01927
1.01928
1.01928
1.01928
1.01928
1.01929
1.0193
1.01929
1.01929
1.01929
1.01929
1.01928
1.01928
1.01927
1.01927
1.01926
1.01924
1.01924
1.01923
1.01922
1.01921
1.01921
1.01921
1.01921
1.01919
1.01918
1.01917
1.01916
1.01915
1.01913
1.01913
1.01913
1.01912
1.01909
1.01908
1.01907
1.01908
1.01909
1.0191
1.01909
1.01907
1.01903
1.01899
1.01893
1.01884
1.0187
1.01851
1.01824
1.01783
1.01723
1.0164
1.01526
1.01367
1.01154
1.00865
1.00487
0.999922
0.993556
0.985504
0.975503
0.963272
0.948638
0.931515
0.911981
0.890297
0.866994
0.842988
0.819636
0.798723
0.782155
0.771795
0.767541
0.766258
0.765817
0.765752
0.765758
0.765807
0.765921
0.766102
0.766332
0.76658
0.766722
0.766724
0.766678
0.766596
0.766518
0.766497
0.766499
0.766525
0.766589
0.766651
0.766671
0.766668
0.766645
0.766584
0.766496
0.766433
0.766423
0.76643
0.766458
0.766513
0.766578
0.766617
0.766622
0.766613
0.766584
0.766531
0.766475
0.766447
0.766442
0.766446
0.766462
0.766491
0.766512
0.766516
0.766511
0.766497
0.76647
0.76644
0.766429
0.766428
0.766434
0.76645
0.766474
0.766492
0.766494
0.766491
0.766481
0.766461
0.766435
0.766415
0.76641
0.766412
0.766418
0.766431
0.766442
0.766447
0.766449
0.766448
0.766439
0.766425
0.766417
0.766417
0.766422
0.766434
0.766454
0.766481
0.766513
0.766547
0.766583
0.766621
0.76666
0.766697
0.766724
0.766739
0.766755
0.766773
0.766784
0.766787
0.766785
0.766775
0.766757
0.766731
0.7667
0.766667
0.766636
0.76661
0.766592
0.76658
0.766574
0.76657
0.766564
0.766556
0.766545
0.766533
0.766525
0.766521
0.766521
0.766521
0.766522
0.766524
0.766524
0.766523
0.766522
0.766517
0.76651
0.766503
0.766498
0.766497
0.766495
0.76649
0.766479
0.766462
0.766442
0.766422
0.766406
0.766416
0.766647
0.767779
0.770332
0.774034
0.778395
0.783105
0.788005
0.793041
0.798163
0.803365
0.808619
0.813925
0.819266
0.824655
0.830067
0.835512
0.840979
0.846481
0.851995
0.857529
0.863082
0.868664
0.874256
0.87986
0.885484
0.891138
0.896802
0.902471
0.908159
0.913878
0.919595
0.925322
0.931054
0.936822
0.942563
0.948333
0.954084
0.959871
0.965594
0.971331
0.976996
0.982743
0.988982
1.00026
1.132
1.132
1.132
1.132
1.132
1.132
1.132
1.132
1.132
1.132
1.132
1.132
1.132
1.132
1.132
1.132
1.132
1.132
1.132
1.132
1.132
1.132
1.132
1.132
1.132
1.132
1.132
1.132
1.132
1.132
1.132
1.132
1.132
1.132
1.132
1.13199
1.13159
1.12216
1.05719
1.02011
1.01899
1.01888
1.01881
1.01879
1.01878
1.01879
1.01884
1.01892
1.01897
1.01901
1.01904
1.01904
1.01902
1.019
1.019
1.01899
1.01899
1.01902
1.01906
1.01911
1.01914
1.01917
1.01919
1.01918
1.01915
1.01913
1.01912
1.01911
1.01912
1.01913
1.01914
1.01914
1.01913
1.01911
1.01909
1.01907
1.01905
1.01905
1.01905
1.01905
1.01905
1.01905
1.01904
1.01903
1.01901
1.019
1.019
1.019
1.01902
1.01905
1.01907
1.0191
1.01912
1.01912
1.01912
1.01911
1.0191
1.01909
1.01909
1.01909
1.0191
1.0191
1.01911
1.01912
1.01912
1.01912
1.01911
1.0191
1.01909
1.01907
1.01906
1.01906
1.01906
1.01907
1.01909
1.01911
1.01912
1.01911
1.01911
1.0191
1.01908
1.01905
1.01905
1.01905
1.01905
1.01906
1.01908
1.01909
1.01909
1.01909
1.01908
1.01907
1.01906
1.01906
1.01907
1.01908
1.01909
1.0191
1.01912
1.01912
1.01912
1.01912
1.01911
1.01911
1.0191
1.0191
1.01909
1.01909
1.01909
1.01909
1.01909
1.01909
1.01909
1.01909
1.01908
1.01908
1.01907
1.01907
1.01907
1.01907
1.01908
1.01909
1.0191
1.01911
1.0191
1.01909
1.01904
1.01898
1.01899
1.01911
1.01949
1.02026
1.02143
1.02288
1.02452
1.0262
1.02789
1.0295
1.03105
1.03237
1.03324
1.03368
1.03386
1.03395
1.03401
1.03404
1.03399
1.03391
1.0338
1.0337
1.03361
1.03354
1.0335
1.03345
1.03337
1.03316
1.03269
1.03174
1.03023
1.02849
1.02704
1.02603
1.0253
1.0247
1.02417
1.02368
1.02323
1.02284
1.02249
1.02219
1.02194
1.02174
1.02158
1.02146
1.02136
1.02129
1.02124
1.02118
1.02114
1.0211
1.02105
1.02101
1.02096
1.02092
1.02087
1.02082
1.02077
1.02072
1.02067
1.02062
1.02057
1.02054
1.02051
1.0205
1.02049
1.02048
1.02048
1.02047
1.02047
1.02046
1.02046
1.02045
1.02044
1.02042
1.02041
1.0204
1.02038
1.02037
1.02035
1.02033
1.02032
1.0203
1.02028
1.02027
1.02026
1.02025
1.02025
1.02025
1.02024
1.02024
1.02023
1.02023
1.02022
1.02021
1.0202
1.02019
1.02018
1.02018
1.02016
1.02015
1.02014
1.02012
1.02011
1.02009
1.02008
1.02007
1.02005
1.02004
1.02003
1.02001
1.02
1.01998
1.01998
1.01997
1.01996
1.01994
1.01992
1.01991
1.0199
1.01988
1.01987
1.01987
1.01986
1.01985
1.01985
1.01984
1.01983
1.01983
1.01983
1.01982
1.01982
1.01982
1.01981
1.0198
1.0198
1.01979
1.01979
1.01979
1.01979
1.01979
1.01978
1.01977
1.01976
1.01974
1.01973
1.01972
1.01972
1.01971
1.0197
1.0197
1.01969
1.01968
1.01968
1.01968
1.01968
1.01967
1.01967
1.01966
1.01965
1.01964
1.01964
1.01963
1.01962
1.01962
1.01961
1.0196
1.0196
1.01959
1.01959
1.01958
1.01959
1.0196
1.01961
1.01963
1.01964
1.01964
1.01964
1.01964
1.01964
1.01964
1.01965
1.01965
1.01965
1.01964
1.01963
1.01963
1.01962
1.01962
1.01962
1.01963
1.01962
1.01962
1.01961
1.01961
1.01961
1.0196
1.0196
1.0196
1.0196
1.01959
1.01959
1.01959
1.01959
1.01958
1.01957
1.01956
1.01955
1.01954
1.01952
1.01952
1.01951
1.0195
1.01949
1.01948
1.01948
1.01947
1.01946
1.01945
1.01944
1.01944
1.01943
1.01943
1.01942
1.01942
1.01941
1.0194
1.01939
1.01938
1.01937
1.01937
1.01938
1.0194
1.01941
1.01941
1.01941
1.01941
1.01941
1.01941
1.01942
1.01943
1.01943
1.01943
1.01942
1.01941
1.01941
1.0194
1.0194
1.0194
1.0194
1.01939
1.01938
1.01937
1.01937
1.01936
1.01936
1.01936
1.01936
1.01935
1.01935
1.01934
1.01934
1.01934
1.01933
1.01934
1.01934
1.01935
1.01934
1.01933
1.01933
1.01932
1.01932
1.01932
1.01932
1.01931
1.0193
1.01929
1.01928
1.01928
1.01928
1.01927
1.01928
1.01928
1.01928
1.01927
1.01927
1.01928
1.01928
1.01928
1.01928
1.01929
1.0193
1.01929
1.01929
1.01929
1.01929
1.01928
1.01928
1.01927
1.01927
1.01926
1.01924
1.01924
1.01923
1.01922
1.01921
1.01921
1.01921
1.01921
1.01919
1.01918
1.01917
1.01916
1.01915
1.01913
1.01913
1.01913
1.01911
1.01909
1.01909
1.01907
1.01908
1.01908
1.01909
1.01909
1.01907
1.01903
1.01899
1.01892
1.01884
1.01871
1.01851
1.01824
1.01784
1.01725
1.01642
1.01529
1.01373
1.01162
1.00877
1.00505
1.00016
0.99386
0.985887
0.975974
0.963827
0.949269
0.932195
0.912677
0.890969
0.86759
0.843465
0.819964
0.798909
0.782243
0.771829
0.767575
0.766304
0.765846
0.765769
0.76577
0.765815
0.765925
0.766104
0.766331
0.766578
0.766721
0.766723
0.766678
0.766596
0.766517
0.766496
0.766497
0.766524
0.766588
0.76665
0.76667
0.766668
0.766645
0.766583
0.766495
0.766432
0.766423
0.766429
0.766458
0.766512
0.766577
0.766617
0.766621
0.766613
0.766584
0.76653
0.766474
0.766447
0.766442
0.766446
0.766462
0.76649
0.766512
0.766515
0.766511
0.766497
0.766469
0.76644
0.766428
0.766428
0.766433
0.766449
0.766473
0.766491
0.766493
0.76649
0.766479
0.766459
0.766433
0.766414
0.766409
0.766411
0.766419
0.766431
0.766444
0.76645
0.766452
0.766451
0.766444
0.76643
0.766422
0.766422
0.766426
0.766438
0.766456
0.766483
0.766514
0.766547
0.766583
0.76662
0.766658
0.766695
0.766722
0.766738
0.766754
0.766772
0.766784
0.766786
0.766784
0.766775
0.766757
0.766731
0.7667
0.766667
0.766637
0.766611
0.766593
0.766581
0.766575
0.76657
0.766565
0.766556
0.766545
0.766533
0.766525
0.766521
0.766521
0.766521
0.766522
0.766523
0.766524
0.766523
0.766522
0.766517
0.76651
0.766503
0.766498
0.766497
0.766495
0.76649
0.766479
0.766462
0.766442
0.766422
0.766406
0.766416
0.766647
0.767779
0.770332
0.774034
0.778395
0.783105
0.788005
0.793041
0.798163
0.803366
0.808619
0.813925
0.819265
0.824655
0.830067
0.835512
0.840978
0.846481
0.851995
0.857529
0.863081
0.868664
0.874257
0.87986
0.885484
0.891138
0.896803
0.902471
0.908158
0.913878
0.919596
0.925322
0.931053
0.936822
0.942564
0.948332
0.954083
0.959872
0.965594
0.971331
0.976996
0.982752
0.989003
1.00024
1.132
1.132
1.132
1.132
1.132
1.132
1.132
1.132
1.132
1.132
1.132
1.132
1.132
1.132
1.132
1.132
1.132
1.132
1.132
1.132
1.132
1.132
1.132
1.132
1.132
1.132
1.132
1.132
1.132
1.132
1.132
1.132
1.132
1.132
1.132
1.13199
1.13159
1.12216
1.05719
1.02011
1.01899
1.01888
1.01881
1.01879
1.01878
1.01879
1.01884
1.01892
1.01897
1.01901
1.01904
1.01904
1.01902
1.019
1.019
1.01899
1.01899
1.01902
1.01906
1.01911
1.01914
1.01917
1.01919
1.01918
1.01915
1.01913
1.01912
1.01911
1.01912
1.01913
1.01914
1.01914
1.01913
1.01911
1.01909
1.01907
1.01905
1.01905
1.01905
1.01905
1.01905
1.01905
1.01904
1.01903
1.01901
1.019
1.019
1.019
1.01902
1.01905
1.01907
1.0191
1.01912
1.01912
1.01912
1.01911
1.0191
1.01909
1.01909
1.01909
1.0191
1.0191
1.01911
1.01912
1.01912
1.01912
1.01911
1.0191
1.01909
1.01907
1.01906
1.01906
1.01906
1.01907
1.01909
1.01911
1.01912
1.01911
1.01911
1.0191
1.01908
1.01905
1.01905
1.01905
1.01905
1.01906
1.01908
1.01909
1.01909
1.01909
1.01908
1.01907
1.01906
1.01906
1.01907
1.01908
1.01909
1.0191
1.01912
1.01912
1.01912
1.01912
1.01911
1.01911
1.0191
1.0191
1.01909
1.01909
1.01909
1.01909
1.01909
1.01909
1.01909
1.01909
1.01908
1.01908
1.01907
1.01907
1.01907
1.01907
1.01908
1.01909
1.0191
1.01911
1.0191
1.01909
1.01904
1.01898
1.01899
1.01911
1.01949
1.02026
1.02143
1.02288
1.02452
1.0262
1.02789
1.0295
1.03105
1.03237
1.03323
1.03367
1.03385
1.03395
1.03402
1.03405
1.03401
1.03391
1.0338
1.03369
1.03361
1.03354
1.0335
1.03345
1.03337
1.03316
1.03269
1.03174
1.03023
1.02849
1.02704
1.02603
1.0253
1.0247
1.02417
1.02368
1.02323
1.02283
1.02249
1.02219
1.02194
1.02174
1.02158
1.02146
1.02136
1.02129
1.02124
1.02118
1.02114
1.0211
1.02105
1.02101
1.02096
1.02092
1.02087
1.02082
1.02077
1.02072
1.02067
1.02062
1.02057
1.02054
1.02051
1.0205
1.02049
1.02048
1.02048
1.02047
1.02047
1.02046
1.02046
1.02045
1.02044
1.02042
1.02041
1.0204
1.02038
1.02037
1.02035
1.02033
1.02032
1.0203
1.02028
1.02027
1.02026
1.02025
1.02025
1.02025
1.02024
1.02024
1.02023
1.02023
1.02022
1.02021
1.0202
1.02019
1.02018
1.02018
1.02016
1.02015
1.02014
1.02012
1.02011
1.02009
1.02008
1.02007
1.02005
1.02004
1.02003
1.02001
1.02
1.01999
1.01998
1.01997
1.01996
1.01994
1.01992
1.01991
1.0199
1.01988
1.01987
1.01987
1.01986
1.01985
1.01985
1.01984
1.01983
1.01983
1.01983
1.01982
1.01982
1.01982
1.01981
1.0198
1.0198
1.01979
1.01979
1.01979
1.01979
1.01979
1.01978
1.01977
1.01976
1.01974
1.01973
1.01972
1.01972
1.01971
1.0197
1.0197
1.01969
1.01968
1.01968
1.01968
1.01968
1.01967
1.01967
1.01966
1.01965
1.01964
1.01964
1.01963
1.01962
1.01962
1.01961
1.0196
1.0196
1.01959
1.01959
1.01958
1.01959
1.0196
1.01961
1.01963
1.01964
1.01964
1.01964
1.01964
1.01964
1.01964
1.01965
1.01965
1.01965
1.01964
1.01963
1.01963
1.01962
1.01962
1.01962
1.01963
1.01962
1.01962
1.01961
1.01961
1.01961
1.0196
1.0196
1.0196
1.0196
1.01959
1.01959
1.01959
1.01959
1.01958
1.01957
1.01956
1.01955
1.01954
1.01952
1.01952
1.01951
1.0195
1.01949
1.01948
1.01948
1.01947
1.01946
1.01945
1.01944
1.01944
1.01943
1.01943
1.01942
1.01942
1.01941
1.0194
1.01939
1.01938
1.01937
1.01937
1.01938
1.0194
1.01941
1.01941
1.01941
1.01941
1.01941
1.01941
1.01942
1.01943
1.01943
1.01943
1.01942
1.01941
1.01941
1.0194
1.0194
1.0194
1.0194
1.01939
1.01938
1.01937
1.01937
1.01936
1.01936
1.01936
1.01936
1.01935
1.01935
1.01934
1.01934
1.01934
1.01933
1.01934
1.01934
1.01935
1.01934
1.01933
1.01933
1.01932
1.01932
1.01932
1.01932
1.01931
1.0193
1.01929
1.01928
1.01928
1.01928
1.01927
1.01928
1.01928
1.01928
1.01927
1.01927
1.01928
1.01928
1.01928
1.01928
1.01929
1.0193
1.01929
1.01929
1.01929
1.01929
1.01928
1.01928
1.01928
1.01927
1.01926
1.01924
1.01924
1.01923
1.01922
1.01921
1.01921
1.01921
1.01921
1.01919
1.01918
1.01917
1.01916
1.01915
1.01914
1.01913
1.01913
1.01911
1.01909
1.01909
1.01908
1.01908
1.01908
1.01909
1.01909
1.01908
1.01904
1.01899
1.01892
1.01884
1.01871
1.01852
1.01825
1.01784
1.01726
1.01644
1.01533
1.01379
1.01171
1.00891
1.00524
1.0004
0.994176
0.986281
0.976445
0.964353
0.949827
0.93274
0.913176
0.891375
0.86787
0.843637
0.820075
0.798997
0.78233
0.771892
0.76763
0.766356
0.765879
0.76579
0.765787
0.765828
0.765933
0.766109
0.766331
0.766576
0.766721
0.766723
0.766678
0.766596
0.766516
0.766494
0.766496
0.766521
0.766585
0.766648
0.766668
0.766666
0.766644
0.766583
0.766495
0.766431
0.766422
0.766428
0.766457
0.766511
0.766576
0.766616
0.76662
0.766612
0.766583
0.76653
0.766474
0.766446
0.766441
0.766445
0.766461
0.76649
0.766511
0.766515
0.766511
0.766496
0.766469
0.766439
0.766427
0.766427
0.766432
0.766448
0.766472
0.766489
0.76649
0.766487
0.766476
0.766456
0.76643
0.766412
0.766407
0.76641
0.766419
0.766433
0.766447
0.766455
0.766458
0.766459
0.766452
0.76644
0.766433
0.766432
0.766436
0.766446
0.766463
0.766487
0.766516
0.766548
0.766582
0.766618
0.766656
0.766692
0.766719
0.766735
0.766752
0.76677
0.766782
0.766785
0.766783
0.766774
0.766757
0.766731
0.766701
0.766668
0.766637
0.766612
0.766593
0.766582
0.766575
0.76657
0.766565
0.766557
0.766545
0.766534
0.766525
0.766521
0.766521
0.766521
0.766522
0.766523
0.766524
0.766523
0.766521
0.766517
0.76651
0.766503
0.766498
0.766497
0.766495
0.76649
0.766479
0.766462
0.766442
0.766422
0.766406
0.766416
0.766647
0.767779
0.770332
0.774034
0.778395
0.783105
0.788005
0.793041
0.798162
0.803366
0.808619
0.813925
0.819265
0.824656
0.830068
0.835512
0.840978
0.846481
0.851996
0.857529
0.863081
0.868664
0.874258
0.87986
0.885483
0.891138
0.896804
0.902472
0.908158
0.913878
0.919597
0.925322
0.931052
0.936823
0.942565
0.948332
0.954082
0.959873
0.965594
0.971331
0.976998
0.982762
0.989023
1.0002
1.132
1.132
1.132
1.132
1.132
1.132
1.132
1.132
1.132
1.132
1.132
1.132
1.132
1.132
1.132
1.132
1.132
1.132
1.132
1.132
1.132
1.132
1.132
1.132
1.132
1.132
1.132
1.132
1.132
1.132
1.132
1.132
1.132
1.132
1.132
1.13199
1.13159
1.12216
1.05719
1.02011
1.01899
1.01888
1.01881
1.01879
1.01878
1.01879
1.01884
1.01892
1.01897
1.01901
1.01904
1.01904
1.01902
1.019
1.019
1.01899
1.01899
1.01902
1.01906
1.01911
1.01914
1.01917
1.01919
1.01918
1.01915
1.01913
1.01912
1.01911
1.01912
1.01913
1.01914
1.01914
1.01913
1.01911
1.01909
1.01907
1.01905
1.01905
1.01905
1.01905
1.01905
1.01905
1.01904
1.01903
1.01901
1.019
1.019
1.019
1.01902
1.01905
1.01907
1.0191
1.01912
1.01912
1.01912
1.01911
1.0191
1.01909
1.01909
1.01909
1.0191
1.0191
1.01911
1.01912
1.01912
1.01912
1.01911
1.0191
1.01909
1.01907
1.01906
1.01906
1.01906
1.01907
1.01909
1.01911
1.01912
1.01911
1.01911
1.0191
1.01908
1.01905
1.01905
1.01905
1.01905
1.01906
1.01908
1.01909
1.01909
1.01909
1.01908
1.01907
1.01906
1.01906
1.01907
1.01908
1.01909
1.0191
1.01912
1.01912
1.01912
1.01912
1.01911
1.01911
1.0191
1.0191
1.01909
1.01909
1.01909
1.01909
1.01909
1.01909
1.01909
1.01909
1.01908
1.01908
1.01907
1.01907
1.01907
1.01907
1.01908
1.01909
1.0191
1.01911
1.0191
1.01909
1.01904
1.01898
1.01899
1.01911
1.01949
1.02026
1.02143
1.02288
1.02452
1.0262
1.02789
1.0295
1.03106
1.03238
1.03323
1.03366
1.03384
1.03395
1.03402
1.03406
1.03402
1.03391
1.03379
1.03369
1.03361
1.03354
1.0335
1.03345
1.03337
1.03316
1.03269
1.03174
1.03023
1.02849
1.02704
1.02603
1.0253
1.0247
1.02417
1.02368
1.02323
1.02284
1.02249
1.02219
1.02194
1.02174
1.02158
1.02146
1.02136
1.02129
1.02124
1.02118
1.02114
1.0211
1.02105
1.02101
1.02096
1.02092
1.02087
1.02082
1.02077
1.02072
1.02067
1.02062
1.02057
1.02054
1.02051
1.0205
1.02049
1.02048
1.02048
1.02047
1.02047
1.02046
1.02046
1.02045
1.02044
1.02042
1.02041
1.0204
1.02038
1.02037
1.02035
1.02033
1.02032
1.0203
1.02028
1.02027
1.02026
1.02025
1.02025
1.02025
1.02024
1.02024
1.02023
1.02023
1.02022
1.02021
1.0202
1.02019
1.02018
1.02018
1.02016
1.02015
1.02014
1.02012
1.02011
1.02009
1.02008
1.02007
1.02005
1.02004
1.02003
1.02001
1.02
1.01999
1.01998
1.01997
1.01996
1.01994
1.01992
1.01991
1.0199
1.01988
1.01987
1.01987
1.01986
1.01985
1.01985
1.01984
1.01983
1.01983
1.01983
1.01982
1.01982
1.01982
1.01981
1.0198
1.0198
1.01979
1.01979
1.01979
1.01979
1.01979
1.01978
1.01977
1.01976
1.01974
1.01973
1.01972
1.01972
1.01971
1.0197
1.0197
1.01969
1.01968
1.01968
1.01968
1.01968
1.01967
1.01967
1.01966
1.01965
1.01964
1.01964
1.01963
1.01962
1.01962
1.01961
1.0196
1.0196
1.01959
1.01959
1.01958
1.01959
1.0196
1.01961
1.01963
1.01964
1.01964
1.01964
1.01964
1.01964
1.01964
1.01965
1.01965
1.01965
1.01964
1.01963
1.01963
1.01962
1.01962
1.01962
1.01963
1.01962
1.01962
1.01962
1.01961
1.01961
1.0196
1.0196
1.0196
1.0196
1.01959
1.01959
1.01959
1.01959
1.01958
1.01957
1.01956
1.01955
1.01954
1.01952
1.01952
1.01951
1.0195
1.01949
1.01948
1.01948
1.01947
1.01946
1.01945
1.01944
1.01944
1.01943
1.01943
1.01942
1.01942
1.01941
1.0194
1.01939
1.01938
1.01937
1.01937
1.01938
1.0194
1.01941
1.01941
1.01941
1.01941
1.01941
1.01941
1.01942
1.01943
1.01943
1.01943
1.01942
1.01941
1.01941
1.0194
1.0194
1.0194
1.0194
1.01939
1.01938
1.01937
1.01937
1.01936
1.01936
1.01936
1.01936
1.01935
1.01935
1.01934
1.01934
1.01934
1.01933
1.01934
1.01934
1.01935
1.01934
1.01933
1.01933
1.01932
1.01932
1.01932
1.01932
1.01931
1.0193
1.01929
1.01928
1.01928
1.01927
1.01927
1.01928
1.01928
1.01928
1.01927
1.01927
1.01928
1.01928
1.01928
1.01928
1.01929
1.0193
1.01929
1.01929
1.01929
1.01929
1.01929
1.01928
1.01928
1.01927
1.01926
1.01924
1.01924
1.01923
1.01922
1.01921
1.01922
1.01921
1.01921
1.01919
1.01918
1.01917
1.01916
1.01914
1.01914
1.01913
1.01913
1.01911
1.0191
1.01909
1.01908
1.01908
1.01907
1.01908
1.01909
1.01909
1.01904
1.01899
1.01893
1.01885
1.01871
1.01853
1.01826
1.01785
1.01727
1.01646
1.01536
1.01384
1.01179
1.00902
1.00539
1.00059
0.994427
0.986591
0.976807
0.964737
0.950203
0.933052
0.913403
0.891497
0.867891
0.843598
0.820027
0.798971
0.782324
0.771888
0.767642
0.766386
0.765902
0.765805
0.7658
0.765839
0.76594
0.766113
0.76633
0.766574
0.76672
0.766722
0.766677
0.766595
0.766515
0.766493
0.766494
0.766518
0.766581
0.766645
0.766666
0.766664
0.766642
0.766581
0.766494
0.76643
0.76642
0.766427
0.766455
0.766509
0.766574
0.766614
0.766619
0.766611
0.766582
0.766529
0.766472
0.766445
0.76644
0.766444
0.76646
0.766489
0.766511
0.766514
0.76651
0.766496
0.766468
0.766438
0.766427
0.766426
0.766431
0.766446
0.766469
0.766486
0.766487
0.766483
0.766472
0.766452
0.766426
0.766408
0.766405
0.766409
0.766418
0.766435
0.766452
0.766462
0.766468
0.76647
0.766466
0.766456
0.766449
0.766449
0.766451
0.766459
0.766473
0.766494
0.766521
0.76655
0.766581
0.766616
0.766653
0.766689
0.766716
0.766732
0.766749
0.766767
0.76678
0.766783
0.766782
0.766773
0.766756
0.766732
0.766701
0.766669
0.766638
0.766613
0.766594
0.766583
0.766576
0.766571
0.766566
0.766557
0.766546
0.766534
0.766525
0.766521
0.766521
0.766521
0.766522
0.766523
0.766524
0.766523
0.766521
0.766517
0.76651
0.766503
0.766498
0.766497
0.766495
0.76649
0.766479
0.766462
0.766442
0.766422
0.766406
0.766416
0.766647
0.767779
0.770332
0.774034
0.778395
0.783105
0.788005
0.793041
0.798162
0.803366
0.808619
0.813925
0.819265
0.824656
0.830068
0.835511
0.840978
0.846481
0.851996
0.857528
0.863081
0.868664
0.874258
0.87986
0.885483
0.891138
0.896805
0.902472
0.908158
0.913878
0.919597
0.925322
0.931052
0.936823
0.942565
0.948332
0.954081
0.959874
0.965594
0.971331
0.977
0.982773
0.989043
1.00017
1.132
1.132
1.132
1.132
1.132
1.132
1.132
1.132
1.132
1.132
1.132
1.132
1.132
1.132
1.132
1.132
1.132
1.132
1.132
1.132
1.132
1.132
1.132
1.132
1.132
1.132
1.132
1.132
1.132
1.132
1.132
1.132
1.132
1.132
1.132
1.13199
1.13159
1.12216
1.05719
1.02011
1.01899
1.01888
1.01881
1.01879
1.01878
1.01879
1.01884
1.01892
1.01897
1.01901
1.01904
1.01904
1.01902
1.019
1.019
1.01899
1.01899
1.01902
1.01906
1.01911
1.01914
1.01917
1.01919
1.01918
1.01915
1.01913
1.01912
1.01911
1.01912
1.01913
1.01914
1.01914
1.01913
1.01911
1.01909
1.01907
1.01905
1.01905
1.01905
1.01905
1.01905
1.01905
1.01904
1.01903
1.01901
1.019
1.019
1.019
1.01902
1.01905
1.01907
1.0191
1.01912
1.01912
1.01912
1.01911
1.0191
1.01909
1.01909
1.01909
1.0191
1.0191
1.01911
1.01912
1.01912
1.01912
1.01911
1.0191
1.01909
1.01907
1.01906
1.01906
1.01906
1.01907
1.01909
1.01911
1.01912
1.01911
1.01911
1.0191
1.01908
1.01905
1.01905
1.01905
1.01905
1.01906
1.01908
1.01909
1.01909
1.01909
1.01908
1.01907
1.01906
1.01906
1.01907
1.01908
1.01909
1.0191
1.01912
1.01912
1.01912
1.01912
1.01911
1.01911
1.0191
1.0191
1.01909
1.01909
1.01909
1.01909