/*--------------------------------*- C++ -*----------------------------------*\
| =========                 |                                                 |
| \\      /  F ield         | OpenFOAM: The Open Source CFD Toolbox           |
|  \\    /   O peration     | Version:  2406                                  |
|   \\  /    A nd           | Website:  www.openfoam.com                      |
|    \\/     M anipulation  |                                                 |
\*---------------------------------------------------------------------------*/
FoamFile
{
    version     2.0;
    format      ascii;
    arch        "LSB;label=32;scalar=64";
    class       volScalarField;
    location    "0.07";
    object      rho;
}
// * * * * * * * * * * * * * * * * * * * * * * * * * * * * * * * * * * * * * //

dimensions      [1 -3 0 0 0 0 0];

internalField   nonuniform List<scalar> 
83682
(
4.32005
4.32005
4.32005
4.32005
4.32005
4.32005
4.32005
4.32005
4.32005
4.32005
4.32005
4.32005
4.32005
4.32005
4.32005
4.32005
4.32005
4.32005
4.32005
4.32005
4.32005
4.32005
4.32005
4.32005
4.32005
4.32005
4.32005
4.32005
4.32005
4.32005
4.32005
4.32005
4.32005
4.32005
4.32005
4.3201
4.32149
4.35482
4.59302
4.73853
4.74092
4.74011
4.73973
4.73978
4.73995
4.74024
4.74078
4.7414
4.74168
4.74165
4.74148
4.74114
4.74061
4.74013
4.73983
4.73958
4.73943
4.73947
4.73965
4.73989
4.74003
4.74015
4.7402
4.7401
4.73988
4.7397
4.73965
4.73964
4.73969
4.73984
4.74006
4.74019
4.74024
4.74027
4.74023
4.7401
4.74
4.74
4.74001
4.74005
4.74015
4.74026
4.74032
4.7403
4.74026
4.74016
4.74002
4.73993
4.73991
4.73994
4.74002
4.74018
4.74033
4.74036
4.74034
4.74026
4.74013
4.73993
4.73978
4.73975
4.73976
4.73982
4.73995
4.7401
4.74016
4.74016
4.7401
4.74
4.73986
4.73972
4.73969
4.73972
4.73981
4.73994
4.7401
4.74028
4.74033
4.74032
4.74029
4.74023
4.74013
4.74
4.73997
4.73998
4.74
4.74004
4.74013
4.74022
4.74025
4.74023
4.74019
4.74012
4.74001
4.73992
4.73988
4.73989
4.73993
4.74
4.74013
4.74023
4.74025
4.74025
4.74021
4.74013
4.74003
4.73995
4.73993
4.73994
4.73997
4.74002
4.74006
4.74008
4.74007
4.74004
4.74001
4.73998
4.73997
4.73997
4.74
4.74006
4.74012
4.74017
4.74019
4.74018
4.74017
4.7402
4.74036
4.74049
4.7404
4.7399
4.73839
4.73537
4.73079
4.72508
4.71868
4.71206
4.70548
4.69916
4.69314
4.68803
4.68456
4.68279
4.6822
4.68196
4.68188
4.68187
4.68209
4.68231
4.68267
4.68307
4.68341
4.68361
4.68373
4.68389
4.68422
4.68502
4.68685
4.69052
4.69635
4.7031
4.70874
4.71268
4.71554
4.71791
4.72007
4.72206
4.72389
4.72553
4.72697
4.72819
4.72916
4.72991
4.7305
4.73094
4.73127
4.73152
4.73171
4.73188
4.73204
4.73219
4.73234
4.73248
4.73263
4.7328
4.73298
4.73318
4.7334
4.73363
4.73387
4.73411
4.73433
4.7345
4.73462
4.73467
4.7347
4.73471
4.73472
4.73473
4.73474
4.73475
4.73476
4.73475
4.73474
4.73474
4.73475
4.73478
4.73483
4.7349
4.73498
4.73508
4.73519
4.73532
4.73543
4.7355
4.73555
4.73558
4.7356
4.73562
4.73563
4.73564
4.73566
4.73567
4.73568
4.73568
4.73568
4.73566
4.73566
4.7357
4.73575
4.73582
4.7359
4.73599
4.73608
4.73617
4.73625
4.73633
4.73642
4.73649
4.73655
4.73661
4.73668
4.73673
4.73677
4.7368
4.73683
4.73687
4.73689
4.73691
4.73692
4.73693
4.73694
4.73697
4.737
4.73704
4.73707
4.73711
4.73715
4.7372
4.73723
4.73726
4.73728
4.73731
4.73734
4.73737
4.7374
4.73741
4.7374
4.73737
4.73734
4.73733
4.73733
4.73735
4.73739
4.73744
4.73748
4.73751
4.73754
4.73757
4.73763
4.73769
4.73775
4.73781
4.73786
4.73788
4.73788
4.73789
4.7379
4.73793
4.73795
4.73795
4.73794
4.73793
4.73792
4.73794
4.73797
4.73801
4.73805
4.73807
4.7381
4.73812
4.73812
4.73811
4.73809
4.73807
4.73806
4.73808
4.73809
4.73811
4.73812
4.7381
4.73806
4.73802
4.73798
4.73795
4.73792
4.73791
4.73791
4.73791
4.73791
4.73791
4.73793
4.73797
4.73801
4.73805
4.7381
4.73815
4.73819
4.73821
4.73823
4.73824
4.73825
4.73825
4.73825
4.73825
4.73824
4.73822
4.73821
4.73822
4.73824
4.73826
4.73829
4.73834
4.73838
4.73841
4.73844
4.73849
4.73857
4.73866
4.73873
4.7388
4.73885
4.73887
4.73889
4.73891
4.73895
4.73896
4.73897
4.73896
4.73895
4.73891
4.73883
4.73873
4.73869
4.73869
4.73869
4.7387
4.73872
4.73874
4.73873
4.73873
4.73875
4.73879
4.73883
4.73886
4.73889
4.73892
4.73892
4.73891
4.73889
4.7389
4.73889
4.73888
4.73886
4.73886
4.73886
4.73886
4.73887
4.7389
4.73893
4.73897
4.73901
4.73906
4.7391
4.73912
4.73911
4.7391
4.73913
4.73916
4.73917
4.73917
4.73917
4.73915
4.73913
4.73911
4.73914
4.73917
4.73918
4.73919
4.7392
4.73922
4.73921
4.73921
4.73924
4.73929
4.73931
4.73933
4.73932
4.73932
4.73931
4.73927
4.73924
4.73924
4.73923
4.7392
4.73918
4.73917
4.73919
4.73919
4.73921
4.73925
4.73932
4.73934
4.73939
4.73942
4.73949
4.73953
4.73955
4.73957
4.73964
4.7397
4.73974
4.73975
4.73978
4.73981
4.73979
4.73974
4.73976
4.73982
4.73981
4.73982
4.73976
4.73966
4.73954
4.73948
4.73936
4.7392
4.73886
4.73831
4.73745
4.73617
4.73424
4.73137
4.72728
4.72154
4.71343
4.70208
4.68666
4.66574
4.63802
4.6015
4.55441
4.49465
4.42013
4.32886
4.21946
4.09108
3.94408
3.78021
3.60307
3.41829
3.23363
3.05929
2.90728
2.79014
2.71793
2.68748
2.67927
2.67763
2.6775
2.67762
2.67798
2.67867
2.67967
2.68092
2.68224
2.68313
2.68346
2.68353
2.68335
2.6831
2.68302
2.68299
2.683
2.6831
2.6832
2.68316
2.68307
2.68295
2.68272
2.68241
2.68221
2.68219
2.68223
2.68234
2.68254
2.68277
2.68292
2.68295
2.68294
2.68285
2.68268
2.68249
2.68239
2.68236
2.68235
2.68238
2.68246
2.68252
2.68252
2.6825
2.68246
2.68237
2.68229
2.68227
2.68228
2.68231
2.68238
2.68247
2.68253
2.68254
2.68254
2.6825
2.68243
2.68234
2.68226
2.68223
2.68222
2.68222
2.68224
2.68226
2.68226
2.68226
2.68225
2.68222
2.68219
2.68218
2.68222
2.68228
2.68239
2.68254
2.68273
2.68296
2.68323
2.68352
2.68383
2.68414
2.68441
2.68462
2.68472
2.68478
2.68483
2.68485
2.68484
2.6848
2.68472
2.68461
2.68445
2.68427
2.68406
2.68387
2.68369
2.68356
2.68346
2.6834
2.68336
2.68333
2.6833
2.68326
2.68321
2.68317
2.68315
2.68313
2.68312
2.6831
2.68309
2.68308
2.68307
2.68306
2.68304
2.683
2.68297
2.68293
2.68291
2.68291
2.6829
2.68291
2.68293
2.68294
2.68293
2.68291
2.68278
2.68219
2.67949
2.67353
2.66495
2.65491
2.64413
2.63296
2.62154
2.60998
2.59829
2.58654
2.57474
2.56294
2.55111
2.53929
2.52748
2.51568
2.50388
2.49211
2.48034
2.46861
2.45688
2.4452
2.43353
2.42192
2.41031
2.39877
2.38725
2.37579
2.36434
2.35295
2.34159
2.33028
2.31899
2.30776
2.29661
2.2855
2.27447
2.26354
2.25271
2.24207
2.23132
2.21981
2.19888
4.32005
4.32005
4.32005
4.32005
4.32005
4.32005
4.32005
4.32005
4.32005
4.32005
4.32005
4.32005
4.32005
4.32005
4.32005
4.32005
4.32005
4.32005
4.32005
4.32005
4.32005
4.32005
4.32005
4.32005
4.32005
4.32005
4.32005
4.32005
4.32005
4.32005
4.32005
4.32005
4.32005
4.32005
4.32005
4.3201
4.32149
4.35482
4.59302
4.73853
4.74092
4.74011
4.73973
4.73978
4.73995
4.74024
4.74078
4.7414
4.74168
4.74165
4.74148
4.74114
4.74061
4.74013
4.73983
4.73958
4.73943
4.73947
4.73965
4.73989
4.74003
4.74015
4.7402
4.7401
4.73988
4.7397
4.73965
4.73964
4.73969
4.73984
4.74006
4.74019
4.74024
4.74027
4.74023
4.7401
4.74
4.74
4.74001
4.74005
4.74015
4.74026
4.74032
4.7403
4.74026
4.74016
4.74002
4.73993
4.73991
4.73994
4.74002
4.74018
4.74033
4.74036
4.74034
4.74026
4.74013
4.73993
4.73978
4.73975
4.73976
4.73982
4.73995
4.7401
4.74016
4.74016
4.7401
4.74
4.73986
4.73972
4.73969
4.73972
4.73981
4.73994
4.7401
4.74028
4.74033
4.74032
4.74029
4.74023
4.74013
4.74
4.73997
4.73998
4.74
4.74004
4.74013
4.74022
4.74025
4.74023
4.74019
4.74012
4.74001
4.73992
4.73988
4.73989
4.73993
4.74
4.74013
4.74023
4.74025
4.74025
4.74021
4.74013
4.74003
4.73995
4.73993
4.73994
4.73997
4.74002
4.74006
4.74008
4.74007
4.74004
4.74001
4.73998
4.73997
4.73997
4.74
4.74006
4.74012
4.74017
4.74019
4.74018
4.74017
4.7402
4.74036
4.74049
4.7404
4.7399
4.73839
4.73537
4.7308
4.72508
4.71868
4.71207
4.70548
4.69916
4.69311
4.68799
4.68457
4.68285
4.68225
4.68197
4.68186
4.68182
4.68202
4.68231
4.68268
4.68308
4.68341
4.68361
4.68374
4.68389
4.68423
4.68502
4.68685
4.69052
4.69635
4.7031
4.70874
4.71268
4.71554
4.71791
4.72007
4.72206
4.72389
4.72553
4.72697
4.72819
4.72916
4.72991
4.7305
4.73094
4.73128
4.73152
4.73171
4.73188
4.73204
4.73219
4.73234
4.73248
4.73263
4.7328
4.73298
4.73318
4.7334
4.73363
4.73387
4.73411
4.73433
4.7345
4.73462
4.73467
4.7347
4.73471
4.73472
4.73473
4.73474
4.73475
4.73476
4.73475
4.73474
4.73474
4.73475
4.73478
4.73483
4.7349
4.73498
4.73508
4.73519
4.73532
4.73543
4.7355
4.73555
4.73558
4.7356
4.73562
4.73563
4.73564
4.73566
4.73567
4.73568
4.73568
4.73568
4.73566
4.73566
4.7357
4.73575
4.73582
4.7359
4.73599
4.73608
4.73617
4.73625
4.73633
4.73642
4.73649
4.73655
4.73661
4.73668
4.73673
4.73677
4.7368
4.73683
4.73687
4.73689
4.73691
4.73692
4.73693
4.73694
4.73697
4.737
4.73704
4.73707
4.73711
4.73715
4.7372
4.73723
4.73726
4.73728
4.73731
4.73734
4.73737
4.7374
4.73741
4.7374
4.73737
4.73734
4.73733
4.73733
4.73735
4.73739
4.73744
4.73748
4.73751
4.73754
4.73757
4.73763
4.73769
4.73775
4.73781
4.73786
4.73788
4.73788
4.73789
4.7379
4.73793
4.73795
4.73795
4.73794
4.73793
4.73792
4.73794
4.73797
4.73801
4.73805
4.73807
4.7381
4.73812
4.73812
4.73811
4.73809
4.73807
4.73806
4.73808
4.73809
4.73811
4.73812
4.7381
4.73806
4.73802
4.73798
4.73795
4.73792
4.73791
4.73791
4.73791
4.73791
4.73791
4.73793
4.73797
4.73801
4.73805
4.7381
4.73815
4.73819
4.73821
4.73823
4.73824
4.73825
4.73825
4.73825
4.73825
4.73824
4.73822
4.73821
4.73822
4.73824
4.73826
4.73829
4.73834
4.73838
4.73841
4.73844
4.73849
4.73857
4.73866
4.73873
4.7388
4.73885
4.73887
4.73889
4.73891
4.73895
4.73896
4.73897
4.73896
4.73895
4.73891
4.73883
4.73873
4.73869
4.73869
4.73869
4.7387
4.73872
4.73874
4.73873
4.73873
4.73875
4.73879
4.73883
4.73886
4.73889
4.73892
4.73892
4.73891
4.73889
4.7389
4.7389
4.73888
4.73886
4.73886
4.73886
4.73886
4.73887
4.7389
4.73893
4.73897
4.73901
4.73906
4.7391
4.73912
4.73911
4.7391
4.73913
4.73916
4.73917
4.73917
4.73917
4.73915
4.73913
4.73911
4.73914
4.73917
4.73918
4.73919
4.7392
4.73922
4.73921
4.73921
4.73924
4.73929
4.73931
4.73933
4.73932
4.73932
4.73931
4.73927
4.73924
4.73924
4.73923
4.73921
4.73918
4.73918
4.73919
4.73919
4.73921
4.73925
4.73931
4.73934
4.73939
4.73943
4.73949
4.73953
4.73955
4.73957
4.73964
4.7397
4.73974
4.73975
4.73979
4.73981
4.73979
4.73974
4.73976
4.73982
4.73981
4.73981
4.73976
4.73966
4.73956
4.73949
4.73936
4.7392
4.73886
4.73832
4.73745
4.73616
4.73423
4.73136
4.72729
4.72154
4.71344
4.70211
4.68669
4.66578
4.63807
4.60157
4.55453
4.49484
4.42041
4.32925
4.21996
4.09171
3.94483
3.78105
3.60393
3.4191
3.23433
3.0598
2.90761
2.79035
2.71802
2.68753
2.67933
2.67763
2.67748
2.67761
2.67798
2.67866
2.67967
2.68091
2.68223
2.68313
2.68347
2.68353
2.68335
2.6831
2.68302
2.68299
2.683
2.6831
2.6832
2.68316
2.68307
2.68295
2.68272
2.68241
2.68221
2.68219
2.68223
2.68234
2.68254
2.68277
2.68292
2.68295
2.68294
2.68285
2.68268
2.68249
2.68239
2.68236
2.68235
2.68238
2.68246
2.68252
2.68252
2.6825
2.68246
2.68237
2.68229
2.68227
2.68228
2.68231
2.68238
2.68247
2.68253
2.68254
2.68254
2.6825
2.68243
2.68234
2.68226
2.68223
2.68222
2.68222
2.68224
2.68226
2.68226
2.68226
2.68225
2.68222
2.68219
2.68218
2.68222
2.68228
2.68239
2.68254
2.68273
2.68296
2.68323
2.68352
2.68383
2.68414
2.68441
2.68462
2.68472
2.68478
2.68483
2.68485
2.68484
2.6848
2.68472
2.68461
2.68445
2.68427
2.68406
2.68387
2.68369
2.68356
2.68346
2.6834
2.68336
2.68333
2.6833
2.68326
2.68321
2.68317
2.68315
2.68313
2.68312
2.6831
2.68309
2.68308
2.68307
2.68306
2.68304
2.683
2.68297
2.68293
2.68291
2.68291
2.6829
2.68291
2.68293
2.68294
2.68293
2.68291
2.68278
2.68219
2.67949
2.67353
2.66495
2.65491
2.64413
2.63296
2.62154
2.60998
2.59829
2.58654
2.57474
2.56294
2.55111
2.53929
2.52748
2.51568
2.50388
2.49211
2.48034
2.46861
2.45688
2.4452
2.43353
2.42192
2.41031
2.39877
2.38724
2.37579
2.36434
2.35295
2.34159
2.33028
2.31899
2.30776
2.29661
2.2855
2.27447
2.26354
2.25271
2.24206
2.23131
2.21978
2.1989
4.32005
4.32005
4.32005
4.32005
4.32005
4.32005
4.32005
4.32005
4.32005
4.32005
4.32005
4.32005
4.32005
4.32005
4.32005
4.32005
4.32005
4.32005
4.32005
4.32005
4.32005
4.32005
4.32005
4.32005
4.32005
4.32005
4.32005
4.32005
4.32005
4.32005
4.32005
4.32005
4.32005
4.32005
4.32005
4.3201
4.32149
4.35482
4.59302
4.73853
4.74092
4.74011
4.73973
4.73978
4.73995
4.74024
4.74078
4.7414
4.74168
4.74165
4.74148
4.74114
4.74061
4.74013
4.73983
4.73958
4.73943
4.73947
4.73965
4.73989
4.74003
4.74015
4.7402
4.7401
4.73988
4.7397
4.73965
4.73964
4.73969
4.73984
4.74006
4.74019
4.74024
4.74027
4.74023
4.7401
4.74
4.74
4.74001
4.74005
4.74015
4.74026
4.74032
4.7403
4.74026
4.74016
4.74002
4.73993
4.73991
4.73994
4.74002
4.74018
4.74033
4.74036
4.74034
4.74026
4.74013
4.73993
4.73978
4.73975
4.73976
4.73982
4.73995
4.7401
4.74016
4.74016
4.7401
4.74
4.73986
4.73972
4.73969
4.73972
4.73981
4.73994
4.7401
4.74028
4.74033
4.74032
4.74029
4.74023
4.74013
4.74
4.73997
4.73998
4.74
4.74004
4.74013
4.74022
4.74025
4.74023
4.74019
4.74012
4.74001
4.73992
4.73988
4.73989
4.73993
4.74
4.74013
4.74023
4.74025
4.74025
4.74021
4.74013
4.74003
4.73995
4.73993
4.73994
4.73997
4.74002
4.74006
4.74008
4.74007
4.74004
4.74001
4.73998
4.73997
4.73997
4.74
4.74006
4.74012
4.74017
4.74019
4.74018
4.74017
4.7402
4.74035
4.74049
4.7404
4.7399
4.73839
4.73537
4.7308
4.72508
4.71868
4.71207
4.70548
4.69916
4.69309
4.68796
4.68458
4.68291
4.6823
4.68198
4.68184
4.68177
4.68196
4.68231
4.6827
4.68309
4.68341
4.68362
4.68374
4.6839
4.68423
4.68502
4.68685
4.69052
4.69636
4.7031
4.70874
4.71268
4.71554
4.71791
4.72007
4.72206
4.72389
4.72553
4.72697
4.72819
4.72916
4.72991
4.7305
4.73094
4.73128
4.73152
4.73171
4.73188
4.73204
4.73219
4.73234
4.73248
4.73263
4.7328
4.73298
4.73318
4.7334
4.73363
4.73387
4.73411
4.73433
4.7345
4.73462
4.73467
4.7347
4.73471
4.73472
4.73473
4.73474
4.73475
4.73476
4.73475
4.73474
4.73474
4.73475
4.73478
4.73483
4.7349
4.73498
4.73508
4.73519
4.73532
4.73543
4.7355
4.73555
4.73558
4.7356
4.73562
4.73563
4.73564
4.73566
4.73567
4.73568
4.73568
4.73568
4.73566
4.73566
4.7357
4.73575
4.73582
4.7359
4.73599
4.73608
4.73617
4.73625
4.73633
4.73642
4.73649
4.73655
4.73661
4.73668
4.73673
4.73677
4.7368
4.73683
4.73687
4.73689
4.73691
4.73692
4.73693
4.73694
4.73697
4.737
4.73704
4.73707
4.73711
4.73715
4.7372
4.73723
4.73726
4.73728
4.73731
4.73734
4.73737
4.7374
4.73741
4.7374
4.73737
4.73734
4.73733
4.73733
4.73735
4.73739
4.73744
4.73748
4.73751
4.73754
4.73757
4.73763
4.73769
4.73775
4.73781
4.73786
4.73788
4.73788
4.73789
4.7379
4.73793
4.73795
4.73795
4.73794
4.73793
4.73792
4.73794
4.73797
4.73801
4.73805
4.73807
4.7381
4.73812
4.73812
4.73811
4.73809
4.73807
4.73806
4.73808
4.73809
4.73811
4.73812
4.7381
4.73806
4.73802
4.73798
4.73795
4.73792
4.73791
4.73791
4.73791
4.73791
4.73791
4.73793
4.73797
4.73801
4.73805
4.7381
4.73815
4.73819
4.73821
4.73823
4.73824
4.73825
4.73825
4.73825
4.73825
4.73824
4.73822
4.73821
4.73822
4.73824
4.73826
4.73829
4.73834
4.73838
4.73841
4.73844
4.73849
4.73857
4.73866
4.73873
4.73879
4.73885
4.73887
4.73889
4.73891
4.73895
4.73896
4.73897
4.73896
4.73895
4.73891
4.73883
4.73873
4.73869
4.73869
4.73869
4.7387
4.73872
4.73874
4.73873
4.73873
4.73875
4.73879
4.73883
4.73886
4.73889
4.73892
4.73892
4.73891
4.73889
4.7389
4.73889
4.73888
4.73886
4.73886
4.73886
4.73886
4.73887
4.7389
4.73893
4.73897
4.73901
4.73906
4.7391
4.73912
4.73911
4.7391
4.73913
4.73916
4.73917
4.73917
4.73917
4.73915
4.73913
4.73911
4.73914
4.73916
4.73918
4.73919
4.7392
4.73922
4.73921
4.73921
4.73924
4.73929
4.73931
4.73933
4.73932
4.73932
4.73931
4.73927
4.73924
4.73924
4.73924
4.73921
4.73918
4.73917
4.73919
4.73919
4.73921
4.73924
4.73931
4.73935
4.7394
4.73943
4.73949
4.73952
4.73955
4.73957
4.73964
4.7397
4.73974
4.73976
4.73979
4.73981
4.73979
4.73975
4.73976
4.73981
4.73979
4.7398
4.73975
4.73968
4.73958
4.73949
4.73935
4.73919
4.73887
4.73832
4.73745
4.73616
4.73422
4.73136
4.7273
4.72156
4.71347
4.70218
4.68677
4.6659
4.63823
4.60181
4.55494
4.49548
4.42131
4.33044
4.22145
4.09346
3.94678
3.7831
3.60593
3.42089
3.23575
3.0608
2.90821
2.79062
2.71804
2.68753
2.67937
2.67764
2.67747
2.6776
2.67797
2.67865
2.67966
2.6809
2.68223
2.68313
2.68347
2.68354
2.68335
2.6831
2.68302
2.68299
2.68299
2.6831
2.6832
2.68316
2.68307
2.68295
2.68272
2.68242
2.68221
2.68219
2.68223
2.68234
2.68254
2.68277
2.68292
2.68295
2.68294
2.68285
2.68268
2.68249
2.68239
2.68236
2.68235
2.68238
2.68246
2.68252
2.68252
2.6825
2.68246
2.68237
2.68229
2.68227
2.68228
2.68231
2.68238
2.68247
2.68253
2.68254
2.68254
2.6825
2.68243
2.68234
2.68226
2.68223
2.68222
2.68222
2.68224
2.68226
2.68226
2.68226
2.68225
2.68222
2.68219
2.68218
2.68222
2.68228
2.68239
2.68254
2.68273
2.68296
2.68323
2.68352
2.68383
2.68414
2.68441
2.68462
2.68472
2.68478
2.68483
2.68485
2.68484
2.6848
2.68472
2.68461
2.68445
2.68427
2.68406
2.68387
2.68369
2.68356
2.68346
2.6834
2.68336
2.68333
2.6833
2.68326
2.68321
2.68317
2.68315
2.68313
2.68312
2.6831
2.68309
2.68308
2.68307
2.68306
2.68304
2.683
2.68297
2.68293
2.68291
2.68291
2.6829
2.68291
2.68293
2.68294
2.68293
2.68291
2.68278
2.68219
2.67949
2.67353
2.66495
2.65491
2.64413
2.63296
2.62154
2.60998
2.59829
2.58654
2.57474
2.56294
2.55111
2.53929
2.52747
2.51568
2.50388
2.49211
2.48034
2.46862
2.45688
2.4452
2.43353
2.42192
2.41031
2.39877
2.38724
2.37579
2.36434
2.35295
2.34159
2.33028
2.31899
2.30776
2.29661
2.2855
2.27447
2.26354
2.25271
2.24206
2.23129
2.21975
2.19894
4.32005
4.32005
4.32005
4.32005
4.32005
4.32005
4.32005
4.32005
4.32005
4.32005
4.32005
4.32005
4.32005
4.32005
4.32005
4.32005
4.32005
4.32005
4.32005
4.32005
4.32005
4.32005
4.32005
4.32005
4.32005
4.32005
4.32005
4.32005
4.32005
4.32005
4.32005
4.32005
4.32005
4.32005
4.32005
4.3201
4.32149
4.35482
4.59302
4.73853
4.74092
4.74011
4.73973
4.73978
4.73995
4.74024
4.74078
4.7414
4.74168
4.74165
4.74148
4.74114
4.74061
4.74013
4.73983
4.73958
4.73943
4.73947
4.73965
4.73989
4.74003
4.74015
4.7402
4.7401
4.73988
4.7397
4.73965
4.73964
4.73969
4.73984
4.74006
4.74019
4.74024
4.74027
4.74023
4.7401
4.74
4.74
4.74001
4.74005
4.74015
4.74026
4.74032
4.7403
4.74026
4.74016
4.74002
4.73993
4.73991
4.73994
4.74002
4.74018
4.74033
4.74036
4.74034
4.74026
4.74013
4.73993
4.73978
4.73975
4.73976
4.73982
4.73995
4.7401
4.74016
4.74016
4.7401
4.74
4.73986
4.73972
4.73969
4.73972
4.73981
4.73994
4.7401
4.74028
4.74033
4.74032
4.74029
4.74023
4.74013
4.74
4.73997
4.73998
4.74
4.74004
4.74013
4.74022
4.74025
4.74023
4.74019
4.74012
4.74001
4.73992
4.73988
4.73989
4.73993
4.74
4.74013
4.74023
4.74025
4.74025
4.74021
4.74013
4.74003
4.73995
4.73993
4.73994
4.73997
4.74002
4.74006
4.74008
4.74007
4.74004
4.74001
4.73998
4.73997
4.73997
4.74
4.74006
4.74012
4.74017
4.74019
4.74018
4.74017
4.7402
4.74035
4.74049
4.7404
4.7399
4.73839
4.73537
4.7308
4.72508
4.71868
4.71207
4.70548
4.69917
4.69307
4.68793
4.68459
4.68296
4.68234
4.68199
4.68182
4.68172
4.68191
4.6823
4.68272
4.6831
4.68341
4.68362
4.68375
4.6839
4.68423
4.68502
4.68686
4.69052
4.69636
4.7031
4.70875
4.71269
4.71554
4.71792
4.72007
4.72206
4.72389
4.72553
4.72697
4.72819
4.72916
4.72991
4.7305
4.73095
4.73128
4.73152
4.73171
4.73188
4.73204
4.73219
4.73233
4.73248
4.73263
4.7328
4.73298
4.73318
4.7334
4.73363
4.73387
4.73411
4.73433
4.7345
4.73462
4.73467
4.73469
4.73471
4.73472
4.73473
4.73474
4.73475
4.73476
4.73475
4.73474
4.73474
4.73475
4.73478
4.73483
4.7349
4.73498
4.73508
4.73519
4.73532
4.73543
4.7355
4.73555
4.73558
4.7356
4.73562
4.73563
4.73564
4.73566
4.73567
4.73568
4.73568
4.73568
4.73566
4.73566
4.7357
4.73575
4.73582
4.7359
4.73599
4.73608
4.73617
4.73625
4.73633
4.73642
4.73649
4.73655
4.73661
4.73668
4.73673
4.73677
4.7368
4.73683
4.73687
4.73689
4.73691
4.73692
4.73693
4.73694
4.73697
4.737
4.73704
4.73707
4.73711
4.73715
4.7372
4.73723
4.73726
4.73728
4.73731
4.73734
4.73737
4.7374
4.73741
4.7374
4.73737
4.73734
4.73733
4.73733
4.73735
4.73739
4.73744
4.73748
4.73751
4.73754
4.73757
4.73763
4.73769
4.73775
4.73781
4.73786
4.73788
4.73788
4.73789
4.7379
4.73793
4.73795
4.73795
4.73794
4.73793
4.73792
4.73794
4.73797
4.73801
4.73805
4.73808
4.7381
4.73812
4.73812
4.73811
4.73809
4.73807
4.73806
4.73808
4.73809
4.73811
4.73812
4.7381
4.73806
4.73802
4.73798
4.73795
4.73792
4.73791
4.73791
4.73791
4.73791
4.73791
4.73793
4.73797
4.73801
4.73805
4.7381
4.73815
4.73819
4.73821
4.73823
4.73824
4.73825
4.73825
4.73825
4.73825
4.73824
4.73822
4.73821
4.73822
4.73824
4.73826
4.73829
4.73834
4.73838
4.73841
4.73844
4.73849
4.73857
4.73866
4.73873
4.73879
4.73885
4.73887
4.73889
4.73891
4.73894
4.73896
4.73897
4.73897
4.73895
4.73891
4.73883
4.73873
4.73869
4.73869
4.73869
4.7387
4.73872
4.73873
4.73873
4.73873
4.73875
4.73879
4.73883
4.73886
4.73889
4.73892
4.73892
4.73891
4.73889
4.7389
4.73889
4.73888
4.73886
4.73886
4.73886
4.73887
4.73887
4.7389
4.73893
4.73897
4.73901
4.73906
4.7391
4.73912
4.73911
4.7391
4.73913
4.73916
4.73917
4.73917
4.73917
4.73916
4.73913
4.73911
4.73913
4.73916
4.73918
4.73919
4.73921
4.73922
4.73921
4.73921
4.73924
4.73929
4.73932
4.73933
4.73932
4.73932
4.7393
4.73927
4.73924
4.73925
4.73924
4.73921
4.73918
4.73917
4.73918
4.73919
4.73921
4.73924
4.73931
4.73935
4.7394
4.73943
4.73949
4.73952
4.73954
4.73958
4.73965
4.7397
4.73973
4.73976
4.73979
4.73981
4.73979
4.73975
4.73976
4.7398
4.73978
4.73979
4.73976
4.73971
4.73962
4.73949
4.73933
4.73918
4.73887
4.73833
4.73744
4.73615
4.73422
4.73137
4.72732
4.72159
4.71354
4.70227
4.68688
4.66609
4.63852
4.60227
4.55568
4.49652
4.42271
4.33221
4.22361
4.09593
3.94948
3.7858
3.60839
3.42298
3.23737
3.06189
2.90888
2.79098
2.71816
2.68759
2.67943
2.67766
2.67746
2.6776
2.67796
2.67865
2.67965
2.68089
2.68222
2.68313
2.68347
2.68354
2.68336
2.68311
2.68302
2.68299
2.68299
2.68309
2.68319
2.68316
2.68307
2.68295
2.68272
2.68242
2.68221
2.68219
2.68223
2.68234
2.68254
2.68277
2.68292
2.68295
2.68294
2.68285
2.68268
2.68249
2.68239
2.68236
2.68235
2.68238
2.68246
2.68252
2.68252
2.6825
2.68246
2.68237
2.68229
2.68227
2.68228
2.68231
2.68238
2.68247
2.68253
2.68254
2.68254
2.6825
2.68243
2.68234
2.68226
2.68223
2.68222
2.68222
2.68224
2.68226
2.68226
2.68226
2.68225
2.68222
2.68219
2.68218
2.68222
2.68228
2.68239
2.68254
2.68273
2.68296
2.68323
2.68352
2.68383
2.68414
2.68442
2.68462
2.68472
2.68478
2.68483
2.68485
2.68484
2.6848
2.68473
2.68461
2.68445
2.68427
2.68406
2.68387
2.68369
2.68356
2.68346
2.6834
2.68336
2.68334
2.6833
2.68326
2.68321
2.68317
2.68315
2.68313
2.68312
2.6831
2.68309
2.68308
2.68307
2.68306
2.68304
2.683
2.68297
2.68293
2.68291
2.68291
2.6829
2.68291
2.68293
2.68294
2.68293
2.68291
2.68278
2.68219
2.67949
2.67353
2.66495
2.65491
2.64413
2.63297
2.62154
2.60998
2.59829
2.58654
2.57474
2.56294
2.55111
2.53929
2.52747
2.51568
2.50388
2.49211
2.48034
2.46862
2.45688
2.4452
2.43353
2.42192
2.41031
2.39877
2.38724
2.37579
2.36434
2.35295
2.34159
2.33028
2.31899
2.30776
2.29661
2.2855
2.27446
2.26354
2.25271
2.24206
2.23128
2.21972
2.19901
4.32005
4.32005
4.32005
4.32005
4.32005
4.32005
4.32005
4.32005
4.32005
4.32005
4.32005
4.32005
4.32005
4.32005
4.32005
4.32005
4.32005
4.32005
4.32005
4.32005
4.32005
4.32005
4.32005
4.32005
4.32005
4.32005
4.32005
4.32005
4.32005
4.32005
4.32005
4.32005
4.32005
4.32005
4.32005
4.3201
4.32149
4.35482
4.59302
4.73853
4.74092
4.74011
4.73973
4.73978
4.73995
4.74024
4.74078
4.7414
4.74168
4.74165
4.74148
4.74114
4.74061
4.74013
4.73983
4.73958
4.73943
4.73947
4.73965
4.73989
4.74003
4.74015
4.7402
4.7401
4.73988
4.7397
4.73965
4.73964
4.73969
4.73984
4.74006
4.74019
4.74024
4.74027
4.74023
4.7401
4.74
4.74
4.74001
4.74005
4.74015
4.74026
4.74032
4.7403
4.74026
4.74016
4.74002
4.73993
4.73991
4.73994
4.74002
4.74018
4.74033
4.74036
4.74034
4.74026
4.74013
4.73993
4.73978
4.73975
4.73976
4.73982
4.73995
4.7401
4.74016
4.74016
4.7401
4.74
4.73986
4.73972
4.73969
4.73972
4.73981
4.73994
4.7401
4.74028
4.74033
4.74032
4.74029
4.74023
4.74013
4.74
4.73997
4.73998
4.74
4.74004
4.74013
4.74022
4.74025
4.74023
4.74019
4.74012
4.74001
4.73992
4.73988
4.73989
4.73993
4.74
4.74013
4.74023
4.74025
4.74025
4.74021
4.74013
4.74003
4.73995
4.73993
4.73994
4.73997
4.74002
4.74006
4.74008
4.74007
4.74004
4.74001
4.73998
4.73997
4.73997
4.74
4.74006
4.74012
4.74017
4.74019
4.74018
4.74017
4.7402
4.74035
4.74049
4.7404
4.7399
4.73839
4.73537
4.7308
4.72508
4.71868
4.71207
4.70548
4.69917
4.69305
4.6879
4.6846
4.68301
4.68237
4.682
4.6818
4.68168
4.68187
4.6823
4.68274
4.6831
4.68341
4.68362
4.68375
4.6839
4.68423
4.68503
4.68686
4.69053
4.69636
4.7031
4.70875
4.71269
4.71554
4.71792
4.72007
4.72206
4.72389
4.72553
4.72697
4.72819
4.72916
4.72991
4.7305
4.73095
4.73128
4.73152
4.73171
4.73188
4.73204
4.73219
4.73233
4.73248
4.73263
4.7328
4.73298
4.73318
4.7334
4.73363
4.73387
4.73411
4.73433
4.73451
4.73462
4.73467
4.73469
4.73471
4.73472
4.73473
4.73474
4.73475
4.73476
4.73475
4.73474
4.73474
4.73475
4.73478
4.73483
4.7349
4.73498
4.73508
4.73519
4.73532
4.73543
4.7355
4.73554
4.73558
4.7356
4.73562
4.73563
4.73564
4.73566
4.73567
4.73568
4.73568
4.73568
4.73566
4.73566
4.7357
4.73575
4.73582
4.7359
4.73599
4.73608
4.73617
4.73625
4.73633
4.73642
4.73649
4.73655
4.73661
4.73668
4.73673
4.73677
4.7368
4.73683
4.73687
4.73689
4.73691
4.73692
4.73693
4.73694
4.73697
4.737
4.73704
4.73707
4.73711
4.73715
4.7372
4.73723
4.73726
4.73728
4.73731
4.73734
4.73737
4.7374
4.73741
4.7374
4.73737
4.73734
4.73733
4.73733
4.73735
4.73739
4.73744
4.73748
4.73751
4.73754
4.73757
4.73763
4.73769
4.73775
4.73781
4.73786
4.73788
4.73788
4.73789
4.7379
4.73793
4.73794
4.73795
4.73794
4.73793
4.73792
4.73794
4.73797
4.73801
4.73805
4.73808
4.7381
4.73812
4.73812
4.73811
4.73809
4.73807
4.73806
4.73807
4.73809
4.73811
4.73812
4.7381
4.73806
4.73802
4.73798
4.73795
4.73792
4.7379
4.73791
4.73791
4.73791
4.73791
4.73793
4.73797
4.73801
4.73805
4.7381
4.73815
4.73819
4.73821
4.73823
4.73824
4.73825
4.73825
4.73825
4.73825
4.73824
4.73822
4.73821
4.73822
4.73824
4.73826
4.73829
4.73834
4.73838
4.73841
4.73844
4.73849
4.73857
4.73866
4.73873
4.73879
4.73885
4.73887
4.73889
4.73891
4.73894
4.73896
4.73897
4.73897
4.73895
4.73891
4.73883
4.73873
4.73869
4.73869
4.7387
4.7387
4.73872
4.73873
4.73873
4.73873
4.73875
4.73879
4.73883
4.73886
4.73889
4.73892
4.73892
4.73891
4.73889
4.7389
4.73889
4.73888
4.73886
4.73886
4.73886
4.73887
4.73887
4.7389
4.73893
4.73897
4.73901
4.73906
4.7391
4.73912
4.73911
4.7391
4.73913
4.73916
4.73917
4.73917
4.73917
4.73916
4.73913
4.73911
4.73913
4.73916
4.73918
4.73919
4.73921
4.73922
4.73921
4.73921
4.73924
4.73929
4.73932
4.73933
4.73932
4.73932
4.7393
4.73927
4.73924
4.73925
4.73924
4.73921
4.73918
4.73917
4.73918
4.73919
4.73921
4.73924
4.73931
4.73935
4.73941
4.73944
4.73949
4.73951
4.73954
4.73958
4.73965
4.7397
4.73973
4.73976
4.7398
4.7398
4.73978
4.73976
4.73977
4.73978
4.73976
4.73978
4.73976
4.73975
4.73965
4.73949
4.73931
4.73916
4.73886
4.73833
4.73745
4.73616
4.73422
4.73137
4.72735
4.72164
4.71361
4.70236
4.68704
4.66636
4.63892
4.6029
4.5566
4.49777
4.42433
4.33421
4.22595
4.09846
3.952
3.78807
3.61031
3.42446
3.23834
3.06244
2.90917
2.79109
2.71815
2.68759
2.67947
2.67767
2.67745
2.6776
2.67796
2.67864
2.67963
2.68088
2.6822
2.68312
2.68347
2.68355
2.68337
2.68311
2.68303
2.68299
2.68299
2.68309
2.68319
2.68316
2.68307
2.68295
2.68272
2.68242
2.68221
2.68219
2.68222
2.68234
2.68253
2.68277
2.68292
2.68295
2.68294
2.68285
2.68268
2.68249
2.68239
2.68236
2.68235
2.68238
2.68246
2.68252
2.68252
2.6825
2.68246
2.68237
2.68229
2.68227
2.68228
2.68231
2.68238
2.68247
2.68253
2.68254
2.68254
2.6825
2.68243
2.68234
2.68226
2.68223
2.68222
2.68222
2.68224
2.68226
2.68227
2.68226
2.68224
2.68222
2.68219
2.68218
2.68222
2.68228
2.68239
2.68254
2.68273
2.68297
2.68323
2.68353
2.68383
2.68414
2.68442
2.68462
2.68472
2.68478
2.68483
2.68486
2.68484
2.6848
2.68473
2.68461
2.68445
2.68427
2.68406
2.68386
2.68369
2.68355
2.68346
2.6834
2.68337
2.68334
2.6833
2.68326
2.68321
2.68317
2.68315
2.68313
2.68312
2.6831
2.68309
2.68308
2.68307
2.68306
2.68304
2.683
2.68297
2.68293
2.68291
2.68291
2.6829
2.68291
2.68293
2.68294
2.68293
2.68291
2.68278
2.68219
2.67949
2.67353
2.66495
2.65492
2.64413
2.63297
2.62154
2.60998
2.59829
2.58654
2.57474
2.56294
2.55111
2.53929
2.52747
2.51568
2.50388
2.49211
2.48034
2.46862
2.45688
2.4452
2.43353
2.42192
2.41031
2.39877
2.38724
2.3758
2.36434
2.35295
2.34158
2.33028
2.31899
2.30776
2.29661
2.2855
2.27446
2.26354
2.25271
2.24206
2.23126
2.21969
2.19908
4.32005
4.32005
4.32005
4.32005
4.32005
4.32005
4.32005
4.32005
4.32005
4.32005
4.32005
4.32005
4.32005
4.32005
4.32005
4.32005
4.32005
4.32005
4.32005
4.32005
4.32005
4.32005
4.32005
4.32005
4.32005
4.32005
4.32005
4.32005
4.32005
4.32005
4.32005
4.32005
4.32005
4.32005
4.32005
4.3201
4.32149
4.35482
4.59302
4.73853
4.74092
4.74011
4.73973
4.73978
4.73995
4.74024
4.74078
4.7414
4.74168
4.74165
4.74148
4.74114
4.74061
4.74013
4.73983
4.73958
4.73943
4.73947
4.73965
4.73989
4.74003
4.74015
4.7402
4.7401
4.73988
4.7397
4.73965
4.73964
4.73969
4.73984
4.74006
4.74019
4.74024
4.74027
4.74023
4.7401
4.74
4.74
4.74001
4.74005
4.74015
4.74026
4.74032
4.7403
4.74026
4.74016
4.74002
4.73993
4.73991
4.73994
4.74002
4.74018
4.74033
4.74036
4.74034
4.74026
4.74013
4.73993
4.73978
4.73975
4.73976
4.73982
4.73995
4.7401
4.74016
4.74016
4.7401
4.74
4.73986
4.73972
4.73969
4.73972
4.73981
4.73994
4.7401
4.74028
4.74033
4.74032
4.74029
4.74023
4.74013
4.74
4.73997
4.73998
4.74
4.74004
4.74013
4.74022
4.74025
4.74023
4.74019
4.74012
4.74001
4.73992
4.73988
4.73989
4.73993
4.74
4.74013
4.74023
4.74025
4.74025
4.74021
4.74013
4.74003
4.73995
4.73993
4.73994
4.73997
4.74002
4.74006
4.74008
4.74007
4.74004
4.74001
4.73998
4.73997
4.73997
4.74
4.74006
4.74012
4.74017
4.74019
4.74018
4.74017
4.7402
4.74035
4.74049
4.7404
4.7399
4.73839
4.73537
4.7308
4.72508
4.71868
4.71207
4.70548
4.69917
4.69304
4.68788
4.68461
4.68305
4.6824
4.68201
4.68178
4.68165
4.68183
4.68229
4.68276
4.68311
4.68341
4.68362
4.68376
4.68391
4.68424
4.68503
4.68686
4.69053
4.69636
4.70311
4.70875
4.71269
4.71555
4.71792
4.72007
4.72206
4.72389
4.72553
4.72697
4.72819
4.72916
4.72991
4.7305
4.73095
4.73128
4.73152
4.73171
4.73188
4.73204
4.73219