/*--------------------------------*- C++ -*----------------------------------*\
| =========                 |                                                 |
| \\      /  F ield         | OpenFOAM: The Open Source CFD Toolbox           |
|  \\    /   O peration     | Version:  2406                                  |
|   \\  /    A nd           | Website:  www.openfoam.com                      |
|    \\/     M anipulation  |                                                 |
\*---------------------------------------------------------------------------*/
FoamFile
{
    version     2.0;
    format      ascii;
    arch        "LSB;label=32;scalar=64";
    class       volVectorField;
    location    "0.07";
    object      U;
}
// * * * * * * * * * * * * * * * * * * * * * * * * * * * * * * * * * * * * * //

dimensions      [0 1 -1 0 0 0 0];

internalField   nonuniform List<vector> 
83682
(
(347.059 1.84941e-11 -4.54711e-11)
(347.059 1.85873e-11 -4.91696e-11)
(347.059 2.14249e-11 -4.89578e-11)
(347.059 2.35592e-11 -4.80575e-11)
(347.059 1.3521e-11 -4.63845e-11)
(347.059 2.00993e-12 -3.98096e-11)
(347.059 -5.23786e-12 -4.19884e-11)
(347.059 -1.21569e-11 -4.03892e-11)
(347.059 -2.21137e-11 -4.35496e-11)
(347.059 -2.62797e-11 -4.22403e-11)
(347.059 -2.47622e-11 -4.11691e-11)
(347.059 -2.14411e-11 -3.99223e-11)
(347.059 -1.3342e-11 -3.98967e-11)
(347.059 -6.94681e-12 -3.9471e-11)
(347.059 -5.67786e-12 -4.01783e-11)
(347.059 -6.18241e-12 -4.01187e-11)
(347.059 -7.28324e-12 -4.00296e-11)
(347.059 -6.86856e-12 -4.00404e-11)
(347.059 -2.47465e-12 -3.97863e-11)
(347.059 1.07039e-12 -3.82592e-11)
(347.059 5.42793e-12 -3.69611e-11)
(347.059 1.16191e-11 -3.5822e-11)
(347.059 1.47481e-11 -3.51657e-11)
(347.059 2.17736e-11 -3.44134e-11)
(347.059 2.16337e-11 -3.87349e-11)
(347.059 2.57936e-11 -3.64501e-11)
(347.059 2.51066e-11 -3.67541e-11)
(347.059 1.93304e-11 -3.65161e-11)
(347.059 1.19034e-11 -3.60038e-11)
(347.059 7.38195e-12 -3.46951e-11)
(347.059 5.22495e-12 -3.35505e-11)
(347.059 6.17652e-12 -3.27995e-11)
(347.059 8.63056e-12 -3.15506e-11)
(347.059 2.5615e-11 -3.11083e-11)
(347.059 -8.00267e-11 -2.4348e-11)
(347.055 -2.73262e-09 5.20943e-11)
(346.957 8.39451e-08 -3.05983e-09)
(344.594 -1.18807e-06 2.47316e-08)
(328.196 -1.74363e-05 7.2808e-07)
(318.492 8.52228e-06 -3.37727e-07)
(318.29 1.45766e-05 -6.10458e-07)
(318.281 5.08288e-06 -2.13175e-07)
(318.275 -9.80634e-06 4.20059e-07)
(318.272 -1.28111e-05 5.4848e-07)
(318.267 -1.56683e-05 6.70064e-07)
(318.264 -1.48234e-05 6.35159e-07)
(318.265 -5.3792e-06 2.36545e-07)
(318.265 1.40307e-05 -5.86545e-07)
(318.266 2.32774e-05 -9.80252e-07)
(318.276 2.24776e-05 -9.45441e-07)
(318.285 2.10151e-05 -8.8523e-07)
(318.294 1.57528e-05 -6.68609e-07)
(318.304 4.09616e-06 -1.82137e-07)
(318.316 -1.019e-05 4.24107e-07)
(318.322 -1.8241e-05 7.66575e-07)
(318.319 -2.07111e-05 8.65384e-07)
(318.315 -1.65151e-05 6.83158e-07)
(318.314 -1.27498e-05 5.27229e-07)
(318.313 -3.5599e-06 1.47989e-07)
(318.312 9.02299e-06 -3.81652e-07)
(318.313 1.56158e-05 -6.68187e-07)
(318.322 1.57432e-05 -6.70769e-07)
(318.331 1.05469e-05 -4.4191e-07)
(318.335 6.82531e-06 -2.88209e-07)
(318.341 -2.02345e-06 8.45412e-08)
(318.347 -1.05077e-05 4.64015e-07)
(318.349 -1.04309e-05 4.62034e-07)
(318.346 -6.85948e-06 2.84993e-07)
(318.344 -5.16494e-06 2.04446e-07)
(318.34 -1.14051e-06 2.73796e-08)
(318.335 9.1318e-06 -4.07538e-07)
(318.326 1.20069e-05 -5.25484e-07)
(318.321 9.865e-06 -4.09173e-07)
(318.318 8.30721e-06 -3.32179e-07)
(318.316 6.18333e-06 -2.36756e-07)
(318.315 -3.49903e-07 3.22021e-08)
(318.319 -7.27908e-06 3.18894e-07)
(318.322 -8.04592e-06 3.57707e-07)
(318.322 -6.05367e-06 2.78464e-07)
(318.32 -3.83957e-06 1.86177e-07)
(318.317 -1.21974e-07 2.52587e-08)
(318.31 2.5044e-06 -8.80937e-08)
(318.302 4.73579e-06 -1.90808e-07)
(318.297 3.7363e-06 -1.47962e-07)
(318.293 1.32915e-06 -3.84714e-08)
(318.291 -2.61212e-06 1.35001e-07)
(318.295 -6.45113e-06 2.96744e-07)
(318.303 -6.1626e-06 2.85721e-07)
(318.311 -5.29047e-06 2.41497e-07)
(318.318 -5.59822e-06 2.41468e-07)
(318.324 -2.81263e-06 1.13789e-07)
(318.33 2.9195e-06 -1.31536e-07)
(318.332 7.62809e-06 -3.21973e-07)
(318.329 8.24163e-06 -3.50884e-07)
(318.327 7.66344e-06 -3.33011e-07)
(318.326 6.62115e-06 -2.90696e-07)
(318.325 5.17649e-06 -2.37038e-07)
(318.324 -8.04043e-08 -3.42166e-08)
(318.326 -3.97408e-06 1.08253e-07)
(318.33 -4.23416e-06 1.15361e-07)
(318.331 -3.7703e-06 8.38004e-08)
(318.332 -3.07131e-06 5.04629e-08)
(318.332 -7.6848e-07 -2.84336e-08)
(318.331 2.52331e-06 -1.3543e-07)
(318.327 2.95834e-06 -1.43774e-07)
(318.324 2.66344e-06 -1.1986e-07)
(318.322 2.25227e-06 -9.26588e-08)
(318.32 7.36516e-07 -2.24718e-08)
(318.317 -2.2191e-06 1.10716e-07)
(318.316 -4.77671e-06 2.17445e-07)
(318.318 -5.00847e-06 2.25704e-07)
(318.32 -4.71994e-06 2.10921e-07)
(318.321 -4.48743e-06 2.07984e-07)
(318.323 -3.41485e-06 1.58386e-07)
(318.325 -8.59277e-07 3.45004e-08)
(318.328 2.00017e-06 -9.56273e-08)
(318.327 2.87537e-06 -1.33267e-07)
(318.326 3.03503e-06 -1.401e-07)
(318.324 2.65629e-06 -1.2419e-07)
(318.322 2.96156e-06 -1.37868e-07)
(318.319 1.97602e-06 -1.03755e-07)
(318.317 -2.55975e-07 -1.18921e-08)
(318.318 -8.13316e-07 1.13447e-08)
(318.318 -6.11283e-07 5.72979e-09)
(318.319 1.40802e-07 -2.32408e-08)
(318.32 8.79198e-07 -4.97672e-08)
(318.322 1.85168e-06 -7.33632e-08)
(318.321 3.18108e-06 -1.12684e-07)
(318.318 3.43708e-06 -1.22879e-07)
(318.316 3.24541e-06 -1.123e-07)
(318.314 2.78247e-06 -9.17347e-08)
(318.312 2.50346e-06 -8.73825e-08)
(318.311 1.89999e-06 -7.68123e-08)
(318.315 1.35262e-06 -6.1579e-08)
(318.319 7.48654e-07 -4.11241e-08)
(318.323 -1.36618e-07 -1.20678e-08)
(318.326 -5.48578e-07 2.03359e-08)
(318.329 -1.27782e-06 4.9021e-08)
(318.331 -2.20882e-06 5.98838e-08)
(318.331 -2.91263e-06 6.41335e-08)
(318.328 -3.17649e-06 6.78288e-08)
(318.327 -3.50275e-06 7.10373e-08)
(318.326 -3.58748e-06 6.68932e-08)
(318.326 -3.58664e-06 5.024e-08)
(318.326 -3.3917e-06 2.07464e-08)
(318.326 -3.98841e-06 1.62228e-08)
(318.326 -3.41197e-06 -5.65363e-09)
(318.326 -3.1963e-06 -1.25103e-08)
(318.325 -2.88753e-06 -2.12672e-08)
(318.323 -2.42847e-06 -3.06093e-08)
(318.322 -1.90877e-06 -4.68032e-08)
(318.32 -1.7803e-06 -5.41643e-08)
(318.319 -1.12906e-06 -8.59673e-08)
(318.319 -4.05806e-07 -1.20574e-07)
(318.318 -2.66674e-08 -1.27621e-07)
(318.317 6.64067e-07 -1.45152e-07)
(318.316 5.0263e-07 -1.32527e-07)
(318.317 -4.19629e-07 -9.86879e-08)
(318.317 1.86694e-06 -2.2596e-07)
(318.319 -4.28856e-06 1.56013e-08)
(318.322 2.92565e-06 -2.44253e-07)
(318.325 4.92969e-07 -1.67792e-07)
(318.328 -4.71364e-06 2.61075e-08)
(318.329 -6.51926e-07 -6.37022e-08)
(318.328 3.10965e-07 -2.47002e-07)
(318.324 4.21998e-06 -8.21874e-08)
(318.31 2.13367e-05 -8.01845e-07)
(318.297 -3.34668e-06 -2.66243e-07)
(318.299 -2.32168e-05 6.73618e-07)
(318.329 -9.70065e-05 3.80526e-06)
(318.427 2.43803e-05 -4.42935e-07)
(318.626 4.43051e-06 8.62473e-07)
(318.928 -0.00014258 2.64055e-06)
(319.306 0.000618517 -1.63242e-05)
(319.728 -0.000476255 1.23323e-05)
(320.165 0.000738512 -3.30038e-05)
(320.6 0.00026853 8.26529e-06)
(321.017 -0.000521794 -6.07006e-06)
(321.415 0.00123049 -4.095e-05)
(321.753 -0.00363041 0.000120887)
(321.984 -0.00259568 0.000112007)
(322.106 -0.00023105 4.06297e-05)
(322.149 0.00302092 -7.47086e-05)
(322.17 0.00518746 -0.000211739)
(322.181 0.00377798 -0.000190604)
(322.185 0.00109525 -7.25164e-05)
(322.174 -0.00327423 0.000100397)
(322.158 -0.00282928 0.000124366)
(322.134 -0.00274844 0.000136562)
(322.106 -0.00252813 0.000130237)
(322.082 -0.00211893 9.59454e-05)
(322.066 -0.00165101 0.000103182)
(322.053 -0.00186041 5.41956e-05)
(322.04 -0.00256193 0.000112071)
(322.017 -0.00265884 0.00013831)
(321.963 -0.00244382 0.000130086)
(321.84 -0.00193262 9.41132e-05)
(321.595 -0.00128328 0.00018444)
(321.206 -0.00107358 0.000103264)
(320.757 -0.00133075 -0.000330538)
(320.382 -0.000523518 0.000110597)
(320.121 -0.000179357 0.000489137)
(319.933 -0.000837836 0.000141042)
(319.778 -0.00147085 -0.000314328)
(319.639 -0.00141222 -0.000335755)
(319.512 -0.000864759 1.42216e-05)
(319.396 -0.000483847 0.000239824)
(319.293 -0.000455295 0.000127126)
(319.202 -0.000484525 -7.19188e-05)
(319.127 -0.000327643 -9.29379e-05)
(319.063 -0.000120054 4.16004e-05)
(319.012 -1.91317e-05 0.000155042)
(318.972 -7.92861e-05 0.000232343)
(318.94 -0.000432107 5.23013e-05)
(318.916 -0.000684524 -0.000161166)
(318.896 -0.000616453 -0.000179657)
(318.88 -0.0003973 -5.65336e-05)
(318.866 -0.000249641 2.56967e-05)
(318.852 -0.000226626 8.16454e-06)
(318.84 -0.000222692 -2.63145e-05)
(318.829 -0.000175751 -1.7824e-05)
(318.817 -9.69827e-05 3.35457e-05)
(318.806 -3.53857e-05 8.4686e-05)
(318.794 -2.66449e-05 9.63437e-05)
(318.783 -4.4329e-05 8.90629e-05)
(318.771 -8.52776e-05 6.27418e-05)
(318.759 -0.000104874 3.63814e-05)
(318.747 -9.20516e-05 1.64737e-05)
(318.734 -5.97534e-05 -4.68083e-06)
(318.721 -5.00538e-05 -3.01085e-05)
(318.708 -7.32362e-05 -4.99534e-05)
(318.699 -0.000101769 -4.83396e-05)
(318.693 -0.000119576 -2.74093e-05)
(318.69 -0.00012834 -1.40104e-05)
(318.688 -0.000128897 3.19086e-06)
(318.686 -9.71726e-05 3.46868e-05)
(318.685 -6.86911e-05 4.22224e-05)
(318.684 -4.06999e-05 3.9566e-05)
(318.683 2.80204e-05 3.65093e-05)
(318.681 0.000130611 3.47649e-05)
(318.678 0.000216478 3.1002e-05)
(318.676 0.000235903 2.3651e-05)
(318.672 0.000170548 1.4967e-05)
(318.668 6.70489e-05 8.87449e-06)
(318.664 -3.68155e-05 6.147e-06)
(318.661 -0.000100048 4.2059e-06)
(318.658 -0.000123866 3.16787e-06)
(318.654 -0.000150944 1.63307e-06)
(318.649 -0.000158054 -4.25661e-06)
(318.645 -0.000138286 -1.50677e-05)
(318.641 -0.000107087 -2.09987e-05)
(318.637 -7.92377e-05 -2.35944e-05)
(318.635 -3.76854e-05 -2.65458e-05)
(318.632 -2.27998e-05 -3.69604e-05)
(318.629 1.30893e-05 -2.78483e-05)
(318.627 2.0136e-05 -2.36638e-05)
(318.626 3.05727e-05 -1.68254e-05)
(318.625 3.74318e-05 -1.48425e-05)
(318.624 4.32349e-05 -1.4891e-05)
(318.623 5.06985e-05 -1.55113e-05)
(318.621 5.29469e-05 -1.5702e-05)
(318.619 4.40218e-05 -1.31044e-05)
(318.616 2.41074e-05 -4.87963e-06)
(318.614 -9.6921e-07 6.29103e-06)
(318.612 -2.747e-05 2.06967e-05)
(318.609 -4.84107e-05 3.91413e-05)
(318.607 -5.8294e-05 5.71562e-05)
(318.604 -5.76132e-05 6.50372e-05)
(318.601 -4.89688e-05 7.49881e-05)
(318.597 -2.62376e-05 8.49245e-05)
(318.593 4.09432e-06 8.81326e-05)
(318.588 3.26802e-05 8.33991e-05)
(318.584 4.90723e-05 7.41808e-05)
(318.581 4.85643e-05 6.26517e-05)
(318.578 2.82472e-05 4.71413e-05)
(318.576 9.28905e-06 3.10034e-05)
(318.574 -1.21241e-05 1.75858e-05)
(318.571 -4.07818e-05 4.83712e-06)
(318.567 -6.00358e-05 -8.74166e-06)
(318.564 -6.72016e-05 -2.41829e-05)
(318.56 -6.13786e-05 -4.27997e-05)
(318.556 -5.29191e-05 -5.44633e-05)
(318.554 -4.75242e-05 -6.03762e-05)
(318.551 -4.70577e-05 -6.54767e-05)
(318.548 -5.73366e-05 -6.78373e-05)
(318.543 -7.2583e-05 -6.87819e-05)
(318.539 -7.86234e-05 -7.10915e-05)
(318.535 -5.9738e-05 -7.65774e-05)
(318.531 -1.73484e-05 -8.46273e-05)
(318.528 3.80359e-05 -9.36044e-05)
(318.526 9.07215e-05 -0.000101806)
(318.524 0.000111355 -0.00010489)
(318.522 0.000131165 -0.000108641)
(318.52 0.000137827 -0.000111771)
(318.518 0.000119064 -0.000109928)
(318.517 6.89296e-05 -0.00010544)
(318.516 5.34349e-06 -9.59241e-05)
(318.515 -4.09134e-05 -8.62488e-05)
(318.515 -6.9245e-05 -7.83741e-05)
(318.515 -8.42182e-05 -6.89242e-05)
(318.515 -7.7979e-05 -6.13535e-05)
(318.514 -5.65077e-05 -5.63377e-05)
(318.512 -3.3654e-05 -5.1154e-05)
(318.51 -2.69441e-05 -4.70708e-05)
(318.508 -2.42432e-05 -4.13965e-05)
(318.507 -2.53035e-05 -3.37221e-05)
(318.507 -3.79289e-05 -2.43069e-05)
(318.507 -4.50587e-05 -1.47916e-05)
(318.507 -3.98282e-05 -6.92725e-06)
(318.505 -2.312e-05 -3.15959e-06)
(318.502 -4.08289e-06 -3.44146e-06)
(318.499 1.63212e-05 -6.30493e-06)
(318.496 3.07657e-05 -1.11594e-05)
(318.492 3.48374e-05 -1.47264e-05)
(318.489 3.64394e-05 -2.00609e-05)
(318.487 2.81766e-05 -2.68464e-05)
(318.486 4.20608e-06 -3.11907e-05)
(318.485 -2.00374e-05 -3.30238e-05)
(318.483 -3.13677e-05 -3.30937e-05)
(318.481 -3.26815e-05 -3.06239e-05)
(318.48 -3.15434e-05 -2.63184e-05)
(318.479 -1.95942e-05 -2.04265e-05)
(318.478 3.7497e-06 -1.37045e-05)
(318.477 2.24016e-05 -8.63453e-06)
(318.477 3.02414e-05 -5.86298e-06)
(318.476 3.80694e-05 -3.6055e-07)
(318.475 4.0709e-05 6.22301e-06)
(318.473 3.33595e-05 1.1463e-05)
(318.47 2.06993e-05 1.42676e-05)
(318.468 6.73306e-06 1.55022e-05)
(318.466 -6.60191e-06 1.73516e-05)
(318.463 -1.4866e-05 2.07666e-05)
(318.461 -1.51196e-05 2.49685e-05)
(318.46 -1.20975e-05 2.80478e-05)
(318.458 -9.24796e-06 3.00981e-05)
(318.456 -1.43696e-06 3.23441e-05)
(318.453 5.27891e-06 3.38414e-05)
(318.452 2.57492e-06 3.39304e-05)
(318.451 4.35373e-06 3.40876e-05)
(318.45 3.04481e-06 3.37264e-05)
(318.452 -4.63662e-06 3.20494e-05)
(318.454 -1.10611e-05 3.21283e-05)
(318.459 -1.67563e-05 3.32021e-05)
(318.464 -1.47234e-05 3.41057e-05)
(318.466 -9.23632e-06 3.66942e-05)
(318.467 -4.77541e-06 4.42071e-05)
(318.467 1.96666e-06 5.55017e-05)
(318.466 6.12632e-06 6.25562e-05)
(318.466 7.78239e-06 6.71388e-05)
(318.467 1.21843e-05 7.44413e-05)
(318.468 1.29234e-05 7.99943e-05)
(318.468 8.27053e-06 8.09362e-05)
(318.467 8.23546e-06 7.8293e-05)
(318.465 9.47451e-06 7.29332e-05)
(318.463 9.21046e-06 6.50743e-05)
(318.461 6.03974e-06 5.62126e-05)
(318.46 3.60554e-06 4.79392e-05)
(318.459 2.77877e-06 4.37056e-05)
(318.46 2.43535e-06 3.80754e-05)
(318.46 -4.0297e-06 3.29833e-05)
(318.46 -1.41692e-05 3.08227e-05)
(318.459 -1.46639e-05 2.99425e-05)
(318.458 -8.70984e-06 2.91862e-05)
(318.457 -9.54232e-06 3.02493e-05)
(318.457 -1.38568e-05 3.12803e-05)
(318.457 -1.30179e-05 2.92108e-05)
(318.458 -5.8592e-06 2.44064e-05)
(318.458 5.88967e-06 1.67276e-05)
(318.457 9.80725e-06 7.08857e-06)
(318.456 1.0059e-05 9.47348e-07)
(318.455 1.19588e-05 -8.53207e-06)
(318.454 2.04813e-05 -2.15465e-05)
(318.453 2.02517e-05 -3.52908e-05)
(318.451 3.75761e-06 -4.73846e-05)
(318.449 -7.59894e-06 -5.48667e-05)
(318.446 -8.20696e-06 -5.97941e-05)
(318.443 -1.51659e-05 -6.1415e-05)
(318.438 -2.69929e-05 -5.86042e-05)
(318.434 -3.62653e-05 -5.21274e-05)
(318.432 -3.43527e-05 -4.61155e-05)
(318.43 -3.17314e-05 -4.30088e-05)
(318.427 -3.02941e-05 -3.60683e-05)
(318.424 -2.89372e-05 -2.73001e-05)
(318.423 -6.99509e-06 -1.77186e-05)
(318.422 4.68916e-06 -7.05163e-06)
(318.421 3.07786e-06 2.86172e-06)
(318.419 -4.61467e-08 1.24993e-05)
(318.416 2.64816e-05 2.23335e-05)
(318.415 3.25908e-05 3.19333e-05)
(318.414 1.09263e-05 3.87465e-05)
(318.413 4.90978e-06 3.9073e-05)
(318.411 8.37918e-06 3.7616e-05)
(318.41 2.18045e-06 3.63727e-05)
(318.408 -7.42474e-06 3.20793e-05)
(318.405 8.41702e-06 2.38854e-05)
(318.403 1.27023e-05 1.36994e-05)
(318.401 -7.5845e-06 2.56868e-06)
(318.399 -1.21759e-05 -1.13494e-05)
(318.396 2.38868e-05 -2.65249e-05)
(318.395 2.85106e-05 -3.90812e-05)
(318.397 1.51798e-05 -5.18496e-05)
(318.401 9.79817e-06 -6.45489e-05)
(318.403 1.27153e-05 -6.93674e-05)
(318.404 4.70617e-06 -7.47118e-05)
(318.404 -1.67581e-05 -8.08911e-05)
(318.404 -1.33827e-05 -8.51585e-05)
(318.403 3.64307e-05 -9.01184e-05)
(318.404 3.88179e-05 -9.24252e-05)
(318.407 -1.02571e-05 -8.90019e-05)
(318.41 -2.78246e-05 -8.47219e-05)
(318.412 -4.70334e-06 -8.45211e-05)
(318.412 1.04787e-05 -8.17132e-05)
(318.41 -4.40104e-06 -7.61442e-05)
(318.408 -1.07639e-05 -7.06656e-05)
(318.406 -5.55147e-06 -6.71947e-05)
(318.404 6.31662e-06 -6.32616e-05)
(318.403 1.48535e-06 -5.80119e-05)
(318.404 -3.06123e-05 -5.16984e-05)
(318.403 -4.62629e-05 -4.43852e-05)
(318.4 -5.52995e-06 -4.05588e-05)
(318.397 2.34596e-05 -3.68428e-05)
(318.394 8.30825e-06 -3.17772e-05)
(318.393 -4.62807e-06 -2.76767e-05)
(318.392 -6.45373e-06 -2.48044e-05)
(318.391 -5.08619e-06 -2.35408e-05)
(318.391 -6.07414e-06 -2.2808e-05)
(318.391 -1.22877e-05 -2.15485e-05)
(318.39 -2.34472e-05 -2.03597e-05)
(318.388 -2.7978e-05 -1.96739e-05)
(318.387 1.98646e-06 -2.11932e-05)
(318.386 1.92316e-05 -2.10813e-05)
(318.386 -8.44349e-06 -1.9907e-05)
(318.386 -9.60061e-06 -1.96611e-05)
(318.388 -8.3229e-06 -1.9819e-05)
(318.39 -6.823e-06 -1.91585e-05)
(318.39 1.74123e-06 -1.97305e-05)
(318.388 -7.4794e-06 -1.92818e-05)
(318.386 -1.23654e-05 -1.83453e-05)
(318.385 2.95418e-05 -1.98747e-05)
(318.384 5.23352e-05 -1.99593e-05)
(318.383 -2.4092e-05 -1.57063e-05)
(318.382 -8.99586e-05 -1.15702e-05)
(318.381 1.38233e-05 -1.45626e-05)
(318.379 7.39058e-05 -1.60091e-05)
(318.375 2.72927e-05 -1.42561e-05)
(318.372 9.65073e-06 -1.29294e-05)
(318.371 2.94618e-05 -1.30084e-05)
(318.371 2.82376e-05 -1.28901e-05)
(318.37 -1.37331e-06 -1.15164e-05)
(318.369 -5.13221e-05 -8.32858e-06)
(318.37 -1.79058e-05 -8.56868e-06)
(318.371 2.24012e-05 -9.62585e-06)
(318.371 -4.01674e-06 -7.29761e-06)
(318.37 -3.7064e-05 -5.29267e-06)
(318.371 -3.86352e-06 -6.14946e-06)
(318.372 1.74433e-05 -4.23255e-06)
(318.372 2.1599e-05 -3.62823e-06)
(318.372 2.83103e-05 -3.46448e-06)
(318.373 2.80048e-05 -3.02822e-06)
(318.376 -9.04425e-06 -1.54836e-06)
(318.377 -6.36808e-05 -1.82226e-06)
(318.376 -9.25223e-05 -1.07697e-07)
(318.375 -7.77595e-05 -1.15488e-06)
(318.375 -3.46872e-05 -2.9299e-06)
(318.374 5.04864e-05 1.74862e-06)
(318.372 4.60357e-05 1.00293e-05)
(318.37 -4.11963e-06 2.11299e-05)
(318.369 3.81152e-05 2.77977e-05)
(318.368 5.37638e-05 2.9856e-05)
(318.366 7.45353e-05 3.50116e-05)
(318.361 4.67296e-05 4.18917e-05)
(318.36 -5.94953e-05 6.64045e-05)
(318.358 -0.000214908 6.3953e-05)
(318.357 -0.000203317 7.0203e-05)
(318.355 1.60815e-05 7.59251e-05)
(318.355 5.76104e-05 7.28339e-05)
(318.355 -5.26593e-05 8.6251e-05)
(318.355 -6.63141e-05 8.61239e-05)
(318.35 5.64914e-05 5.89324e-05)
(318.346 9.11977e-05 3.73556e-05)
(318.343 0.000185954 9.69699e-06)
(318.342 0.000214221 -2.20363e-05)
(318.339 0.000184491 1.34282e-05)
(318.335 0.000278489 4.19924e-05)
(318.334 0.000252444 4.23069e-05)
(318.334 -0.000172333 0.000162086)
(318.329 -9.94391e-05 0.000171275)
(318.322 -6.95432e-05 8.37252e-05)
(318.32 -0.000262894 5.9221e-05)
(318.318 -0.000608303 -1.16354e-05)
(318.32 -0.00120625 -9.9827e-05)
(318.325 -0.00176571 -0.000259998)
(318.33 -0.00150639 -0.000528212)
(318.329 -0.000904295 -0.000712832)
(318.329 -0.000610905 -0.000647822)
(318.325 -0.000618594 -0.000301512)
(318.325 -0.000707779 0.000587502)
(318.326 -0.00166644 0.00207694)
(318.328 -0.00412475 0.00397971)
(318.329 -0.00678384 0.00496122)
(318.333 -0.0126819 0.00399411)
(318.34 -0.0207989 0.00119989)
(318.348 -0.0329252 -0.00299703)
(318.355 -0.0479964 -0.00483304)
(318.365 -0.0651958 -0.00443421)
(318.386 -0.0890913 0.000610624)
(318.405 -0.114469 0.00637886)
(318.435 -0.140214 0.00882348)
(318.464 -0.171482 0.00561494)
(318.509 -0.20343 -0.005474)
(318.558 -0.222202 -0.020088)
(318.607 -0.227997 -0.0295387)
(318.657 -0.224408 -0.0263639)
(318.707 -0.193261 -0.00936523)
(318.744 -0.134949 0.017131)
(318.771 -0.0534319 0.0375243)
(318.784 0.0364117 0.0409551)
(318.783 0.141466 0.0274203)
(318.762 0.262905 -0.00297863)
(318.714 0.350745 -0.0449647)
(318.642 0.400494 -0.0849629)
(318.567 0.414737 -0.105563)
(318.491 0.368175 -0.0936358)
(318.345 0.26567 -0.0593346)
(318.297 0.156143 -0.0268497)
(318.427 0.0861735 -0.0105618)
(318.355 0.0537663 -0.00537764)
(318.205 0.0426365 -0.00403086)
(318.179 0.0385476 -0.00355071)
(318.174 0.0354884 -0.00300966)
(318.178 0.0309745 -0.00213169)
(318.198 0.0242105 -0.000906295)
(318.237 0.0221586 -0.000416518)
(318.289 0.0158437 0.000467175)
(318.343 0.00916554 0.00139949)
(318.352 0.00554165 0.00190507)
(318.31 0.00454264 0.00201147)
(318.265 0.00308276 0.00211415)
(318.214 0.00170692 0.00214459)
(318.176 0.000733354 0.00210686)
(318.168 0.000264734 0.00206262)
(318.173 7.22652e-05 0.00201802)
(318.196 -0.00011901 0.00194183)
(318.24 -0.000261795 0.00185051)
(318.283 -0.000346311 0.00175273)
(318.305 -0.000406896 0.00166562)
(318.313 -0.000459277 0.001602)
(318.308 -0.000505852 0.00151278)
(318.283 -0.000521249 0.00141325)
(318.243 -0.000517469 0.00129571)
(318.213 -0.000467605 0.00115034)
(318.208 -0.000398154 0.00103717)
(318.209 -0.000340647 0.000927303)
(318.22 -0.000286731 0.000792532)
(318.243 -0.000237535 0.000672692)
(318.272 -0.000185308 0.000554153)
(318.288 -0.000148832 0.00044226)
(318.288 -0.000151132 0.000372627)
(318.283 -0.000162896 0.000302734)
(318.268 -0.000172406 0.000219714)
(318.242 -0.000184348 0.000142333)
(318.216 -0.000203513 7.31248e-05)
(318.204 -0.000225464 1.60117e-05)
(318.204 -0.000242081 -2.10697e-05)
(318.209 -0.000261716 -5.52699e-05)
(318.219 -0.000291414 -0.000100646)
(318.235 -0.00030208 -0.00014889)
(318.247 -0.000280156 -0.000200579)
(318.249 -0.000242187 -0.000237858)
(318.247 -0.000171327 -0.000278453)
(318.24 -1.66356e-05 -0.000331179)
(318.226 0.000215775 -0.000377795)
(318.21 0.000532884 -0.000415312)
(318.203 0.000880548 -0.000440008)
(318.202 0.00110108 -0.00044957)
(318.203 0.00141217 -0.000454002)
(318.21 0.00169648 -0.000445305)
(318.221 0.00187369 -0.000427146)
(318.23 0.00185824 -0.00041096)
(318.231 0.00168639 -0.000405838)
(318.23 0.00137091 -0.000410722)
(318.225 0.000691714 -0.00044375)
(318.216 -0.000307087 -0.000518762)
(318.205 -0.00158172 -0.00063243)
(318.196 -0.00308908 -0.00078101)
(318.194 -0.00450887 -0.000927055)
(318.196 -0.00546272 -0.00102402)
(318.2 -0.00685522 -0.00116936)
(318.206 -0.00802415 -0.00128708)
(318.211 -0.00867887 -0.0013418)
(318.213 -0.00873487 -0.00132416)
(318.213 -0.00847747 -0.00125123)
(318.211 -0.00763746 -0.000991012)
(318.205 -0.00596366 -0.000275424)
(318.196 -0.00335532 0.00106194)
(318.189 -0.000169393 0.00285397)
(318.185 0.00218783 0.00425297)
(318.183 0.00497348 0.00599682)
(318.182 0.00764675 0.00767492)
(318.183 0.00982729 0.00910166)
(318.185 0.0109811 0.0100791)
(318.187 0.0110554 0.0107182)
(318.188 0.0102883 0.0111633)
(318.186 0.00847086 0.0116166)
(318.182 0.00568755 0.0120931)
(318.179 0.0024954 0.0124269)
(318.176 -0.000121932 0.0127054)
(318.174 -0.00193588 0.0128105)
(318.174 -0.00277773 0.0128572)
(318.179 -0.00319322 0.0126869)
(318.187 -0.00346527 0.0125938)
(318.193 -0.00368455 0.0125141)
(318.196 -0.00373348 0.0124793)
(318.197 -0.00368544 0.012443)
(318.197 -0.00348889 0.0120894)
(318.195 -0.00310428 0.0111473)
(318.192 -0.00256269 0.0100868)
(318.187 -0.00178966 0.00935753)
(318.183 -0.000875506 0.00829654)
(318.18 -0.000214745 0.00676116)
(318.18 0.000182375 0.00525612)
(318.181 0.000387795 0.00414687)
(318.183 0.00048675 0.00344313)
(318.185 0.000523885 0.003039)
(318.186 0.000520813 0.00280956)
(318.185 0.000495299 0.00264833)
(318.183 0.000441256 0.00248649)
(318.179 0.000362272 0.00232749)
(318.174 0.000269059 0.00216033)
(318.171 0.000179294 0.0019866)
(318.171 0.00010771 0.00182146)
(318.173 6.25957e-05 0.00170412)
(318.175 8.43802e-06 0.00155019)
(318.178 -5.00647e-05 0.00135381)
(318.181 -8.83531e-05 0.00118796)
(318.183 -0.000108065 0.00107131)
(318.184 -0.000114033 0.00099946)
(318.184 -0.0001183 0.000932585)
(318.182 -0.000115521 0.000868176)
(318.18 -0.000111149 0.000809854)
(318.176 -0.000106741 0.000763718)
(318.175 -9.74947e-05 0.000696781)
(318.175 -8.93389e-05 0.000623325)
(318.175 -8.50036e-05 0.000571825)
(318.174 -7.81462e-05 0.000527445)
(318.171 -6.6123e-05 0.000476828)
(318.166 -4.9788e-05 0.000433535)
(318.159 -3.76482e-05 0.000344065)
(318.153 -2.41388e-05 0.000297533)
(318.146 -1.50032e-05 0.000261137)
(318.149 -8.84354e-06 0.000212731)
(318.232 -1.64645e-05 0.000187785)
(318.639 0.000173607 0.000257631)
(319.556 -0.000750755 -0.000242287)
(320.885 0.00139713 0.00106837)
(322.449 -0.00149356 -0.000992507)
(324.136 0.00195421 0.000481969)
(325.887 -0.0025651 0.00102534)
(327.684 0.00259829 -0.000268482)
(329.509 -0.000742731 -0.0028529)
(331.358 -0.00041866 0.00440339)
(333.222 -0.00133902 0.000882949)
(335.101 0.00473026 -0.00648451)
(336.99 -0.00261684 0.00157173)
(338.892 -0.00204874 0.0098981)
(340.8 0.00117681 -0.00778822)
(342.715 0.00513299 -0.00993142)
(344.635 -0.00380196 0.0131276)
(346.564 -0.00365859 0.00931994)
(348.493 0.0023233 -0.0199311)
(350.425 0.00749455 -0.00689312)
(352.36 -0.00418721 0.0242412)
(354.301 -0.00711399 0.00537228)
(356.242 0.00283821 -0.029356)
(358.183 0.0107201 -0.00493522)
(360.128 -0.00418232 0.0317584)
(362.078 -0.0108369 0.00637045)
(364.029 0.00273835 -0.0348983)
(365.977 0.0132816 -0.0103534)
(367.929 -0.00435958 0.0343631)
(369.886 -0.0109304 0.0165567)
(371.84 0.00357509 -0.0327945)
(373.793 0.0103429 -0.0239611)
(375.743 -0.00665844 0.0259412)
(377.703 -0.00602049 0.0310161)
(379.648 0.00655601 -0.0167977)
(381.601 0.00526372 -0.0347164)
(383.542 -0.0107043 0.00484648)
(385.494 -0.001024 0.0337416)
(387.419 0.00922761 0.00519617)
(389.347 0.00266311 -0.0263846)
(391.246 -0.00926071 -0.00865284)
(393.167 -7.5686e-05 0.0114019)
(395.25 -0.0012254 0.00646266)
(399.004 -0.00341033 0.00208059)
(347.059 1.51735e-11 -4.85835e-11)
(347.059 1.80056e-11 -5.14143e-11)
(347.059 1.86864e-11 -5.08645e-11)
(347.059 2.20256e-11 -4.96303e-11)
(347.059 1.57496e-11 -4.52334e-11)
(347.059 3.90718e-12 -4.37692e-11)
(347.059 -6.68637e-12 -4.31937e-11)
(347.059 -1.66219e-11 -4.20473e-11)
(347.059 -2.36387e-11 -4.41269e-11)
(347.059 -2.56312e-11 -4.42354e-11)
(347.059 -2.38445e-11 -4.30051e-11)
(347.059 -1.91703e-11 -4.30496e-11)
(347.059 -1.0763e-11 -4.21945e-11)
(347.059 -7.63086e-12 -4.03403e-11)
(347.059 -4.10217e-12 -4.19119e-11)
(347.059 -2.57061e-12 -4.13124e-11)
(347.059 -2.41148e-12 -4.09545e-11)
(347.059 -2.34806e-12 -4.0503e-11)
(347.059 -5.72251e-13 -4.00507e-11)
(347.059 2.09421e-12 -3.94408e-11)
(347.059 3.85168e-12 -3.70606e-11)
(347.059 4.44828e-12 -3.55283e-11)
(347.059 7.41159e-12 -3.44131e-11)
(347.059 1.22562e-11 -3.40306e-11)
(347.059 1.89641e-11 -3.50183e-11)
(347.059 2.54466e-11 -3.45027e-11)
(347.059 2.48081e-11 -3.47458e-11)
(347.059 1.92076e-11 -3.51847e-11)
(347.059 1.33554e-11 -3.46122e-11)
(347.059 6.15964e-12 -3.39011e-11)
(347.059 4.0351e-12 -3.29557e-11)
(347.059 5.55727e-12 -3.24713e-11)
(347.059 7.67385e-12 -3.19913e-11)
(347.059 2.45965e-11 -3.22824e-11)
(347.059 -7.92272e-11 -2.56405e-11)
(347.055 -2.62434e-09 5.4081e-11)
(346.957 8.33866e-08 -3.15694e-09)
(344.594 -1.2351e-06 2.97454e-08)
(328.196 -1.60391e-05 6.736e-07)
(318.492 7.82243e-06 -3.11658e-07)
(318.29 1.34654e-05 -5.6573e-07)
(318.281 4.68582e-06 -1.96715e-07)
(318.275 -9.31413e-06 3.9982e-07)
(318.272 -1.22062e-05 5.23026e-07)
(318.267 -1.49695e-05 6.40297e-07)
(318.264 -1.41084e-05 6.03465e-07)
(318.265 -5.00712e-06 2.17393e-07)
(318.265 1.33879e-05 -5.63588e-07)
(318.266 2.20316e-05 -9.31459e-07)
(318.276 2.117e-05 -8.94337e-07)
(318.285 1.97422e-05 -8.3565e-07)
(318.294 1.47097e-05 -6.28331e-07)
(318.304 3.68306e-06 -1.68264e-07)
(318.316 -9.9747e-06 4.12161e-07)
(318.322 -1.78293e-05 7.48275e-07)
(318.319 -2.0245e-05 8.47908e-07)
(318.315 -1.60949e-05 6.71319e-07)
(318.314 -1.24676e-05 5.21063e-07)
(318.313 -3.74846e-06 1.58664e-07)
(318.312 8.2991e-06 -3.46697e-07)
(318.313 1.47519e-05 -6.27557e-07)
(318.322 1.49064e-05 -6.35432e-07)
(318.331 9.77737e-06 -4.14562e-07)
(318.335 6.16954e-06 -2.66361e-07)
(318.341 -2.28903e-06 8.88852e-08)
(318.347 -1.05178e-05 4.60777e-07)
(318.349 -1.04806e-05 4.64506e-07)
(318.346 -6.9637e-06 2.95338e-07)
(318.344 -5.29315e-06 2.17112e-07)
(318.34 -1.41936e-06 4.67308e-08)
(318.335 8.48951e-06 -3.76429e-07)
(318.326 1.11789e-05 -4.87724e-07)
(318.321 9.26143e-06 -3.77387e-07)
(318.318 7.85799e-06 -3.04231e-07)
(318.316 5.87277e-06 -2.11942e-07)
(318.315 -2.57977e-07 3.88834e-08)
(318.319 -6.59631e-06 2.93337e-07)
(318.322 -7.2646e-06 3.25522e-07)
(318.322 -5.21672e-06 2.41153e-07)
(318.32 -3.01948e-06 1.47567e-07)
(318.317 6.23063e-07 -1.05873e-08)
(318.31 3.15552e-06 -1.20962e-07)
(318.302 5.30759e-06 -2.21548e-07)
(318.297 4.14967e-06 -1.69611e-07)
(318.293 1.60635e-06 -5.25026e-08)
(318.291 -2.41168e-06 1.26394e-07)
(318.295 -6.25992e-06 2.90073e-07)
(318.303 -6.03533e-06 2.83312e-07)
(318.311 -5.27551e-06 2.43291e-07)
(318.318 -5.55951e-06 2.39383e-07)
(318.324 -2.85548e-06 1.15225e-07)
(318.33 2.77474e-06 -1.26593e-07)
(318.332 7.45197e-06 -3.17206e-07)
(318.329 8.09168e-06 -3.47738e-07)
(318.327 7.55862e-06 -3.31258e-07)
(318.326 6.59152e-06 -2.92254e-07)
(318.325 5.21547e-06 -2.48305e-07)
(318.324 1.28993e-07 -4.76536e-08)
(318.326 -3.75594e-06 9.95723e-08)
(318.33 -4.07637e-06 1.1165e-07)
(318.331 -3.74501e-06 8.81996e-08)
(318.332 -3.16869e-06 6.12256e-08)
(318.332 -1.02349e-06 -1.22066e-08)
(318.331 2.13268e-06 -1.12292e-07)
(318.327 2.57314e-06 -1.21734e-07)
(318.324 2.35293e-06 -1.02716e-07)
(318.322 2.0561e-06 -8.17409e-08)
(318.32 7.41752e-07 -2.07839e-08)
(318.317 -1.91528e-06 9.80046e-08)
(318.316 -4.22657e-06 1.94351e-07)
(318.318 -4.4137e-06 2.00371e-07)
(318.32 -4.15582e-06 1.86558e-07)
(318.321 -3.97825e-06 1.84485e-07)
(318.323 -3.00734e-06 1.38648e-07)
(318.325 -7.10307e-07 2.61113e-08)
(318.328 1.78994e-06 -8.93275e-08)
(318.327 2.52444e-06 -1.21813e-07)
(318.326 2.64503e-06 -1.28797e-07)
(318.324 2.29388e-06 -1.13772e-07)
(318.322 2.67533e-06 -1.33077e-07)
(318.319 1.66577e-06 -1.06403e-07)
(318.317 -4.34455e-07 -1.09698e-08)
(318.318 -9.25188e-07 1.3877e-08)
(318.318 -7.02274e-07 7.87342e-09)
(318.319 5.42064e-08 -1.69597e-08)
(318.32 8.19142e-07 -3.88679e-08)
(318.322 1.7547e-06 -6.15542e-08)
(318.321 2.99369e-06 -1.00173e-07)
(318.318 3.22503e-06 -1.10463e-07)
(318.316 3.09924e-06 -1.04828e-07)
(318.314 2.70849e-06 -8.92857e-08)
(318.312 2.47734e-06 -8.83542e-08)
(318.311 1.99048e-06 -8.13911e-08)
(318.315 1.48618e-06 -6.87767e-08)
(318.319 8.72093e-07 -4.77499e-08)
(318.323 1.00671e-08 -8.44623e-09)
(318.326 -4.46354e-07 1.54612e-08)
(318.329 -1.17055e-06 4.16119e-08)
(318.331 -2.02739e-06 5.75454e-08)
(318.331 -2.68207e-06 6.90688e-08)
(318.328 -2.9548e-06 7.47896e-08)
(318.327 -3.36296e-06 8.65574e-08)
(318.326 -3.53346e-06 9.00457e-08)
(318.326 -3.54497e-06 7.32861e-08)
(318.326 -3.3118e-06 5.43636e-08)
(318.326 -4.25548e-06 6.29579e-08)
(318.326 -3.46557e-06 1.36145e-08)
(318.326 -3.19894e-06 3.51467e-09)
(318.325 -2.80974e-06 -1.00517e-08)
(318.323 -2.22715e-06 -2.84215e-08)
(318.322 -1.62656e-06 -4.90646e-08)
(318.32 -1.48661e-06 -5.74877e-08)