/*--------------------------------*- C++ -*----------------------------------*\
| =========                 |                                                 |
| \\      /  F ield         | OpenFOAM: The Open Source CFD Toolbox           |
|  \\    /   O peration     | Version:  2406                                  |
|   \\  /    A nd           | Website:  www.openfoam.com                      |
|    \\/     M anipulation  |                                                 |
\*---------------------------------------------------------------------------*/
FoamFile
{
    version     2.0;
    format      ascii;
    arch        "LSB;label=32;scalar=64";
    class       volScalarField;
    location    "0.03";
    object      Ma;
}
// * * * * * * * * * * * * * * * * * * * * * * * * * * * * * * * * * * * * * //

dimensions      [0 0 0 0 0 0 0];

internalField   nonuniform List<scalar> 
13948
(
8.16852e-14
1.05758e-13
1.12087e-13
1.17305e-13
8.96798e-14
8.44601e-14
9.40759e-14
8.89385e-14
1.0872e-13
1.32736e-13
1.44655e-13
1.74583e-13
1.78604e-13
1.93256e-13
2.02639e-13
1.70807e-13
1.44247e-13
1.48474e-13
1.4567e-13
1.4598e-13
1.41311e-13
1.36524e-13
1.25667e-13
1.18804e-13
1.25403e-13
9.06204e-14
6.56363e-14
7.49234e-14
6.47869e-14
8.63134e-14
7.83486e-14
9.4938e-14
1.1209e-13
1.10868e-13
9.49265e-14
7.57221e-14
8.65259e-14
7.23291e-14
9.15941e-14
8.98152e-14
1.08977e-13
1.20768e-13
1.38984e-13
1.58061e-13
1.49724e-13
1.28179e-13
1.02545e-13
9.6722e-14
1.25856e-13
7.64177e-14
4.98192e-14
5.38815e-14
5.019e-14
6.25193e-14
6.37435e-14
8.18107e-14
8.70708e-14
9.57034e-14
1.03423e-13
1.06746e-13
1.04848e-13
8.24195e-14
5.00778e-14
5.29098e-14
3.32351e-14
3.25448e-14
4.17119e-14
5.73408e-14
3.71807e-14
6.22958e-14
7.18512e-14
4.84093e-14
5.76127e-14
7.07209e-14
7.9336e-14
6.77135e-14
6.35231e-14
6.02166e-14
7.37909e-14
9.55076e-14
9.19783e-14
1.00584e-13
8.35249e-14
6.83874e-14
7.96506e-14
9.17403e-14
1.06829e-13
1.15642e-13
9.57178e-14
8.83479e-14
7.66862e-14
6.80971e-14
5.3985e-14
6.47251e-14
7.81124e-14
7.74872e-14
5.91489e-14
8.18564e-14
7.23049e-14
5.16679e-14
7.48698e-14
9.85706e-14
1.09192e-13
1.07692e-13
8.70685e-14
8.62609e-14
9.73668e-14
9.0481e-14
1.05726e-13
1.27429e-13
1.40009e-13
1.62814e-13
1.73072e-13
1.79532e-13
1.8664e-13
1.59116e-13
1.4186e-13
1.4729e-13
1.39647e-13
1.42469e-13
1.31456e-13
1.27075e-13
1.25136e-13
1.16003e-13
1.16493e-13
9.19462e-14
6.84223e-14
7.92337e-14
6.6402e-14
9.21395e-14
8.33277e-14
8.94104e-14
1.07766e-13
1.03294e-13
7.93588e-14
7.3072e-14
9.15394e-14
6.86171e-14
9.4472e-14
9.03012e-14
1.11829e-13
1.18476e-13
1.41839e-13
1.50114e-13
1.40209e-13
1.23561e-13
9.62934e-14
8.64037e-14
9.98064e-14
7.54657e-14
5.50073e-14
5.18189e-14
5.06439e-14
6.87225e-14
6.42905e-14
8.35446e-14
8.84607e-14
8.45206e-14
9.87866e-14
9.92158e-14
9.96043e-14
8.09995e-14
6.23209e-14
4.68631e-14
3.29283e-14
3.52326e-14
4.18863e-14
5.2828e-14
3.83285e-14
6.2271e-14
6.86264e-14
4.2486e-14
5.29445e-14
5.88301e-14
6.97907e-14
6.47765e-14
6.03934e-14
5.75078e-14
6.59727e-14
8.06176e-14
8.25188e-14
8.38889e-14
7.59623e-14
7.18202e-14
7.92806e-14
9.36366e-14
1.03906e-13
1.03546e-13
8.86376e-14
7.93961e-14
7.15772e-14
6.46119e-14
5.58947e-14
6.70072e-14
7.23347e-14
6.90292e-14
6.18463e-14
7.07907e-14
6.52714e-14
2.8359e-14
3.06458e-14
3.40207e-14
2.44296e-14
1.59515e-14
1.44398e-14
1.93273e-14
3.29415e-14
4.37056e-14
5.60939e-14
6.66556e-14
7.89345e-14
9.02082e-14
8.99575e-14
8.1405e-14
8.48299e-14
9.64135e-14
8.95024e-14
1.00741e-13
1.16861e-13
1.30603e-13
1.41724e-13
1.58233e-13
1.57058e-13
1.52241e-13
1.41788e-13
1.34149e-13
1.3227e-13
1.29453e-13
1.17317e-13
1.1922e-13
1.17363e-13
1.15903e-13
1.06861e-13
9.29281e-14
8.37018e-14
6.70867e-14
7.19489e-14
6.91849e-14
7.34234e-14
8.34289e-14
8.80496e-14
9.15104e-14
8.11951e-14
7.82321e-14
6.22635e-14
7.15863e-14
6.04702e-14
7.81313e-14
8.61781e-14
1.05042e-13
1.13754e-13
1.32317e-13
1.31957e-13
1.20774e-13
1.14788e-13
9.48184e-14
7.67373e-14
7.61168e-14
6.64991e-14
5.4402e-14
5.45944e-14
5.52333e-14
6.0994e-14
6.30243e-14
7.67213e-14
8.45549e-14
7.31972e-14
8.15209e-14
8.76833e-14
9.23361e-14
8.07272e-14
6.36387e-14
4.63451e-14
4.39194e-14
4.61024e-14
4.48556e-14
4.81947e-14
5.57248e-14
6.62991e-14
6.50878e-14
5.28406e-14
5.47638e-14
6.17935e-14
6.52996e-14
6.62036e-14
6.54676e-14
6.29989e-14
6.31555e-14
6.77162e-14
7.15821e-14
6.77086e-14
6.76445e-14
7.3374e-14
7.27204e-14
8.76693e-14
9.75223e-14
8.76159e-14
7.61698e-14
7.50439e-14
7.50413e-14
6.62725e-14
4.93304e-14
6.16993e-14
7.95228e-14
7.22694e-14
6.94333e-14
6.84651e-14
6.5086e-14
2.46602e-14
2.02374e-14
2.79626e-14
3.72127e-14
4.3559e-14
5.12081e-14
6.00699e-14
7.13091e-14
5.56024e-14
3.3338e-14
2.24958e-14
2.97775e-14
3.16702e-14
3.00803e-14
2.45289e-14
3.06519e-14
3.60401e-14
3.88699e-14
3.11625e-14
2.23025e-14
2.87065e-14
2.80883e-14
2.52166e-14
3.15061e-14
4.76971e-14
6.5336e-14
4.69458e-14
3.38119e-14
4.02271e-14
3.75848e-14
3.58177e-14
2.85784e-14
2.39042e-14
1.64059e-14
1.94253e-14
2.19379e-14
1.90813e-14
1.27125e-14
1.04377e-14
1.8965e-14
2.7809e-14
4.35971e-14
6.30394e-14
7.10565e-14
6.93236e-14
8.80898e-14
9.09998e-14
7.88736e-14
8.36634e-14
9.55519e-14
9.42985e-14
1.06239e-13
1.16906e-13
1.24749e-13
1.31799e-13
1.39182e-13
1.39816e-13
1.30458e-13
1.21086e-13
1.19724e-13
1.17734e-13
1.12307e-13
1.13528e-13
1.22685e-13
1.25432e-13
1.20143e-13
1.08946e-13
9.3438e-14
8.63872e-14
7.16247e-14
7.52384e-14
7.34657e-14
6.92241e-14
8.31139e-14
9.39223e-14
9.0485e-14
7.8947e-14
6.91958e-14
6.35127e-14
6.50132e-14
6.7709e-14
8.09299e-14
9.33057e-14
1.05693e-13
1.14308e-13
1.21e-13
1.20793e-13
1.15954e-13
1.0282e-13
8.30675e-14
5.92824e-14
5.90067e-14
4.78648e-14
4.31344e-14
5.42553e-14
5.4668e-14
5.45316e-14
5.66581e-14
6.60289e-14
7.39271e-14
6.84189e-14
6.61866e-14
7.3911e-14
7.73336e-14
7.07236e-14
6.38608e-14
5.62102e-14
5.56405e-14
4.3388e-14
4.0197e-14
4.83545e-14
5.34205e-14
5.59238e-14
5.69199e-14
5.31635e-14
5.25546e-14
5.82891e-14
5.68203e-14
5.21008e-14
5.77258e-14
5.85592e-14
5.20341e-14
5.327e-14
5.32882e-14
5.57984e-14
6.52426e-14
7.08458e-14
6.48786e-14
6.72192e-14
8.11852e-14
6.98731e-14
6.4738e-14
7.65482e-14
7.70767e-14
6.92369e-14
5.27408e-14
4.81778e-14
7.37035e-14
8.0764e-14
7.60179e-14
6.29729e-14
6.89181e-14
4.66733e-14
3.84648e-14
3.51514e-14
3.07086e-14
3.56455e-14
3.89764e-14
4.48322e-14
4.62954e-14
5.79974e-14
6.34615e-14
4.97486e-14
3.49373e-14
3.118e-14
2.92991e-14
3.45493e-14
3.44456e-14
3.28686e-14
3.21838e-14
3.38222e-14
3.34181e-14
3.63271e-14
3.49588e-14
3.04676e-14
2.96127e-14
2.69468e-14
3.32415e-14
5.0842e-14
5.79981e-14
4.99877e-14
3.93101e-14
3.97821e-14
4.59939e-14
3.53995e-14
2.85192e-14
2.22185e-14
2.08923e-14
2.18852e-14
2.05974e-14
1.75054e-14
1.52185e-14
1.92901e-14
1.78884e-14
2.4974e-14
3.16271e-14
5.01578e-14
6.36541e-14
5.7804e-14
7.97578e-14
8.02149e-14
6.89049e-14
7.5638e-14
9.40988e-14
9.84286e-14
1.02698e-13
1.04379e-13
1.10887e-13
1.04141e-13
1.0699e-13
1.05527e-13
9.82804e-14
9.50409e-14
9.80459e-14
9.10662e-14
8.41825e-14
9.84316e-14
1.08848e-13
1.13388e-13
1.13469e-13
9.83865e-14
8.81787e-14
7.22046e-14
7.19097e-14
6.89401e-14
6.66155e-14
7.13631e-14
7.30337e-14
8.39112e-14
7.78205e-14
7.50086e-14
5.69699e-14
6.37865e-14
5.91206e-14
6.28578e-14
7.74705e-14
9.4206e-14
1.09456e-13
1.14227e-13
1.05731e-13
9.90128e-14
9.72569e-14
8.33052e-14
6.11247e-14
4.29051e-14
4.30743e-14
3.45313e-14
2.57253e-14
3.29629e-14
3.92049e-14
5.21034e-14
5.54056e-14
5.55375e-14
5.04952e-14
5.25595e-14
4.95238e-14
5.78932e-14
5.14922e-14
4.47435e-14
4.24225e-14
4.46927e-14
4.05154e-14
3.21504e-14
2.24065e-14
3.22161e-14
3.1253e-14
3.0293e-14
3.13314e-14
3.40746e-14
3.70689e-14
4.30827e-14
3.41221e-14
3.60574e-14
4.37219e-14
3.96727e-14
3.79252e-14
3.57505e-14
3.83014e-14
5.33019e-14
5.7473e-14
6.76681e-14
5.43234e-14
4.60842e-14
5.64666e-14
4.17308e-14
4.71783e-14
6.35616e-14
6.2011e-14
5.62888e-14
5.74696e-14
6.11878e-14
7.57223e-14
7.5833e-14
6.90667e-14
5.71532e-14
7.12377e-14
5.98632e-14
5.63545e-14
5.05303e-14
5.0633e-14
4.84319e-14
4.93226e-14
5.47651e-14
5.65544e-14
5.16501e-14
6.36319e-14
6.31454e-14
6.01017e-14
4.91052e-14
4.79818e-14
4.50681e-14
4.96593e-14
4.66637e-14
4.51493e-14
4.35491e-14
4.24528e-14
4.32476e-14
4.63033e-14
4.73877e-14
3.79512e-14
4.06614e-14
4.03363e-14
4.89349e-14
6.05635e-14
5.87365e-14
5.66104e-14
4.65769e-14
4.37551e-14
4.48006e-14
3.79605e-14
3.87084e-14
3.38559e-14
3.29201e-14
2.90762e-14
3.06254e-14
2.98575e-14
2.96103e-14
3.03537e-14
2.20303e-14
2.68605e-14
2.46184e-14
2.96957e-14
4.91157e-14
3.69992e-14
6.18358e-14
6.21975e-14
5.58491e-14
6.12745e-14
7.40183e-14
7.64366e-14
8.33189e-14
8.08154e-14
8.77687e-14
7.40227e-14
7.62809e-14
7.39226e-14
7.0084e-14
6.77212e-14
7.01551e-14
6.17106e-14
6.03824e-14
6.80236e-14
7.98182e-14
8.09403e-14
8.40381e-14
7.37123e-14
6.06446e-14
4.93363e-14
5.07047e-14
5.67564e-14
5.53345e-14
5.55928e-14
6.26675e-14
7.12672e-14
6.87306e-14
5.85527e-14
4.42355e-14
5.24164e-14
5.25035e-14
4.19492e-14
6.26498e-14
7.57719e-14
9.29575e-14
9.51482e-14
8.53994e-14
7.3346e-14
6.85607e-14
6.37479e-14
4.88015e-14
2.92882e-14
2.6317e-14
2.22958e-14
1.36762e-14
1.45364e-14
4.39354e-14
6.34536e-14
6.81562e-14
5.71967e-14
4.88689e-14
4.74156e-14
4.37681e-14
4.56355e-14
3.23955e-14
2.95491e-14
2.41418e-14
2.52109e-14
2.19728e-14
1.81778e-14
1.17715e-14
8.35799e-15
7.21721e-15
9.5662e-15
9.92669e-15
1.33273e-14
1.83755e-14
2.99331e-14
1.69801e-14
3.0829e-14
2.78781e-14
2.10922e-14
2.34472e-14
1.78945e-14
3.44251e-14
3.76228e-14
3.83623e-14
4.38167e-14
4.39063e-14
3.012e-14
3.64359e-14
2.14705e-14
3.57525e-14
4.57192e-14
4.52883e-14
5.09788e-14
5.62539e-14
6.56143e-14
7.00723e-14
7.43976e-14
6.21915e-14
5.99528e-14
6.95365e-14
4.40377e-14
4.36331e-14
4.50807e-14
4.7799e-14
4.97458e-14
3.66837e-14
4.56048e-14
4.83131e-14
5.30387e-14
5.60001e-14
6.79124e-14
5.61376e-14
4.79184e-14
4.46219e-14
4.50127e-14
4.32788e-14
4.74388e-14
4.11687e-14
3.97453e-14
3.86154e-14
3.69584e-14
3.01176e-14
3.29799e-14
3.72808e-14
3.70435e-14
3.81589e-14
4.9281e-14
5.26545e-14
5.79546e-14
4.597e-14
3.74471e-14
3.29468e-14
3.09012e-14
2.84717e-14
3.00215e-14
2.89265e-14
2.90442e-14
3.30059e-14
2.94418e-14
2.7965e-14
2.64248e-14
2.83069e-14
2.07451e-14
2.78059e-14
1.61665e-14
1.45111e-14
3.74127e-14
2.52239e-14
3.60984e-14
3.24964e-14
2.85328e-14
3.56119e-14
3.86507e-14
4.60058e-14
5.04001e-14
5.02935e-14
5.78585e-14
6.70015e-14
5.38628e-14
3.96402e-14
4.19438e-14
3.86444e-14
3.35481e-14
2.95064e-14
3.00143e-14
3.84377e-14
4.61833e-14
4.77279e-14
4.76553e-14
4.59512e-14
3.25566e-14
3.83947e-14
5.22314e-14
3.86221e-14
3.19238e-14
2.73493e-14
3.67043e-14
4.41702e-14
4.54943e-14
4.87702e-14
2.68612e-14
3.37983e-14
3.97533e-14
4.0273e-14
4.30031e-14
4.81973e-14
5.87626e-14
6.00552e-14
5.35018e-14
6.432e-14
5.81382e-14
4.84267e-14
3.24076e-14
1.55999e-14
2.24355e-14
1.05836e-14
2.09453e-14
1.58896e-14
4.78899e-14
6.72259e-14
7.10333e-14
5.02717e-14
3.93743e-14
4.78468e-14
3.88313e-14
3.17663e-14
1.80954e-14
1.05933e-14
1.19553e-14
1.43684e-14
2.75026e-14
1.26994e-14
1.64147e-14
3.50424e-15
1.12369e-14
7.01115e-15
8.08543e-15
2.2475e-15
8.41937e-15
1.84758e-14
9.85919e-15
1.89825e-14
9.14446e-15
1.16884e-14
1.80223e-14
1.16613e-14
2.07551e-14
2.41101e-14
2.54055e-14
2.97116e-14
3.35901e-14
3.42094e-14
2.88054e-14
2.74348e-14
3.47194e-14
4.13043e-14
4.27527e-14
4.60582e-14
6.08858e-14
6.79192e-14
6.95541e-14
7.35287e-14
6.14797e-14
5.8548e-14
7.78798e-14
2.68787e-14
2.51998e-14
2.5395e-14
2.85814e-14
3.3126e-14
2.51426e-14
3.02148e-14
3.66592e-14
5.03405e-14
4.5413e-14
5.16431e-14
3.58991e-14
2.97724e-14
2.85001e-14
3.00881e-14
2.85485e-14
2.81792e-14
2.29217e-14
2.35251e-14
2.43881e-14
2.45174e-14
1.72834e-14
1.92651e-14
1.85705e-14
2.15088e-14
2.53401e-14
2.9685e-14
3.43322e-14
4.28591e-14
3.08164e-14
2.46827e-14
1.93721e-14
1.81181e-14
1.43328e-14
1.56419e-14
1.95762e-14
3.00427e-14
3.3862e-14
2.25647e-14
1.72387e-14
1.87718e-14
1.81122e-14
1.89721e-14
1.69671e-14
7.48459e-15
1.30402e-14
2.43902e-14
3.78221e-14
1.91919e-14
1.92718e-14
1.51951e-14
1.54451e-14
1.65663e-14
2.44861e-14
3.02255e-14
3.38841e-14
4.79871e-14
6.49369e-14
3.89414e-14
3.71771e-14
3.22512e-14
3.01449e-14
2.00835e-14
1.68387e-14
2.61736e-14
2.17928e-14
2.14605e-14
3.52101e-14
3.24354e-14
3.17056e-14
3.1823e-14
3.29557e-14
4.51345e-14
2.80634e-14
2.26925e-14
1.59085e-14
2.15819e-14
2.23041e-14
1.89106e-14
3.07824e-14
1.29984e-14
2.22821e-14
2.18619e-14
3.28134e-14
2.7497e-14
3.61706e-14
3.78094e-14
4.64815e-14
3.75709e-14
4.52997e-14
4.19371e-14
3.25887e-14
2.33296e-14
1.46523e-14
2.25976e-14
8.3225e-15
1.68148e-14
1.29249e-14
3.91426e-14
5.788e-14
5.12341e-14
4.26967e-14
2.61578e-14
3.23652e-14
3.12325e-14
2.46623e-14
1.35911e-14
2.0491e-14
2.51121e-14
2.14338e-14
2.07753e-14
2.97202e-14
1.15744e-14
4.14537e-15
1.97652e-14
4.50445e-15
1.18823e-14
7.96928e-15
1.92106e-15
3.47447e-15
9.46318e-15
1.05776e-14
1.62563e-14
1.8664e-14
1.97e-14
1.71538e-14
7.70312e-15
2.13903e-14
2.52016e-14
2.90661e-14
3.13024e-14
4.15693e-14
3.3516e-14
3.97006e-14
4.91845e-14
6.03423e-14
5.4681e-14
4.39903e-14
5.32155e-14
5.97868e-14
5.9242e-14
5.80055e-14
4.61106e-14
4.90078e-14
8.22119e-14
2.0796e-14
1.66436e-14
1.80986e-14
1.54938e-14
2.18407e-14
2.06263e-14
2.22558e-14
2.64678e-14
3.38399e-14
3.26011e-14
3.44833e-14
2.64462e-14
2.38966e-14
2.42366e-14
2.22539e-14
1.5264e-14
1.22215e-14
1.07213e-14
1.38549e-14
1.15081e-14
1.41245e-14
1.28632e-14
1.17124e-14
3.76456e-15
1.55488e-14
1.8023e-14
1.71041e-14
1.61919e-14
2.05808e-14
1.54983e-14
2.6823e-14
2.12049e-14
2.27399e-14
2.31919e-14
2.44455e-14
2.8229e-14
2.90845e-14
2.33934e-14
2.12198e-14
1.12708e-14
1.9169e-14
1.7855e-14
1.49847e-14
1.03279e-14
1.66366e-14
2.16784e-14
2.10725e-14
2.85658e-14
2.35496e-14
1.85952e-14
1.61135e-14
1.83563e-14
2.13512e-14
2.3179e-14
1.70748e-14
2.06717e-14
3.39845e-14
4.66777e-14
4.96501e-14
4.46995e-14
4.24848e-14
4.06699e-14
2.56356e-14
2.10905e-14
2.68317e-14
2.32257e-14
2.45796e-14
3.49268e-14
3.37191e-14
3.47078e-14
2.58098e-14
2.53187e-14
4.67214e-14
3.80426e-14
2.21418e-14
1.59189e-14
2.42653e-14
1.11176e-14
1.49355e-14
2.5971e-14
8.2988e-15
2.04982e-14
2.13238e-14
2.21911e-14
3.63092e-14
4.60984e-14
3.99722e-14
3.44225e-14
4.89102e-14
4.53624e-14
3.67724e-14
2.85895e-14
3.05933e-14
2.40177e-14
2.23153e-14
1.38744e-14
1.56761e-14
1.01179e-14
2.37754e-14
2.78157e-14
2.79873e-14
2.07538e-14
1.95405e-14
2.21534e-14
1.97225e-14
1.80846e-14
1.9849e-14
2.49331e-14
3.20101e-14
3.1801e-14
2.18856e-14
1.65824e-14
1.06027e-14
4.8883e-15
1.29818e-14
9.32033e-15
7.14605e-15
7.79183e-15
6.53978e-15
7.9693e-15
7.70728e-16
1.5849e-14
2.61036e-14
2.62347e-14
1.68246e-14
1.1783e-14
1.76894e-14
2.08911e-14
2.55791e-14
3.09008e-14
2.95555e-14
3.02094e-14
2.90094e-14
5.35626e-14
7.0442e-14
7.3983e-14
5.66094e-14
4.32277e-14
5.08827e-14
5.15865e-14
5.28211e-14
4.51844e-14
4.08805e-14
5.68508e-14
8.23e-14
2.01297e-14
1.54287e-14
1.47124e-14
1.27505e-14
1.64954e-14
1.85279e-14
1.52764e-14
2.11463e-14
1.96445e-14
2.94072e-14
3.63278e-14
2.69892e-14
1.76735e-14
1.14908e-14
1.62683e-14
1.18651e-14
7.25144e-15
4.49874e-15
2.81306e-15
5.80401e-15
6.80781e-15
1.1301e-14
1.3154e-14
7.28584e-15
2.09012e-14
1.73054e-14
1.46106e-14
1.09807e-14
8.50784e-15
1.43943e-14
2.20296e-14
1.90627e-14
2.48838e-14
3.35458e-14
3.4011e-14
2.98753e-14
1.80909e-14
1.06912e-14
1.42217e-14
1.39419e-14
1.97318e-14
1.98509e-14
1.88837e-14
1.2401e-14
9.53703e-15
1.73177e-14
2.19533e-14
2.00064e-14
2.18821e-14
2.2318e-14
1.93191e-14
9.5741e-15
1.3775e-14
1.3842e-14
1.4343e-14
1.66623e-14
2.21114e-14
4.15168e-14
5.17058e-14
4.48278e-14
4.91789e-14
3.01354e-14
2.12504e-14
2.61035e-14
2.38088e-14
2.75255e-14
2.68798e-14
1.79805e-14
2.55085e-14
1.71967e-14
1.78476e-14
2.692e-14
3.9469e-14
2.79652e-14
2.29832e-14
1.56603e-14
1.22528e-14
4.32091e-15
6.48634e-15
8.85361e-15
1.18057e-14
1.47591e-14
1.48602e-14
1.81476e-14
2.896e-14
3.08428e-14
2.6423e-14
2.48085e-14
3.27375e-14
3.03695e-14
2.91922e-14
2.87075e-14
2.49227e-14
2.76072e-14
2.02749e-14
1.45505e-14
1.76587e-14
3.38148e-15
1.13745e-14
1.00758e-14
9.35142e-15
1.06359e-14
6.41683e-15
1.06977e-14
1.28693e-14
1.17234e-14
1.81028e-14
2.41085e-14
3.49705e-14
4.72114e-14
2.84051e-14
1.86902e-14
1.42821e-14
7.98032e-15
9.21821e-15
1.02674e-14
1.3227e-14
1.07715e-14
8.01038e-15
4.29524e-15
7.27209e-15
1.16836e-14
7.80964e-15
1.22045e-14
1.62162e-14
4.84342e-15
2.88763e-14
2.32604e-14
2.48686e-14
3.53157e-14
2.75599e-14
1.73464e-14
2.92638e-14
6.35472e-14
8.70441e-14
8.06576e-14
5.83634e-14
3.99114e-14
4.714e-14
4.53246e-14
4.91055e-14
3.91978e-14
3.84245e-14
6.1467e-14
8.50383e-14
2.20557e-14
1.37023e-14
6.42909e-15
5.61019e-15
5.41378e-15
9.34446e-15
8.59869e-15
1.34412e-14
1.4436e-14
2.23248e-14
2.663e-14
2.18404e-14
1.02316e-14
1.16355e-14
1.81376e-14
1.27642e-14
1.16055e-14
7.50369e-15
7.42576e-15
4.85739e-15
5.09919e-15
4.77792e-15
7.36399e-15
5.63527e-15
1.48443e-14
1.36137e-14
1.28193e-14
8.87655e-15
3.31269e-15
1.3554e-14
1.87433e-14
1.91813e-14
2.25427e-14
2.61427e-14
2.65066e-14
2.64479e-14
1.50073e-14
1.13677e-14
9.84473e-15
1.23743e-14
2.01625e-14
1.62984e-14
1.69188e-14
1.39182e-14
9.90694e-15
1.82388e-14
1.87332e-14
2.88659e-14
2.32821e-14
3.49529e-14
2.08542e-14
6.62551e-15
4.05981e-15
1.41735e-14
1.21597e-14
1.99859e-14
2.17372e-14
3.25756e-14
4.12822e-14
3.39142e-14
3.67233e-14
2.35529e-14
2.47563e-14
3.4734e-14
3.08395e-14
3.10897e-14
2.71765e-14
1.34544e-14
2.02396e-14
1.5528e-14
2.33315e-14
3.36437e-14
2.48793e-14
2.0092e-14
2.73801e-14
2.72786e-14
1.85221e-14
1.31845e-14
1.82899e-14
8.8938e-15
1.84411e-14
1.08798e-14
1.16684e-14
1.97264e-14
1.915e-14
1.89721e-14
2.44326e-14
2.33548e-14
2.80606e-14
2.41391e-14
3.16045e-14
3.0908e-14
1.41937e-14
2.22228e-14
2.27356e-14
1.58482e-14
2.05936e-14
7.30879e-15
4.34295e-15
6.4962e-15
1.86868e-14
1.68219e-14
1.93703e-14
1.09748e-14
2.12616e-14
1.90883e-14
2.07517e-14
2.00747e-14
2.87854e-14
3.94227e-14
2.63044e-14
1.84926e-14
2.20977e-14
7.2184e-15
4.61495e-15
7.85319e-15
7.74609e-15
9.15861e-15
2.04005e-14
2.03429e-14
1.4357e-14
1.68289e-14
1.96322e-14
1.92737e-14
7.56171e-15
1.17576e-14
1.815e-14
1.96399e-14
2.10489e-14
2.85608e-14
1.81257e-14
1.57828e-14
3.10566e-14
6.19763e-14
7.52335e-14
7.89519e-14
5.87793e-14
3.6839e-14
4.26749e-14
3.65946e-14
5.17707e-14
4.98009e-14
4.52294e-14
6.28758e-14
8.46469e-14
1.62387e-14
1.54435e-14
1.17807e-14
1.1578e-14
1.16333e-14
1.30367e-14
1.58515e-14
1.63582e-14
1.75702e-14
1.82067e-14
2.30594e-14
1.96798e-14
8.76676e-15
9.09675e-15
9.3497e-15
7.35155e-15
9.07551e-15
5.09762e-15
6.83931e-15
4.46851e-15
1.00275e-14
8.60467e-15
6.49767e-15
8.94893e-15
1.22575e-14
1.34288e-14
1.28244e-14
1.21553e-14
9.41183e-15
1.48063e-14
1.50202e-14
2.089e-14
2.48968e-14
2.75561e-14
2.75193e-14
2.62027e-14
1.98524e-14
1.72608e-14
1.54569e-14
1.60775e-14
1.51271e-14
9.70344e-15
1.04765e-14
8.56452e-15
8.53042e-15
1.34248e-14
2.96411e-15
1.32135e-14
1.50852e-14
1.95704e-14
1.66695e-14
5.95496e-15
1.31736e-14
5.75022e-15
1.00153e-14
1.14267e-14
1.79779e-14
2.14297e-14
2.57907e-14
2.23618e-14
2.1838e-14
1.22319e-14
1.79336e-14
1.45091e-14
1.87674e-14
1.59024e-14
1.38448e-14
1.06209e-14
1.45916e-14
4.08845e-15
1.18598e-14
2.18033e-14
1.21293e-14
1.42264e-14
1.49176e-14
1.42684e-14
1.80326e-14
1.62485e-14
1.5943e-14
8.88396e-15
9.1244e-15
7.50634e-15
8.70883e-15
9.06483e-15
1.7582e-14
8.5315e-15
2.06739e-14
1.92291e-14
2.53472e-14
2.02369e-14
1.2527e-14
1.14268e-14
1.02351e-14
1.53257e-14
1.067e-14
3.24532e-15
1.57178e-14
1.30833e-14
1.63114e-14
1.09714e-14
4.25739e-15
1.00544e-14
9.51033e-15
3.95419e-15
1.11444e-14
1.59684e-14
1.81573e-14
1.17304e-14
2.28423e-14
2.80989e-14
2.71214e-14
2.11783e-14
2.11845e-14
9.2358e-15
5.1174e-15
5.36171e-15
9.37366e-15
2.28622e-14
2.9889e-14
2.69346e-14
2.05616e-14
2.85602e-14
2.41029e-14
2.01807e-14
1.5995e-14
1.15695e-14
1.1395e-14
1.2141e-14
1.6886e-14
2.57011e-14
2.18721e-14
2.01419e-14
3.23175e-14
5.64423e-14
6.49354e-14
6.47376e-14
4.85535e-14
3.18584e-14
3.34464e-14
2.73781e-14
4.09066e-14
4.66785e-14
4.60964e-14
6.17924e-14
9.1253e-14
1.40357e-14
1.0746e-14
5.70814e-15
1.33459e-14
1.12734e-14
1.16185e-14
1.01703e-14
1.17018e-14
1.12656e-14
1.52108e-14
1.85615e-14
1.66429e-14
9.01409e-15
8.60728e-15
9.34376e-15
1.02659e-14
9.20212e-15
9.57966e-15
1.25439e-14
1.44701e-14
1.65355e-14
1.83451e-14
1.97299e-14
1.7721e-14
1.88836e-14
1.52219e-14
1.55947e-14
1.71232e-14
1.3559e-14
1.37604e-14
1.60935e-14
1.44169e-14
1.82158e-14
2.04415e-14
2.26493e-14
2.37707e-14
2.59948e-14
2.70286e-14
2.46299e-14
2.46611e-14
1.91678e-14
1.21225e-14
1.43488e-14
1.63271e-14
1.82156e-14
1.38215e-14
1.21422e-14
1.56527e-14
1.36487e-14
1.41278e-14
1.56667e-14
1.0951e-14
1.03048e-14
6.54158e-15
1.3125e-14
1.26565e-14
2.20809e-14
2.14437e-14
2.11461e-14
1.97465e-14
1.82616e-14
1.89921e-14
2.24471e-14
1.93775e-14
2.37242e-14
2.28814e-14
2.19029e-14
2.84396e-14
1.67491e-14
1.60602e-14
2.75324e-14
2.68922e-14
1.32345e-14
1.95793e-14
1.87174e-14
1.99666e-14
2.19308e-14
2.3634e-14
1.63718e-14
1.17041e-14
7.02076e-15
9.87683e-15
1.07117e-14
1.76164e-14
1.84769e-14
9.50537e-15
1.88073e-14
2.98012e-14
2.71956e-14
2.76809e-14
1.93941e-14
1.75533e-14
2.0576e-14
2.12707e-14
9.94739e-15
7.43837e-15
1.31037e-14
1.7739e-14
1.0378e-14
1.15627e-14
5.09718e-15
9.88162e-15
1.99346e-14
1.7144e-14
2.45636e-14
2.1377e-14
1.61225e-14
2.11921e-14
1.90026e-14
2.96544e-14
2.39772e-14
1.47328e-14
1.32836e-14
7.79441e-15
1.48755e-14
1.21769e-14
1.8547e-14
3.08056e-14
3.18526e-14
2.42287e-14
1.78502e-14
1.20252e-14
1.4404e-14
1.10258e-14
1.29388e-14
1.15088e-14
9.17458e-15
8.92124e-15
1.3556e-14
1.79467e-14
1.44269e-14
1.58679e-14
2.92258e-14
5.01019e-14
5.52409e-14
4.8317e-14
4.32804e-14
3.08376e-14
3.75774e-14
4.08721e-14
4.52092e-14
5.01049e-14
5.46738e-14
6.50464e-14
8.3012e-14
1.55321e-14
1.98663e-14
2.02291e-14
1.52977e-14
1.4794e-14
1.74568e-14
1.75408e-14
2.06393e-14
2.30309e-14
2.24933e-14
2.12134e-14
1.50512e-14
1.37537e-14
1.24152e-14
1.29996e-14
1.08239e-14
1.42787e-14
1.58147e-14
1.82732e-14
1.4955e-14
2.08238e-14
2.34162e-14
2.64338e-14
2.2868e-14
2.3264e-14
2.04012e-14
1.90565e-14
1.88196e-14
2.2099e-14
1.84127e-14
2.32096e-14
2.17318e-14
1.89946e-14
1.88762e-14
2.53644e-14
2.98019e-14
3.10239e-14
3.30566e-14
3.53629e-14
2.80534e-14
2.04285e-14
1.83729e-14
1.51887e-14
2.1173e-14
2.2436e-14
1.69324e-14
1.47268e-14
1.33582e-14
2.00717e-14
1.83116e-14
2.12039e-14
1.88644e-14
1.47493e-14
8.57299e-15
1.5197e-14
1.31898e-14
1.2511e-14
1.74851e-14
1.93869e-14
2.14327e-14
2.20855e-14
2.71577e-14
2.46077e-14
2.17174e-14
2.09156e-14
2.44279e-14
2.66699e-14
3.13615e-14
2.42601e-14
2.73371e-14
3.12843e-14
2.14895e-14
1.9188e-14
1.79059e-14
2.2317e-14
3.06621e-14
2.42623e-14
1.98912e-14
1.60062e-14
9.7967e-15
1.28545e-14
1.50364e-14
1.80327e-14
1.86598e-14
1.51372e-14
1.38088e-14
1.77409e-14
2.80819e-14
2.06099e-14
2.48681e-14
2.47961e-14
2.09254e-14
1.9738e-14
9.59301e-15
1.39246e-14
5.49176e-15
1.70885e-14
1.87861e-14
1.11655e-14
1.21434e-14
8.71557e-15
1.71661e-14
2.94708e-14
3.30125e-14
3.09629e-14
2.31119e-14
1.78273e-14
2.18601e-14
1.87251e-14
2.73992e-14
3.29731e-14
1.63749e-14
1.06993e-14
1.15326e-14
1.4502e-14
1.66064e-14
1.96121e-14
2.48973e-14
3.84886e-14
2.25e-14
1.80639e-14
1.08378e-14
5.06811e-15
2.86834e-15
1.76002e-14
1.56025e-14
1.06031e-14
9.7663e-15
1.24558e-14
1.84163e-14
1.49631e-14
1.95268e-14
2.57727e-14
4.23156e-14
5.47598e-14
4.79381e-14
3.6221e-14
2.72882e-14
3.35204e-14
4.04903e-14
5.14776e-14
5.55235e-14
6.17145e-14
7.28812e-14
9.65187e-14
1.15818e-14
1.01232e-14
6.8128e-15
1.2856e-14
1.12305e-14
1.5804e-14
1.7841e-14
2.14345e-14
2.45491e-14
2.03213e-14
1.78929e-14
1.77061e-14
1.40051e-14
1.04227e-14
8.9255e-15
1.10423e-14
9.33154e-15
1.18807e-14
1.27051e-14
8.33321e-15
5.8822e-15
1.16477e-14
1.5236e-14
1.42508e-14
1.53349e-14
1.23004e-14
9.55943e-15
5.20134e-15
6.49645e-15
4.39673e-15
6.74628e-15
1.77896e-14
1.82209e-14
1.4299e-14
2.30587e-14
3.21832e-14
3.13535e-14
3.72308e-14
2.94353e-14
2.85634e-14
2.08419e-14
1.452e-14
1.08307e-14
2.67326e-14
1.27001e-14
5.63758e-15
7.10892e-15
5.80435e-15
2.67969e-15
6.15636e-15
1.0686e-14
6.39035e-15
3.79556e-15
3.83968e-15
4.39187e-15
4.70592e-15
8.38884e-15
1.23493e-14
1.38223e-14
1.49127e-14
1.61441e-14
1.18816e-14
1.40775e-14
8.8105e-15
8.71569e-15
6.13157e-15
8.11275e-15
1.35385e-14
1.37533e-14
1.53825e-14
1.29478e-14
9.16215e-15
1.20865e-14
1.74132e-14
1.60224e-14
2.61808e-14
2.56674e-14
2.20148e-14
1.74775e-14
5.68183e-15
7.61417e-15
8.39859e-15
1.11417e-14
6.71421e-15
8.76345e-15
9.64972e-15
1.4946e-14
1.85743e-14
1.24192e-14
1.21972e-14
8.58115e-15
6.24355e-15
1.10765e-14
1.25557e-14
2.48695e-15
1.48644e-14
1.09419e-14
1.38545e-14
1.39495e-14
1.28502e-14
5.50121e-15
1.10723e-14
2.02262e-14
2.13397e-14
1.56561e-14
1.21799e-14
7.24491e-15
1.12477e-14
2.71525e-14
3.48228e-14
3.56271e-14
2.82515e-14
1.71242e-14
1.75702e-14
2.62735e-14
2.52842e-14
1.83391e-14
2.59157e-14
3.70032e-14
2.37092e-14
1.74738e-14
1.12175e-14
1.56285e-14
1.42861e-14
1.99512e-14
1.68712e-14
1.17128e-14
1.79344e-14
1.9631e-14
2.23472e-14
2.81518e-14
2.90909e-14
2.29709e-14
3.42512e-14
4.67745e-14
3.44854e-14
2.2869e-14
1.88106e-14
2.07019e-14
2.71887e-14
3.98162e-14
5.66067e-14
6.44882e-14
6.66304e-14
8.86095e-14
2.25397e-14
1.79097e-14
2.01633e-14
1.91313e-14
1.53082e-14
2.0292e-14
2.55864e-14
2.77258e-14
2.7359e-14
2.42543e-14
2.52781e-14
2.3227e-14
2.45628e-14
2.32075e-14
2.14036e-14
1.66942e-14
1.96149e-14
2.17854e-14
2.14418e-14
1.52043e-14
1.3466e-14
1.66507e-14
2.34024e-14
2.09747e-14
2.40905e-14
1.79398e-14
1.38916e-14
6.43118e-15
1.02161e-14
5.80681e-15
8.49679e-15
9.57399e-15
1.95132e-14
1.66931e-14
1.55641e-14
2.51992e-14
3.70379e-14
3.5704e-14
3.13778e-14
2.79656e-14
2.43804e-14
2.08929e-14
1.87847e-14
1.71284e-14
8.37648e-15
1.06613e-14
1.25266e-14
9.84753e-15
1.0713e-14
7.7641e-15
5.54029e-15
5.22048e-15
8.01019e-15
1.16637e-14
1.1296e-14
6.63427e-15
4.96958e-15
1.25952e-14
1.00766e-14
1.23081e-14
6.62264e-15
9.58791e-15
4.89354e-15
6.6044e-15
8.81655e-15
1.13957e-14
1.31235e-14
7.56427e-15
1.33847e-14
1.16603e-14
4.63149e-15
8.52488e-15
1.37166e-14
1.51179e-14
1.32489e-14
2.32974e-14
2.57741e-14
3.03462e-14
1.70985e-14
1.14871e-14
2.64576e-14
1.60537e-14
1.24212e-14
1.58823e-14
1.22641e-14
1.01964e-14
1.81731e-14
2.54747e-14
1.37647e-14
6.45556e-15
1.43326e-14
1.83133e-14
2.41609e-14
1.90037e-14
1.62055e-14
2.23333e-14
1.74982e-14
1.01768e-14
1.70217e-14
1.18581e-14
8.06414e-15
2.76225e-15
1.57222e-14
1.36425e-14
4.62108e-15
1.34985e-14
1.36473e-14
2.26517e-14
3.11627e-14
2.51356e-14
3.26416e-14
2.41323e-14
2.88084e-14
2.69216e-14
4.2982e-14
3.84851e-14
3.20691e-14
3.17391e-14
3.27143e-14
3.07852e-14
2.56253e-14
2.9101e-14
2.80597e-14
2.14557e-14
1.67251e-14
2.67877e-14
2.73776e-14
3.82102e-14
3.61624e-14
3.69169e-14
4.06034e-14
3.33994e-14
2.99455e-14
3.44885e-14
3.72236e-14
2.90217e-14
2.16145e-14
1.82307e-14
1.39162e-14
2.95699e-14
4.2408e-14
5.22546e-14
6.12911e-14
7.01046e-14
9.62681e-14
1.40396e-14
9.56413e-15
9.96084e-15
1.26364e-14
1.72562e-14
2.05342e-14
2.08919e-14
2.65993e-14
2.62327e-14
2.39592e-14
2.06013e-14
1.94551e-14
2.08195e-14
2.02313e-14
1.70566e-14
1.13165e-14
9.96573e-15
7.52044e-15
9.16659e-15
1.03385e-14
1.25059e-14
1.7233e-14
2.10545e-14
1.89897e-14
1.68523e-14
1.67308e-14
1.7006e-14
8.87432e-15
5.31074e-15
3.96186e-15
9.21877e-15
1.00223e-14
1.05358e-14
1.72807e-14
1.40929e-14
1.79652e-14
2.39127e-14
2.50812e-14
2.32597e-14
2.23236e-14
1.76464e-14
1.44962e-14
1.36876e-14
5.894e-15
9.2821e-15
1.28579e-14
1.67559e-14
1.4319e-14
9.97697e-15
8.25157e-15
1.06808e-14
1.04582e-14
1.54533e-14
1.18901e-14
1.32215e-14
1.642e-14
1.67198e-14
7.91776e-15
1.14184e-14
8.09846e-15
1.77064e-14
1.25734e-14
1.1224e-14
7.93133e-15
1.40116e-14
1.24422e-14
3.12724e-15
4.77018e-15
1.08807e-14
1.48555e-14
9.86984e-15
7.38917e-15
1.30027e-14
1.58824e-14
2.56094e-14
2.89533e-14
2.64907e-14
2.32851e-14
6.03066e-15
1.45102e-14
3.15229e-14
2.5328e-14
1.40413e-14
1.74236e-14
1.92124e-14
1.31938e-14
2.02383e-14
2.58194e-14
1.27536e-14
2.01123e-14
3.00123e-14
2.53115e-14
2.5125e-14
2.03368e-14
2.44614e-14
1.24924e-14
1.08218e-14
1.12161e-14
3.92357e-15
4.35807e-15
1.20134e-14
1.56979e-14
1.50981e-14
1.10202e-14
1.19658e-14
2.38152e-14
2.50753e-14
2.64879e-14
1.93002e-14
1.47833e-14
2.15222e-14
8.75725e-15
1.89697e-14
3.0222e-14
3.65688e-14
2.71301e-14
3.01586e-14
2.65139e-14
2.4723e-14
2.2905e-14
2.11284e-14
2.17984e-14
1.64956e-14
1.01183e-14
6.56454e-15
1.94786e-14
2.57508e-14
3.29301e-14
3.41959e-14
3.38497e-14
2.7416e-14
1.91097e-14
2.35467e-14
2.32401e-14
2.42049e-14
2.49195e-14
1.83679e-14
1.3816e-14
1.87081e-14
2.75463e-14
3.69974e-14
4.69858e-14
5.87914e-14
7.26268e-14
9.07921e-14
8.96593e-15
1.29079e-14
1.82009e-14
1.79238e-14
1.1714e-14
1.23884e-14
1.50363e-14
1.36242e-14
1.78592e-14
1.74121e-14
1.78457e-14
1.75684e-14
1.75155e-14
1.97436e-14
1.52807e-14
1.86419e-14
1.78143e-14
1.28307e-14
1.35691e-14
1.1285e-14
1.51812e-14
1.3419e-14
1.35879e-14
1.42674e-14
1.51178e-14
1.19965e-14
1.71121e-14
1.56362e-14
1.97786e-14
2.03257e-14
1.91015e-14
1.87441e-14
1.89103e-14
2.00672e-14
1.85937e-14
1.93227e-14
2.01823e-14
2.11627e-14
2.2888e-14
2.25194e-14
2.21408e-14
1.71549e-14
1.73297e-14
1.44681e-14
1.41099e-14
1.91904e-14
2.64783e-14
2.34189e-14
3.18001e-14
3.0901e-14
1.64962e-14
5.95947e-15
1.20027e-14
1.94433e-14
2.07847e-14
3.01285e-14
2.70349e-14
1.81619e-14
1.84287e-14
2.06906e-14
8.71838e-15
1.49037e-14
7.0204e-15
1.20017e-14
1.23826e-14
1.1792e-14
2.13575e-14
2.53759e-14
1.21669e-14
1.5798e-14
1.39921e-14
8.87173e-15
1.35901e-14
1.58858e-14
3.11827e-14
3.01831e-14
3.19251e-14
2.74755e-14
1.42584e-14
1.8142e-14
2.41816e-14
2.01599e-14
1.28634e-14
9.00514e-15
1.80309e-14
9.45586e-15
7.65026e-15
1.42582e-14
8.02831e-15
2.29021e-14
3.27056e-14
2.7828e-14
3.64106e-14
3.01585e-14
1.53064e-14
1.42738e-14
2.35784e-14
2.2823e-14
3.05603e-14
3.253e-14
3.27069e-14
3.61183e-14
3.17005e-14
2.56441e-14
1.91946e-14
1.53256e-14
2.27352e-14
2.20565e-14
2.0421e-14
1.58674e-14
9.39808e-15
1.68909e-14
7.58011e-15