/*--------------------------------*- C++ -*----------------------------------*\
| =========                 |                                                 |
| \\      /  F ield         | OpenFOAM: The Open Source CFD Toolbox           |
|  \\    /   O peration     | Version:  2406                                  |
|   \\  /    A nd           | Website:  www.openfoam.com                      |
|    \\/     M anipulation  |                                                 |
\*---------------------------------------------------------------------------*/
FoamFile
{
    version     2.0;
    format      ascii;
    arch        "LSB;label=32;scalar=64";
    class       volScalarField;
    location    "0.035";
    object      Ma;
}
// * * * * * * * * * * * * * * * * * * * * * * * * * * * * * * * * * * * * * //

dimensions      [0 0 0 0 0 0 0];

internalField   nonuniform List<scalar> 
83682
(
1.132
1.132
1.132
1.132
1.132
1.132
1.132
1.132
1.132
1.132
1.132
1.132
1.132
1.132
1.132
1.132
1.132
1.13186
1.12844
1.08538
1.02542
1.02017
1.01997
1.01977
1.01955
1.01941
1.01932
1.01926
1.01924
1.01926
1.01927
1.01922
1.01915
1.01908
1.01899
1.01889
1.01887
1.01886
1.01887
1.01888
1.01891
1.01891
1.0189
1.0189
1.0189
1.01888
1.01888
1.01891
1.01894
1.01899
1.01905
1.01913
1.01917
1.01919
1.0192
1.01918
1.01914
1.01911
1.0191
1.0191
1.01911
1.01913
1.01916
1.01917
1.01917
1.01915
1.01912
1.01907
1.01903
1.01901
1.01901
1.01901
1.01904
1.01908
1.01912
1.01912
1.01912
1.0191
1.01907
1.01902
1.01899
1.01899
1.01901
1.01903
1.01906
1.0191
1.01911
1.01911
1.01911
1.01909
1.01907
1.01905
1.01906
1.01908
1.01909
1.01911
1.01914
1.01916
1.01916
1.01915
1.01914
1.01913
1.01911
1.0191
1.01909
1.01909
1.01908
1.01908
1.01908
1.01908
1.01908
1.01908
1.01907
1.01906
1.01906
1.01905
1.01905
1.01906
1.01907
1.01908
1.0191
1.01911
1.01911
1.0191
1.0191
1.01909
1.01908
1.01907
1.01907
1.01907
1.01908
1.01909
1.01909
1.01909
1.01909
1.01909
1.01908
1.01908
1.01909
1.0191
1.0191
1.01911
1.01911
1.01911
1.01911
1.01911
1.01911
1.01911
1.01911
1.01911
1.0191
1.01909
1.01908
1.01906
1.01905
1.01905
1.01906
1.01906
1.01907
1.01908
1.01908
1.01908
1.01902
1.01885
1.01887
1.01925
1.02051
1.02277
1.02564
1.02857
1.03095
1.03246
1.03328
1.0336
1.03386
1.03405
1.03422
1.03418
1.03406
1.03386
1.03365
1.03347
1.03336
1.03329
1.03325
1.03325
1.03316
1.03296
1.03253
1.03167
1.03036
1.02898
1.02787
1.02699
1.02624
1.02558
1.02499
1.02448
1.02401
1.02358
1.02317
1.02279
1.02245
1.02216
1.02192
1.02172
1.02156
1.02144
1.02134
1.02127
1.02122
1.02117
1.02113
1.02108
1.02104
1.02101
1.02097
1.02092
1.02087
1.02082
1.02077
1.02072
1.02066
1.02061
1.02056
1.02051
1.02047
1.02045
1.02044
1.02043
1.02043
1.02042
1.02043
1.02042
1.02042
1.02041
1.02041
1.02041
1.0204
1.02038
1.02037
1.02033
1.02028
1.02019
1.02009
1.01991
1.01962
1.01916
1.01846
1.0174
1.01579
1.01345
1.01003
1.00521
0.99847
0.989347
0.977337
0.961986
0.943013
0.920432
0.894663
0.866688
0.838201
0.811403
0.789251
0.774769
0.767111
0.764619
0.764531
0.764555
0.764691
0.76492
0.765178
0.765405
0.765569
0.765661
0.765656
0.765599
0.765569
0.765594
0.765673
0.765779
0.765823
0.765814
0.765771
0.765683
0.765534
0.765345
0.765221
0.765208
0.765222
0.765273
0.765359
0.765458
0.765521
0.765528
0.765511
0.765459
0.765364
0.765276
0.765246
0.765243
0.765251
0.765275
0.7653
0.765307
0.765302
0.765275
0.765218
0.765138
0.765069
0.765049
0.765052
0.765064
0.765091
0.765123
0.765136
0.765135
0.765123
0.765089
0.765034
0.764976
0.764939
0.76492
0.764912
0.764908
0.764904
0.764898
0.764885
0.764862
0.764827
0.76478
0.764748
0.764751
0.764781
0.764826
0.764881
0.764941
0.764986
0.765004
0.764998
0.764969
0.764911
0.764833
0.76477
0.764742
0.764729
0.764734
0.764754
0.764771
0.764774
0.764762
0.764742
0.764715
0.764687
0.764659
0.76463
0.764601
0.764575
0.764552
0.764536
0.764526
0.76452
0.764518
0.764519
0.764521
0.764525
0.764531
0.764539
0.76455
0.764563
0.764579
0.764597
0.764615
0.764634
0.764655
0.764678
0.764705
0.764738
0.764779
0.764829
0.76489
0.764962
0.765045
0.765134
0.765225
0.765308
0.765376
0.765425
0.765458
0.765479
0.765496
0.765511
0.765527
0.765541
0.765551
0.765555
0.765555
0.765554
0.765551
0.765543
0.765531
0.765521
0.765518
0.765518
0.765518
0.765521
0.765526
0.76553
0.765531
0.765531
0.765529
0.765526
0.765523
0.765522
0.765522
0.765524
0.765528
0.765534
0.765543
0.765554
0.765564
0.765572
0.765576
0.765578
0.76558
0.765581
0.765582
0.765585
0.765589
0.765595
0.765602
0.765608
0.765611
0.765612
0.765612
0.765613
0.765613
0.765614
0.765615
0.765616
0.765619
0.765623
0.765626
0.76563
0.765632
0.765632
0.765631
0.76563
0.765629
0.765628
0.765628
0.765628
0.765628
0.765629
0.765629
0.765629
0.765629
0.765629
0.765628
0.765626
0.765622
0.765618
0.765616
0.765615
0.765614
0.765614
0.765612
0.765599
0.76552
0.765022
0.761877
0.742653
0.64108
0.313702
0.0263141
0.000173276
7.14317e-08
2.22885e-12
4.37815e-14
4.64401e-14
5.34379e-14
5.2266e-14
4.97463e-14
5.63e-14
5.04001e-14
4.28096e-14
4.17033e-14
4.93016e-14
4.78876e-14
5.25908e-14
5.78244e-14
6.90406e-14
7.59811e-14
7.43635e-14
7.10253e-14
6.83982e-14
6.73128e-14
6.94516e-14
6.67587e-14
6.52424e-14
6.1991e-14
6.2171e-14
6.37501e-14
5.47914e-14
4.29652e-14
3.13594e-14
2.3312e-14
1.79646e-14
1.17632e-14
6.77037e-15
5.65296e-15
9.75871e-15
1.51232e-14
1.86982e-14
1.86304e-14
2.02234e-14
2.3536e-14
2.27777e-14
2.60956e-14
3.38556e-14
3.40137e-14
2.90873e-14
2.83259e-14
2.75862e-14
2.53083e-14
2.52004e-14
2.30836e-14
2.64254e-14
2.58832e-14
2.48344e-14
2.7475e-14
3.43996e-14
3.70747e-14
4.03705e-14
4.41954e-14
4.21945e-14
3.7262e-14
3.41878e-14
3.49598e-14
3.06043e-14
3.14689e-14
3.69503e-14
4.29162e-14
4.28519e-14
4.04764e-14
3.82324e-14
3.23241e-14
2.60931e-14
2.50382e-14
2.53944e-14
2.57507e-14
3.02952e-14
3.46061e-14
4.11169e-14
5.39918e-14
5.9862e-14
4.50057e-14
2.98576e-14
2.91246e-14
2.6045e-14
2.36734e-14
2.56079e-14
2.66452e-14
2.43601e-14
2.32306e-14
1.82917e-14
1.59447e-14
1.36704e-14
1.1056e-14
1.07351e-14
7.55858e-15
9.08358e-15
1.72224e-14
1.84348e-14
1.94372e-14
2.46185e-14
2.63147e-14
2.90609e-14
2.8296e-14
2.04119e-14
1.31456e-14
1.22659e-14
1.16141e-14
1.60303e-14
2.04332e-14
2.46283e-14
2.89711e-14
2.96106e-14
3.66699e-14
4.03003e-14
4.09036e-14
4.12772e-14
4.10152e-14
4.28688e-14
4.6833e-14
5.33297e-14
5.57145e-14
5.3703e-14
5.664e-14
5.53847e-14
5.19524e-14
5.17649e-14
5.05492e-14
4.41764e-14
3.84248e-14
3.23719e-14
3.05555e-14
3.18951e-14
2.91753e-14
2.00863e-14
2.29736e-14
2.73652e-14
3.50048e-14
4.04611e-14
3.47404e-14
3.12367e-14
3.12557e-14
2.54543e-14
2.52154e-14
2.51356e-14
2.37638e-14
2.93355e-14
3.94989e-14
4.39374e-14
4.48946e-14
4.65325e-14
5.30816e-14
5.32613e-14
5.55897e-14
5.40247e-14
4.76871e-14
4.80727e-14
5.12996e-14
4.89289e-14
4.27803e-14
3.40359e-14
3.01631e-14
2.70544e-14
2.3521e-14
2.25627e-14
2.14209e-14
1.46382e-14
9.68971e-15
1.28432e-14
1.42659e-14
1.59512e-14
1.51754e-14
1.33949e-14
9.86668e-15
8.50087e-15
1.86535e-14
2.85419e-14
2.71888e-14
2.35243e-14
1.7804e-14
1.79565e-14
1.76871e-14
1.6109e-14
1.16076e-14
8.64889e-15
6.51447e-15
1.17595e-14
1.7279e-14
1.60512e-14
1.80908e-14
1.68115e-14
1.84342e-14
2.49129e-14
3.34685e-14
3.2736e-14
3.00936e-14
2.47534e-14
2.58734e-14
2.4463e-14
2.47289e-14
2.0651e-14
1.76351e-14
9.77473e-15
6.34233e-15
7.76241e-15
1.11879e-14
1.65277e-14
1.25355e-14
1.14534e-14
1.54639e-14
1.86708e-14
1.84316e-14
1.48255e-14
1.21657e-14
1.11319e-14
1.25223e-14
1.82671e-14
1.94567e-14
1.63523e-14
1.132
1.132
1.132
1.132
1.132
1.132
1.132
1.132
1.132
1.132
1.132
1.132
1.132
1.132
1.132
1.132
1.132
1.13186
1.12844
1.08538
1.02542
1.02017
1.01997
1.01977
1.01955
1.01941
1.01932
1.01926
1.01924
1.01926
1.01927
1.01922
1.01915
1.01908
1.01899
1.01889
1.01887
1.01886
1.01887
1.01888
1.01891
1.01891
1.0189
1.0189
1.0189
1.01888
1.01888
1.01891
1.01894
1.01899
1.01905
1.01913
1.01917
1.01919
1.0192
1.01918
1.01914
1.01911
1.0191
1.0191
1.01911
1.01913
1.01916
1.01917
1.01917
1.01915
1.01912
1.01907
1.01903
1.01901
1.01901
1.01901
1.01904
1.01908
1.01912
1.01912
1.01912
1.0191
1.01907
1.01902
1.01899
1.01899
1.01901
1.01903
1.01906
1.0191
1.01911
1.01911
1.01911
1.01909
1.01907
1.01905
1.01906
1.01908
1.01909
1.01911
1.01914
1.01916
1.01916
1.01915
1.01914
1.01913
1.01911
1.0191
1.01909
1.01909
1.01908
1.01908
1.01908
1.01908
1.01908
1.01908
1.01907
1.01906
1.01906
1.01905
1.01905
1.01906
1.01907
1.01908
1.0191
1.01911
1.01911
1.0191
1.0191
1.01909
1.01908
1.01907
1.01907
1.01907
1.01908
1.01909
1.01909
1.01909
1.01909
1.01909
1.01908
1.01908
1.01909
1.0191
1.0191
1.01911
1.01911
1.01911
1.01911
1.01911
1.01911
1.01911
1.01911
1.01911
1.0191
1.01909
1.01908
1.01906
1.01905
1.01905
1.01906
1.01906
1.01907
1.01908
1.01908
1.01908
1.01902
1.01885
1.01886
1.01925
1.02051
1.02278
1.02565
1.0286
1.03096
1.03243
1.03322
1.03355
1.03385
1.03408
1.03427
1.03422
1.03408
1.03387
1.03364
1.03345
1.03334
1.03328
1.03323
1.03323
1.03316
1.03296
1.03254
1.03167
1.03036
1.02899
1.02787
1.02698
1.02623
1.02558
1.025
1.02448
1.02401
1.02358
1.02317
1.02279
1.02245
1.02216
1.02192
1.02172
1.02156
1.02144
1.02134
1.02127
1.02122
1.02117
1.02113
1.02108
1.02104
1.02101
1.02097
1.02092
1.02087
1.02082
1.02077
1.02072
1.02066
1.02061
1.02056
1.02051
1.02047
1.02045
1.02044
1.02043
1.02043
1.02042
1.02043
1.02042
1.02042
1.02041
1.02042
1.02041
1.0204
1.02038
1.02037
1.02033
1.02028
1.02019
1.02009
1.01991
1.01962
1.01917
1.01847
1.01741
1.0158
1.01347
1.01008
1.00529
0.998611
0.989562
0.977642
0.962394
0.943527
0.92104
0.895341
0.86739
0.838845
0.811911
0.789585
0.774942
0.767213
0.764657
0.764549
0.764566
0.764694
0.764918
0.765174
0.7654
0.765565
0.76566
0.765656
0.765599
0.765569
0.765593
0.765672
0.765777
0.765821
0.765811
0.765769
0.765682
0.765534
0.765346
0.765221
0.765207
0.765221
0.765271
0.765357
0.765455
0.765519
0.765527
0.76551
0.765458
0.765363
0.765275
0.765245
0.765242
0.76525
0.765274
0.765299
0.765306
0.765302
0.765274
0.765217
0.765138
0.765069
0.765049
0.765051
0.765063
0.76509
0.765122
0.765135
0.765134
0.765122
0.765089
0.765033
0.764976
0.764939
0.76492
0.764911
0.764907
0.764903
0.764896
0.764883
0.76486
0.764824
0.764776
0.764747
0.764753
0.764785
0.764833
0.764889
0.76495
0.764998
0.76502
0.765015
0.764985
0.764925
0.764846
0.764776
0.764744
0.764727
0.764728
0.764745
0.764762
0.764767
0.764756
0.764737
0.764712
0.764685
0.764658
0.764629
0.764602
0.764575
0.764552
0.764536
0.764526
0.76452
0.764519
0.76452
0.764522
0.764526
0.764531
0.76454
0.76455
0.764564
0.764579
0.764596
0.764615
0.764634
0.764655
0.764678
0.764705
0.764738
0.764778
0.764829
0.764889
0.764962
0.765045
0.765134
0.765224
0.765307
0.765375
0.765425
0.765457
0.765479
0.765496
0.765511
0.765527
0.765541
0.765551
0.765555
0.765555
0.765554
0.765551
0.765543
0.765531
0.765521
0.765518
0.765518
0.765518
0.765521
0.765526
0.76553
0.765531
0.765531
0.765529
0.765526
0.765523
0.765522
0.765522
0.765524
0.765527
0.765534
0.765543
0.765554
0.765564
0.765572
0.765576
0.765578
0.76558
0.765581
0.765582
0.765585
0.765589
0.765595
0.765602
0.765608
0.765611
0.765612
0.765612
0.765613
0.765613
0.765614
0.765615
0.765616
0.765619
0.765622
0.765626
0.76563
0.765632
0.765632
0.765631
0.765631
0.765629
0.765628
0.765628
0.765628
0.765628
0.765629
0.765629
0.765629
0.765629
0.765629
0.765628
0.765626
0.765622
0.765618
0.765616
0.765615
0.765614
0.765614
0.765612
0.765599
0.76552
0.765022
0.761878
0.742653
0.64108
0.313703
0.0263142
0.000173277
7.1432e-08
2.22694e-12
4.62183e-14
4.89781e-14
5.23732e-14
5.18165e-14
4.98938e-14
5.2224e-14
4.75311e-14
4.14517e-14
4.15396e-14
4.72947e-14
4.79896e-14
4.98224e-14
5.48174e-14
6.4693e-14
7.01316e-14
6.66813e-14
6.62118e-14
6.56135e-14
6.50793e-14
6.68109e-14
6.77961e-14
6.55787e-14
6.21746e-14
5.96808e-14
6.04363e-14
5.48937e-14
4.52137e-14
3.36124e-14
2.49858e-14
1.8795e-14
1.07762e-14
5.80506e-15
7.48669e-15
1.03439e-14
1.50816e-14
1.88506e-14
1.95816e-14
2.35604e-14
2.65184e-14
2.49584e-14
2.85826e-14
3.36715e-14
2.98572e-14
2.65934e-14
2.91095e-14
2.46712e-14
2.29941e-14
2.10832e-14
1.97839e-14
2.24604e-14
2.40817e-14
2.56635e-14
2.82374e-14
3.22247e-14
3.71475e-14
3.9523e-14
3.94343e-14
3.98996e-14
3.56209e-14
3.50058e-14
3.0651e-14
2.6708e-14
3.10866e-14
3.72825e-14
4.3014e-14
4.40478e-14
4.26524e-14
3.87547e-14
3.26281e-14
2.63061e-14
2.52044e-14
2.70202e-14
2.80753e-14
3.02263e-14
3.6049e-14
3.95464e-14
4.63868e-14
5.15644e-14
3.87976e-14
2.74561e-14
2.99071e-14
2.81283e-14
2.51521e-14
2.42222e-14
2.55515e-14
2.26773e-14
2.10461e-14
1.7665e-14
1.54802e-14
1.31333e-14
1.09194e-14
9.27925e-15
6.22749e-15
1.01103e-14
1.63647e-14
1.89238e-14
2.12633e-14
2.388e-14
2.74065e-14
2.86705e-14
2.76091e-14
2.26064e-14
1.79743e-14
1.2543e-14
1.12047e-14
1.6679e-14
2.05915e-14
2.35079e-14
2.85892e-14
2.94549e-14
3.50238e-14
4.14858e-14
4.0773e-14
3.64687e-14
3.77623e-14
4.27019e-14
4.40418e-14
5.29861e-14
5.78948e-14
5.68462e-14
5.87628e-14
5.4491e-14
5.03652e-14
5.38853e-14
5.09356e-14
4.53009e-14
3.85249e-14
3.08464e-14
3.09088e-14
3.31771e-14
2.68393e-14
2.06384e-14
2.44444e-14
2.43875e-14
3.06758e-14
3.53954e-14
3.2069e-14
3.04014e-14
3.14868e-14
2.63397e-14
2.68369e-14
2.5889e-14
2.27284e-14
2.77768e-14
3.87478e-14
4.63444e-14
4.39896e-14
4.55381e-14
5.45109e-14
5.25001e-14
5.34533e-14
5.44649e-14
4.80366e-14
4.59951e-14
4.68066e-14
4.53225e-14
4.04053e-14
3.17359e-14
2.79838e-14
2.74761e-14
2.50394e-14
2.07023e-14
1.92373e-14
1.48996e-14
1.03499e-14
1.1758e-14
1.37746e-14
1.45629e-14
1.24612e-14
1.4731e-14
1.13202e-14
8.54447e-15
1.63809e-14
2.18062e-14
2.42876e-14
2.54715e-14
2.0101e-14
1.92994e-14
1.55522e-14
1.17532e-14
1.02454e-14
8.42313e-15
9.06906e-15
1.29287e-14
1.5218e-14
1.67823e-14
1.73378e-14
1.82869e-14
1.92075e-14
2.57311e-14
2.95981e-14
3.0909e-14
2.94823e-14
2.50121e-14
2.44823e-14
2.17173e-14
2.30509e-14
2.0695e-14
1.57601e-14
8.8952e-15
3.52282e-15
5.29861e-15
1.05449e-14
1.38527e-14
1.04224e-14
1.1793e-14
1.79872e-14
1.88641e-14
1.6199e-14
1.44865e-14
1.11923e-14
1.04861e-14
1.40807e-14
1.83283e-14
1.78399e-14
1.79968e-14
1.132
1.132
1.132
1.132
1.132
1.132
1.132
1.132
1.132
1.132
1.132
1.132
1.132
1.132
1.132
1.132
1.132
1.13186
1.12844
1.08538
1.02542
1.02017
1.01997
1.01977
1.01955
1.01941
1.01932
1.01926
1.01924
1.01926
1.01927
1.01922
1.01915
1.01908
1.01899
1.01889
1.01887
1.01886
1.01887
1.01888
1.01891
1.01891
1.0189
1.0189
1.0189
1.01888
1.01888
1.01891
1.01894
1.01899
1.01905
1.01913
1.01917
1.01919
1.0192
1.01918
1.01914
1.01911
1.0191
1.0191
1.01911
1.01913
1.01916
1.01917
1.01917
1.01915
1.01912
1.01907
1.01903
1.01901
1.01901
1.01901
1.01904
1.01908
1.01912
1.01912
1.01912
1.0191
1.01907
1.01902
1.01899
1.01899
1.01901
1.01903
1.01906
1.0191
1.01911
1.01911
1.01911
1.01909
1.01907
1.01905
1.01906
1.01908
1.01909
1.01911
1.01914
1.01916
1.01916
1.01915
1.01914
1.01913
1.01911
1.0191
1.01909
1.01909
1.01908
1.01908
1.01908
1.01908
1.01908
1.01908
1.01907
1.01906
1.01906
1.01905
1.01905
1.01906
1.01907
1.01908
1.0191
1.01911
1.01911
1.0191
1.0191
1.01909
1.01908
1.01907
1.01907
1.01907
1.01908
1.01909
1.01909
1.01909
1.01909
1.01909
1.01908
1.01908
1.01909
1.0191
1.0191
1.01911
1.01911
1.01911
1.01911
1.01911
1.01911
1.01911
1.01911
1.01911
1.0191
1.01909
1.01908
1.01906
1.01905
1.01905
1.01906
1.01906
1.01907
1.01908
1.01908
1.01908
1.01902
1.01884
1.01886
1.01925
1.02051
1.02279
1.02567
1.02863
1.03097
1.03241
1.03316
1.03351
1.03384
1.0341
1.03432
1.03426
1.0341
1.03387
1.03363
1.03344
1.03333
1.03326
1.03322
1.03322
1.03316
1.03297
1.03254
1.03167
1.03036
1.029
1.02787
1.02698
1.02623
1.02558
1.025
1.02449
1.02402
1.02358
1.02317
1.02279
1.02245
1.02216
1.02192
1.02172
1.02156
1.02144
1.02134
1.02127
1.02122
1.02117
1.02113
1.02108
1.02104
1.02101
1.02097
1.02092
1.02086
1.02082
1.02077
1.02072
1.02066
1.02061
1.02056
1.02051
1.02047
1.02045
1.02044
1.02043
1.02043
1.02042
1.02043
1.02042
1.02042
1.02041
1.02042
1.02041
1.0204
1.02038
1.02036
1.02033
1.02028
1.0202
1.02009
1.01992
1.01963
1.01918
1.01848
1.01743
1.01582
1.01349
1.01012
1.00536
0.998717
0.989725
0.977877
0.9627
0.943897
0.921462
0.895795
0.867833
0.83922
0.812179
0.789734
0.774998
0.767263
0.764702
0.764585
0.764594
0.764712
0.764926
0.765174
0.765397
0.765561
0.765657
0.765653
0.765597
0.765567
0.765592
0.76567
0.765772
0.765815
0.765806
0.765763
0.765677
0.76553
0.765343
0.765218
0.765204
0.765218
0.765268
0.765353
0.765451
0.765515
0.765523
0.765507
0.765455
0.765361
0.765273
0.765243
0.76524
0.765247
0.765271
0.765297
0.765304
0.765299
0.765272
0.765215
0.765136
0.765067
0.765046
0.765048
0.765061
0.765087
0.765119
0.765133
0.765132
0.76512
0.765087
0.765032
0.764974
0.764937
0.764918
0.764908
0.764904
0.764898
0.764891
0.764876
0.764853
0.764816
0.764768
0.764742
0.764755
0.764794
0.76485
0.764913
0.764981
0.765039
0.76507
0.76507
0.765035
0.764965
0.764875
0.764796
0.764754
0.764727
0.764718
0.764726
0.764739
0.764747
0.764741
0.764725
0.764702
0.764678
0.764653
0.764628
0.764602
0.764576
0.764553
0.764537
0.764527
0.764522
0.764522
0.764522
0.764525
0.764528
0.764534
0.764541
0.764551
0.764564
0.764579
0.764596
0.764614
0.764634
0.764655
0.764678
0.764705
0.764738
0.764779
0.764828
0.764889
0.764962
0.765045
0.765134
0.765224
0.765307
0.765375
0.765425
0.765457
0.765479
0.765496
0.765512
0.765527
0.765541
0.765551
0.765555
0.765555
0.765554
0.765551
0.765543
0.765531
0.765521
0.765518
0.765518
0.765518
0.765521
0.765525
0.76553
0.765531
0.765531
0.765529
0.765526
0.765523
0.765522
0.765522
0.765524
0.765528
0.765534
0.765543
0.765554
0.765564
0.765572
0.765576
0.765578
0.76558
0.765581
0.765582
0.765585
0.765589
0.765595
0.765602
0.765608
0.765611
0.765612
0.765612
0.765613
0.765613
0.765614
0.765615
0.765616
0.765619
0.765623
0.765626
0.76563
0.765632
0.765632
0.765631
0.765631
0.765629
0.765628
0.765628
0.765628
0.765628
0.765629
0.765629
0.765629
0.765629
0.765629
0.765628
0.765626
0.765622
0.765618
0.765616
0.765615
0.765614
0.765614
0.765612
0.765599
0.76552
0.765022
0.761878
0.742653
0.64108
0.313703
0.0263142
0.000173277
7.14321e-08
2.23114e-12
4.82021e-14
4.94562e-14
5.26025e-14
5.24682e-14
5.15748e-14
5.15438e-14
4.60088e-14
3.94246e-14
3.92481e-14
4.2891e-14
4.36858e-14
4.6983e-14
5.0973e-14
5.89581e-14
6.27029e-14
6.34537e-14
6.29957e-14
6.19683e-14
6.39537e-14
6.47751e-14
6.71998e-14
6.66559e-14
6.29444e-14
5.69325e-14
6.04997e-14
5.37155e-14
4.27954e-14
3.70556e-14
2.73615e-14
1.94545e-14
1.0526e-14
5.63064e-15
1.02713e-14
1.17768e-14
1.61611e-14
1.97972e-14
2.27476e-14
2.61937e-14
3.05846e-14
2.99627e-14
3.17425e-14
3.32885e-14
3.10341e-14
2.83421e-14
2.71334e-14
2.20024e-14
1.77831e-14
1.69836e-14
2.06186e-14
2.08072e-14
2.28909e-14
2.21539e-14
3.06256e-14
3.52871e-14
3.85267e-14
3.79894e-14
3.43571e-14
3.51061e-14
3.33247e-14
3.06102e-14
2.64996e-14
2.64923e-14
3.289e-14
3.63719e-14
4.09716e-14
4.26748e-14
4.02315e-14
3.9841e-14
3.54866e-14
3.21605e-14
3.01261e-14
2.87849e-14
2.72669e-14
3.17122e-14
3.66661e-14
3.70469e-14
3.90855e-14
4.14172e-14
3.51225e-14
2.93805e-14
2.83289e-14
2.77125e-14
2.5409e-14
2.31601e-14
2.51619e-14
2.22734e-14
1.95729e-14
1.77481e-14
1.6572e-14
1.46563e-14
1.0246e-14
9.479e-15
8.11792e-15
1.06851e-14
1.6377e-14
1.91705e-14
2.19294e-14
2.50769e-14
2.51691e-14
2.58162e-14
2.4924e-14
2.19879e-14
2.0123e-14
1.7809e-14
1.38752e-14
1.70071e-14
2.01164e-14
2.43155e-14
2.91092e-14
3.05035e-14
3.46905e-14
3.74055e-14
3.61133e-14
3.41174e-14
3.54826e-14
3.79109e-14
4.25276e-14
5.02239e-14
5.48128e-14
5.47521e-14
5.3079e-14
4.78665e-14
4.70255e-14
5.06071e-14
4.85496e-14
4.65832e-14
3.79977e-14
3.34225e-14
3.08544e-14
3.01891e-14
2.40134e-14
1.92829e-14
2.4061e-14
2.78961e-14
2.91962e-14
3.06615e-14
3.30687e-14
3.25105e-14
3.03962e-14
2.91681e-14
2.58314e-14
2.36008e-14
2.57909e-14
2.66034e-14
3.26266e-14
4.07344e-14
4.0434e-14
4.25127e-14
5.18344e-14
5.08944e-14
4.90924e-14
4.79408e-14
4.64508e-14
4.82539e-14
4.91058e-14
4.54104e-14
3.81833e-14
3.23654e-14
2.72617e-14
2.35193e-14
2.19177e-14
2.07776e-14
1.92e-14
1.51865e-14
1.23018e-14
1.21795e-14
1.19023e-14
1.4378e-14
1.36042e-14
1.53014e-14
1.11502e-14
1.10053e-14
1.49099e-14
1.4803e-14
2.01209e-14
2.00681e-14
1.89499e-14
1.51262e-14
1.38591e-14
1.15163e-14
1.08313e-14
9.99793e-15
1.35554e-14
1.47879e-14
1.47479e-14
1.55468e-14
1.64354e-14
1.81366e-14
2.02194e-14
2.2891e-14
2.57964e-14
2.70462e-14
2.69791e-14
2.38685e-14
2.07316e-14
1.67923e-14
1.99096e-14
1.90006e-14
1.48666e-14
8.46914e-15
4.22347e-15
6.66156e-15
1.26238e-14
1.48203e-14
1.43426e-14
1.59243e-14
1.41444e-14
1.20471e-14
1.12785e-14
1.15164e-14
1.03982e-14
1.13385e-14
1.23903e-14
1.6502e-14
1.75414e-14
1.43213e-14
1.132
1.132
1.132
1.132
1.132
1.132
1.132
1.132
1.132
1.132
1.132
1.132
1.132
1.132
1.132
1.132
1.132
1.13186
1.12844
1.08538
1.02542
1.02017
1.01997
1.01977
1.01955
1.01941
1.01932
1.01926
1.01924
1.01926
1.01927
1.01922
1.01915
1.01908
1.01899
1.01889
1.01887
1.01886
1.01887
1.01888
1.01891
1.01891
1.0189
1.0189
1.0189
1.01888
1.01888
1.01891
1.01894
1.01899
1.01905
1.01913
1.01917
1.01919
1.0192
1.01918
1.01914
1.01911
1.0191
1.0191
1.01911
1.01913
1.01916
1.01917
1.01917
1.01915
1.01912
1.01907
1.01903
1.01901
1.01901
1.01901
1.01904
1.01908
1.01912
1.01912
1.01912
1.0191
1.01907
1.01902
1.01899
1.01899
1.01901
1.01903
1.01906
1.0191
1.01911
1.01911
1.01911
1.01909
1.01907
1.01905
1.01906
1.01908
1.01909
1.01911
1.01914
1.01916
1.01916
1.01915
1.01914
1.01913
1.01911
1.0191
1.01909
1.01909
1.01908
1.01908
1.01908
1.01908
1.01908
1.01908
1.01907
1.01906
1.01906
1.01905
1.01905
1.01906
1.01907
1.01908
1.0191
1.01911
1.01911
1.0191
1.0191
1.01909
1.01908
1.01907
1.01907
1.01907
1.01908
1.01909
1.01909
1.01909
1.01909
1.01909
1.01908
1.01908
1.01909
1.0191
1.0191
1.01911
1.01911
1.01911
1.01911
1.01911
1.01911
1.01911
1.01911
1.01911
1.0191
1.01909
1.01908
1.01906
1.01905
1.01905
1.01906
1.01906
1.01907
1.01908
1.01908
1.01908
1.01902
1.01884
1.01886
1.01924
1.02051
1.0228
1.02568
1.02865
1.03098
1.03238
1.03311
1.03347
1.03383
1.03413
1.03436
1.03429
1.03411
1.03387
1.03362
1.03343
1.03332
1.03325
1.0332
1.0332
1.03316
1.03298
1.03254
1.03167
1.03036
1.02901
1.02788
1.02698
1.02623
1.02558
1.02501
1.02449
1.02402
1.02357
1.02317
1.02279
1.02246
1.02217
1.02192
1.02172
1.02156
1.02144
1.02134
1.02127
1.02122
1.02117
1.02113
1.02109
1.02104
1.02101
1.02097
1.02092
1.02086
1.02082
1.02078
1.02072
1.02066
1.02061
1.02056
1.02051
1.02047
1.02045
1.02044
1.02044
1.02043
1.02042
1.02043
1.02042
1.02042
1.02041
1.02042
1.02041
1.0204
1.02038
1.02037
1.02033
1.02028
1.0202
1.0201
1.01992
1.01964
1.01919
1.01849
1.01744
1.01584
1.01352
1.01016
1.00543
0.998822
0.989871
0.97806
0.962904
0.944103
0.921641
0.895932
0.867937
0.839315
0.812304
0.789885
0.775112
0.767355
0.764767
0.764637
0.764638
0.764745
0.764944
0.765181
0.765397
0.765558
0.765654
0.76565
0.765594
0.765564
0.765588
0.765664
0.765764
0.765805
0.765796
0.765753
0.765666
0.765522
0.765337
0.765213
0.765199
0.765213
0.765262
0.765346
0.765443
0.765508
0.765516
0.7655
0.76545
0.765357
0.765269
0.765238
0.765235
0.765243
0.765266
0.765291
0.765299
0.765294
0.765267
0.765211
0.765132
0.765063
0.765042
0.765044
0.765056
0.765082
0.765114
0.765127
0.765127
0.765115
0.765083
0.765028
0.76497
0.764933
0.764913
0.764903
0.764897
0.76489
0.764881
0.764865
0.764839
0.764802
0.764755
0.764735
0.764759
0.764812
0.764885
0.764966
0.765049
0.765124
0.765169
0.765173
0.765131
0.765047
0.764938
0.76484
0.764776
0.764732
0.764706
0.764699
0.764703
0.764712
0.764711
0.7647
0.764683
0.764664
0.764644
0.764623
0.7646
0.764576
0.764553
0.764539
0.76453
0.764526
0.764526
0.764528
0.76453
0.764533
0.764538
0.764545
0.764554
0.764566
0.76458
0.764597
0.764615
0.764634
0.764655
0.764678
0.764706
0.764738
0.764779
0.764829
0.764889
0.764962
0.765045
0.765134
0.765224
0.765307
0.765375
0.765425
0.765458
0.76548
0.765497
0.765512
0.765527
0.765541
0.765551
0.765555
0.765555
0.765554
0.765551
0.765543
0.765532
0.765521
0.765518
0.765518
0.765518
0.765521
0.765525
0.76553
0.765531
0.765531
0.765529
0.765527
0.765523
0.765522
0.765523
0.765524
0.765528
0.765534
0.765543
0.765554
0.765564
0.765572
0.765576
0.765578
0.76558
0.765581
0.765582
0.765585
0.765589
0.765595
0.765602
0.765608
0.765611
0.765612
0.765612
0.765613
0.765613
0.765614
0.765615
0.765617
0.765619
0.765623
0.765626
0.76563
0.765632
0.765632
0.765631
0.765631
0.765629
0.765628
0.765628
0.765628
0.765628
0.765629
0.765629
0.765629
0.765629
0.765629
0.765628
0.765626
0.765622
0.765618
0.765616
0.765615
0.765614
0.765614
0.765612
0.765599
0.76552
0.765022
0.761878
0.742653
0.64108
0.313703
0.0263142
0.000173277
7.14321e-08
2.22836e-12
5.06e-14
5.08022e-14
5.3077e-14
5.45217e-14
5.15699e-14
4.71336e-14
4.15433e-14
3.56409e-14
3.42865e-14
3.5698e-14
3.97351e-14
4.65696e-14
4.86375e-14
5.44114e-14
5.65488e-14
5.6007e-14
5.68229e-14
6.03857e-14
6.34191e-14
6.44929e-14
6.49653e-14
6.40222e-14
6.19443e-14
5.78551e-14
5.89069e-14
5.27494e-14
4.28997e-14
3.44861e-14
2.63846e-14
1.87095e-14
9.87335e-15
5.49205e-15
6.66898e-15
9.17018e-15
1.46204e-14
2.02557e-14
2.41054e-14
2.85344e-14
3.17526e-14
3.20154e-14
3.1276e-14
3.20954e-14
3.28503e-14
2.98726e-14
2.68972e-14
2.13754e-14
1.36708e-14
1.37e-14
1.64089e-14
2.02269e-14
2.26571e-14
2.43859e-14
3.07834e-14
3.37719e-14
3.5663e-14
3.76382e-14
3.65598e-14
3.45256e-14
3.25802e-14
3.07216e-14
2.82299e-14
2.77421e-14
3.07169e-14
3.5888e-14
3.79625e-14
3.83752e-14
3.80145e-14
3.66737e-14
3.57749e-14
3.57439e-14
3.23089e-14
2.95602e-14
2.79096e-14
3.19006e-14
3.55212e-14
3.46267e-14
3.51015e-14
3.38259e-14
3.23389e-14
2.7737e-14
2.80876e-14
2.86844e-14
2.38204e-14
2.25303e-14
2.37528e-14
2.17493e-14
1.97675e-14
1.98056e-14
1.7505e-14
1.47124e-14
8.39552e-15
8.41069e-15
8.83707e-15
1.03047e-14
1.36365e-14
1.81091e-14
2.10804e-14
2.39756e-14
2.45172e-14
2.31904e-14
2.1934e-14
1.97001e-14
2.00672e-14
1.96967e-14
1.93476e-14
1.94888e-14
2.09018e-14
2.32327e-14
2.61715e-14
2.79683e-14
2.89044e-14
3.17886e-14
3.05763e-14
2.76836e-14
3.11213e-14
3.61447e-14
3.90772e-14
4.40207e-14
4.87791e-14
5.04576e-14
4.73911e-14
4.56494e-14
4.74528e-14
4.98455e-14
4.88039e-14
4.73986e-14
4.24175e-14
3.70082e-14
3.09001e-14
2.74468e-14
2.21507e-14
2.00025e-14
2.43876e-14
2.71591e-14
2.88746e-14
3.10035e-14
3.39246e-14
3.33313e-14
2.98898e-14
2.81681e-14
2.74739e-14
2.46171e-14
2.57977e-14
2.69202e-14
2.80493e-14
3.2606e-14
3.66873e-14
3.61551e-14
4.25827e-14
4.54017e-14
4.68591e-14
4.25695e-14
4.17597e-14
4.3864e-14
4.539e-14
4.28868e-14
3.84406e-14
3.20282e-14
2.78657e-14
2.48036e-14
2.21151e-14
1.92583e-14
1.76003e-14
1.87501e-14
1.4584e-14
1.40658e-14
1.41176e-14
1.41609e-14
1.29834e-14
1.20287e-14
1.07055e-14
1.02759e-14
1.12462e-14
1.19184e-14
1.33499e-14
1.37724e-14
1.41138e-14
1.31632e-14
1.45759e-14
1.33869e-14
1.10493e-14
1.10404e-14
1.17016e-14
1.30967e-14
1.53672e-14
1.5556e-14
1.66692e-14
1.83151e-14
2.01319e-14
1.97767e-14
2.16025e-14
2.41093e-14
2.27145e-14
2.05891e-14
1.63314e-14
1.50873e-14
1.96275e-14
1.92372e-14
1.7297e-14
1.11508e-14
6.81486e-15
7.47776e-15
1.34401e-14
1.69451e-14
1.95378e-14
1.70838e-14
1.28033e-14
1.09745e-14
1.25262e-14
1.24754e-14
1.1196e-14
1.19278e-14
1.6121e-14
1.52128e-14
1.34439e-14
1.1255e-14
1.132
1.132
1.132
1.132
1.132
1.132
1.132
1.132
1.132
1.132
1.132
1.132
1.132
1.132
1.132
1.132
1.132
1.13186
1.12844
1.08538
1.02542
1.02017
1.01997
1.01977
1.01955
1.01941
1.01932
1.01926
1.01924
1.01926
1.01927
1.01922
1.01915
1.01908
1.01899
1.01889
1.01887
1.01886
1.01887
1.01888
1.01891
1.01891
1.0189
1.0189
1.0189
1.01888
1.01888
1.01891
1.01894
1.01899
1.01905
1.01913
1.01917
1.01919
1.0192
1.01918
1.01914
1.01911
1.0191
1.0191
1.01911
1.01913
1.01916
1.01917
1.01917
1.01915
1.01912
1.01907
1.01903
1.01901
1.01901
1.01901
1.01904
1.01908
1.01912
1.01912
1.01912
1.0191
1.01907
1.01902
1.01899
1.01899
1.01901
1.01903
1.01906
1.0191
1.01911
1.01911
1.01911
1.01909
1.01907
1.01905
1.01906
1.01908
1.01909
1.01911
1.01914
1.01916
1.01916
1.01915
1.01914
1.01913
1.01911
1.0191
1.01909
1.01909
1.01908
1.01908
1.01908
1.01908
1.01908
1.01908
1.01907
1.01906
1.01906
1.01905
1.01905
1.01906
1.01907
1.01908
1.0191
1.01911
1.01911
1.0191
1.0191
1.01909
1.01908
1.01907
1.01907
1.01907
1.01908
1.01909
1.01909
1.01909
1.01909
1.01909
1.01908
1.01908
1.01909
1.0191
1.0191
1.01911
1.01911
1.01911
1.01911
1.01911
1.01911
1.01911
1.01911
1.01911
1.0191
1.01909
1.01908
1.01906
1.01905
1.01905
1.01906
1.01906
1.01907
1.01908
1.01908
1.01908
1.01902
1.01884
1.01886
1.01924
1.0205
1.02281
1.02569
1.02868
1.03099
1.03236
1.03306
1.03344
1.03382
1.03416
1.03441
1.03432
1.03413
1.03386
1.03361
1.03343
1.03332
1.03325
1.03319
1.03319
1.03315
1.03298
1.03255
1.03166
1.03037
1.02902
1.02788
1.02697
1.02622
1.02558
1.02502
1.0245
1.02402
1.02357
1.02316
1.02279
1.02246
1.02217
1.02193
1.02172
1.02156
1.02144
1.02134
1.02127
1.02122
1.02117
1.02113
1.02109
1.02104
1.02101
1.02097
1.02092
1.02086
1.02082
1.02078
1.02072
1.02066
1.02061
1.02056
1.02051
1.02047
1.02045
1.02044
1.02044
1.02043
1.02042
1.02043
1.02042
1.02042
1.02041
1.02042
1.02042
1.0204
1.02038
1.02037
1.02034
1.02029
1.02021
1.02011
1.01993
1.01964
1.01919
1.01851
1.01746
1.01585
1.01354
1.01019
1.00547
0.998897
0.989967
0.978164
0.962995
0.944157
0.921639
0.895889
0.867875
0.839299
0.812375
0.790008
0.775214
0.767443
0.764832
0.764693
0.764687
0.764782
0.764968
0.765192
0.765402
0.765559
0.765654
0.765648
0.765591
0.76556
0.765582
0.765657
0.765755
0.765793
0.765783
0.765739
0.765652
0.76551
0.765328
0.765205
0.76519
0.765204
0.765252
0.765335
0.765432
0.765497
0.765506
0.765491
0.765441
0.76535
0.765263
0.765231
0.765228
0.765235
0.765258
0.765283
0.765291
0.765287
0.76526
0.765204
0.765126
0.765056
0.765035
0.765037
0.765048
0.765074
0.765106
0.765119
0.765118
0.765108
0.765075
0.765021
0.764963
0.764926
0.764906
0.764895
0.764887
0.764878
0.764866
0.764848
0.764821
0.764784
0.76474
0.764729
0.764764
0.764834
0.764934
0.765046
0.765158
0.765257
0.765318
0.765321
0.765271
0.765171
0.765041
0.764909
0.76481
0.764744
0.7647
0.764681
0.764673
0.764671
0.76467