/*--------------------------------*- C++ -*----------------------------------*\
| =========                 |                                                 |
| \\      /  F ield         | OpenFOAM: The Open Source CFD Toolbox           |
|  \\    /   O peration     | Version:  2406                                  |
|   \\  /    A nd           | Website:  www.openfoam.com                      |
|    \\/     M anipulation  |                                                 |
\*---------------------------------------------------------------------------*/
FoamFile
{
    version     2.0;
    format      ascii;
    arch        "LSB;label=32;scalar=64";
    class       volScalarField;
    location    "0.035";
    object      rho;
}
// * * * * * * * * * * * * * * * * * * * * * * * * * * * * * * * * * * * * * //

dimensions      [1 -3 0 0 0 0 0];

internalField   nonuniform List<scalar> 
83682
(
4.32005
4.32005
4.32005
4.32005
4.32005
4.32005
4.32005
4.32005
4.32005
4.32005
4.32005
4.32005
4.32005
4.32005
4.32005
4.32005
4.32007
4.32055
4.33261
4.48703
4.71511
4.73783
4.73786
4.73751
4.73701
4.73707
4.73754
4.73823
4.73893
4.7398
4.74074
4.74118
4.74131
4.74116
4.7406
4.73998
4.73987
4.74002
4.74032
4.74075
4.74124
4.74146
4.74141
4.74116
4.74079
4.74026
4.73989
4.73976
4.73978
4.73989
4.74015
4.74054
4.74069
4.74061
4.74041
4.74015
4.73977
4.73944
4.73938
4.73943
4.73956
4.73982
4.74016
4.74028
4.74027
4.7402
4.74005
4.73979
4.73954
4.7395
4.73958
4.73975
4.73999
4.74034
4.74067
4.74075
4.74075
4.74069
4.74052
4.74022
4.73998
4.73993
4.73991
4.73993
4.74007
4.7403
4.74039
4.74039
4.74033
4.74021
4.74
4.73978
4.7397
4.73969
4.73974
4.73988
4.74011
4.74031
4.74035
4.74035
4.7403
4.74018
4.74
4.73988
4.73984
4.73986
4.73992
4.74002
4.74011
4.74013
4.74012
4.74008
4.74
4.73994
4.73993
4.73996
4.74002
4.74011
4.74022
4.7403
4.74034
4.74032
4.74029
4.74024
4.74017
4.74012
4.74006
4.74
4.73998
4.73998
4.73998
4.73999
4.73999
4.74001
4.74002
4.74002
4.74
4.73998
4.73996
4.73996
4.73998
4.74002
4.74008
4.74015
4.74021
4.74023
4.74022
4.7402
4.74016
4.74013
4.7401
4.74006
4.74002
4.73998
4.73997
4.73998
4.73997
4.73996
4.73998
4.73998
4.73999
4.74006
4.74036
4.74107
4.741
4.73948
4.73454
4.72564
4.71444
4.703
4.69376
4.68788
4.6847
4.68348
4.6824
4.68154
4.68084
4.68089
4.68128
4.68205
4.6829
4.68364
4.68415
4.68446
4.68469
4.68475
4.68514
4.68594
4.6876
4.69094
4.69604
4.70138
4.70571
4.70911
4.71201
4.71454
4.71679
4.71878
4.72055
4.72221
4.72375
4.72521
4.72652
4.72766
4.72864
4.72944
4.73011
4.73065
4.73109
4.73142
4.73166
4.73183
4.732
4.73216
4.73231
4.7324
4.73253
4.73269
4.73287
4.73303
4.7332
4.7334
4.73361
4.73379
4.73396
4.73415
4.73429
4.73438
4.7344
4.73444
4.73447
4.73452
4.7345
4.73456
4.73456
4.73461
4.73459
4.7346
4.7346
4.7346
4.7345
4.7344
4.73415
4.73371
4.73283
4.73137
4.72899
4.72513
4.71899
4.70943
4.69502
4.67345
4.6421
4.59747
4.53582
4.45298
4.34512
4.20953
4.04546
3.85497
3.64369
3.42152
3.20242
3.00319
2.84359
2.73989
2.6885
2.67316
2.6719
2.67215
2.67285
2.67399
2.67546
2.67706
2.67858
2.67983
2.6805
2.68068
2.6807
2.68078
2.681
2.68123
2.68118
2.68093
2.68056
2.68005
2.67942
2.67871
2.67825
2.67819
2.67824
2.67843
2.67875
2.67913
2.67941
2.6795
2.67952
2.67939
2.6791
2.67881
2.67869
2.67866
2.67863
2.67865
2.67867
2.67863
2.67857
2.67845
2.67824
2.67798
2.67776
2.67771
2.67774
2.6778
2.67792
2.67805
2.67811
2.67812
2.67808
2.67796
2.67777
2.67758
2.67745
2.67737
2.67733
2.6773
2.67728
2.67726
2.67722
2.67716
2.67705
2.6769
2.67677
2.6767
2.67668
2.67667
2.6767
2.67674
2.67675
2.67673
2.6767
2.67669
2.67669
2.67669
2.67682
2.67711
2.67748
2.67793
2.67839
2.67873
2.67888
2.67888
2.67878
2.67862
2.67844
2.67825
2.67802
2.67779
2.67755
2.67734
2.67717
2.67706
2.67698
2.67694
2.67692
2.67691
2.67691
2.67691
2.67692
2.67694
2.67696
2.67699
2.67702
2.67705
2.67709
2.67714
2.67721
2.67729
2.67739
2.67751
2.67767
2.67786
2.67808
2.67834
2.67862
2.67889
2.67914
2.67935
2.67949
2.67958
2.67964
2.67968
2.67972
2.67977
2.67981
2.67984
2.67985
2.67985
2.67985
2.67984
2.67981
2.67978
2.67974
2.67973
2.67973
2.67973
2.67973
2.67974
2.67975
2.67974
2.67973
2.67972
2.6797
2.67968
2.67968
2.67968
2.67968
2.67969
2.67971
2.67974
2.67978
2.67982
2.67984
2.67985
2.67986
2.67986
2.67986
2.67986
2.67987
2.67988
2.67989
2.67991
2.67993
2.67994
2.67994
2.67994
2.67994
2.67995
2.67995
2.67996
2.67996
2.67998
2.67999
2.68
2.68002
2.68002
2.68003
2.68003
2.68002
2.68002
2.68002
2.68002
2.68002
2.68002
2.68002
2.68002
2.68002
2.68002
2.68002
2.68002
2.68001
2.68
2.67999
2.67999
2.67998
2.67998
2.67998
2.67998
2.67994
2.67969
2.6781
2.66814
2.60764
2.31147
1.62862
1.25058
1.22145
1.22125
1.22125
1.22125
1.22125
1.22125
1.22125
1.22125
1.22125
1.22125
1.22125
1.22125
1.22125
1.22125
1.22125
1.22125
1.22125
1.22125
1.22125
1.22125
1.22125
1.22125
1.22125
1.22125
1.22125
1.22125
1.22125
1.22125
1.22125
1.22125
1.22125
1.22125
1.22125
1.22125
1.22125
1.22125
1.22125
1.22125
1.22125
1.22125
1.22125
1.22125
1.22125
1.22125
1.22125
1.22125
1.22125
1.22125
1.22125
1.22125
1.22125
1.22125
1.22125
1.22125
1.22125
1.22125
1.22125
1.22125
1.22125
1.22125
1.22125
1.22125
1.22125
1.22125
1.22125
1.22125
1.22125
1.22125
1.22125
1.22125
1.22125
1.22125
1.22125
1.22125
1.22125
1.22125
1.22125
1.22125
1.22125
1.22125
1.22125
1.22125
1.22125
1.22125
1.22125
1.22125
1.22125
1.22125
1.22125
1.22125
1.22125
1.22125
1.22125
1.22125
1.22125
1.22125
1.22125
1.22125
1.22125
1.22125
1.22125
1.22125
1.22125
1.22125
1.22125
1.22125
1.22125
1.22125
1.22125
1.22125
1.22125
1.22125
1.22125
1.22125
1.22125
1.22125
1.22125
1.22125
1.22125
1.22125
1.22125
1.22125
1.22125
1.22125
1.22125
1.22125
1.22125
1.22125
1.22125
1.22125
1.22125
1.22125
1.22125
1.22125
1.22125
1.22125
1.22125
1.22125
1.22125
1.22125
1.22125
1.22125
1.22125
1.22125
1.22125
1.22125
1.22125
1.22125
1.22125
1.22125
1.22125
1.22125
1.22125
1.22125
1.22125
1.22125
1.22125
1.22125
1.22125
1.22125
1.22125
1.22125
1.22125
1.22125
1.22125
1.22125
1.22125
1.22125
1.22125
1.22125
1.22125
1.22125
1.22125
1.22125
1.22125
1.22125
1.22125
1.22125
1.22125
1.22125
1.22125
1.22125
1.22125
1.22125
1.22125
1.22125
1.22125
1.22125
1.22125
1.22125
1.22125
1.22125
1.22125
1.22125
1.22125
1.22125
1.22125
1.22125
1.22125
1.22125
1.22125
1.22125
1.22125
1.22125
1.22125
1.22125
1.22125
1.22125
1.22125
1.22125
1.22125
1.22125
1.22125
1.22125
1.22125
1.22125
1.22125
1.22125
1.22125
4.32005
4.32005
4.32005
4.32005
4.32005
4.32005
4.32005
4.32005
4.32005
4.32005
4.32005
4.32005
4.32005
4.32005
4.32005
4.32005
4.32007
4.32055
4.33261
4.48703
4.71511
4.73783
4.73786
4.73751
4.73701
4.73707
4.73754
4.73823
4.73893
4.7398
4.74074
4.74118
4.74131
4.74116
4.7406
4.73998
4.73987
4.74002
4.74032
4.74075
4.74124
4.74146
4.74141
4.74116
4.74079
4.74026
4.73989
4.73976
4.73978
4.73989
4.74015
4.74054
4.74069
4.74061
4.74041
4.74015
4.73977
4.73944
4.73938
4.73943
4.73956
4.73982
4.74015
4.74028
4.74027
4.7402
4.74005
4.73979
4.73954
4.7395
4.73958
4.73975
4.73999
4.74034
4.74067
4.74075
4.74075
4.74069
4.74052
4.74022
4.73998
4.73993
4.73991
4.73993
4.74007
4.7403
4.74039
4.74039
4.74033
4.74021
4.74
4.73978
4.7397
4.73969
4.73974
4.73988
4.74011
4.74031
4.74035
4.74035
4.7403
4.74018
4.74
4.73988
4.73984
4.73986
4.73992
4.74002
4.74011
4.74013
4.74012
4.74008
4.74
4.73994
4.73993
4.73996
4.74002
4.74011
4.74022
4.7403
4.74034
4.74032
4.74029
4.74024
4.74017
4.74012
4.74006
4.74
4.73998
4.73998
4.73998
4.73999
4.73999
4.74001
4.74002
4.74002
4.74
4.73998
4.73996
4.73996
4.73998
4.74002
4.74008
4.74015
4.74021
4.74023
4.74022
4.7402
4.74016
4.74013
4.7401
4.74006
4.74002
4.73998
4.73997
4.73998
4.73997
4.73996
4.73998
4.73998
4.73999
4.74006
4.74036
4.74108
4.74101
4.7395
4.73455
4.72561
4.71438
4.70288
4.69372
4.68799
4.68495
4.68366
4.68245
4.68144
4.68063
4.68072
4.6812
4.68203
4.68293
4.6837
4.6842
4.68452
4.68476
4.68481
4.68514
4.68592
4.68758
4.69093
4.69604
4.70136
4.70569
4.70911
4.71201
4.71455
4.71679
4.71876
4.72053
4.7222
4.72375
4.72521
4.72652
4.72766
4.72863
4.72944
4.73011
4.73065
4.73109
4.73142
4.73166
4.73183
4.732
4.73216
4.73231
4.73239
4.73253
4.73269
4.73287
4.73303
4.7332
4.7334
4.7336
4.73378
4.73396
4.73415
4.73429
4.73438
4.7344
4.73443
4.73447
4.73452
4.7345
4.73456
4.73456
4.73462
4.73459
4.73459
4.7346
4.7346
4.73451
4.7344
4.73415
4.73371
4.73282
4.73136
4.72898
4.72513
4.71899
4.70944
4.69503
4.67347
4.64214
4.59753
4.53592
4.45313
4.34535
4.20987
4.04592
3.85556
3.64439
3.42225
3.20307
3.00371
2.84394
2.74004
2.68862
2.67319
2.6719
2.67215
2.67284
2.67397
2.67544
2.67704
2.67857
2.67984
2.68051
2.68069
2.6807
2.68079
2.681
2.68122
2.68117
2.68093
2.68056
2.68005
2.67942
2.67871
2.67826
2.67819
2.67824
2.67843
2.67875
2.67913
2.6794
2.6795
2.67952
2.67939
2.6791
2.67881
2.67869
2.67866
2.67863
2.67864
2.67867
2.67863
2.67857
2.67845
2.67825
2.67798
2.67776
2.67771
2.67774
2.6778
2.67792
2.67805
2.67811
2.67812
2.67808
2.67796
2.67777
2.67758
2.67744
2.67737
2.67733
2.6773
2.67728
2.67726
2.67722
2.67716
2.67705
2.67691
2.67678
2.67671
2.67668
2.67667
2.6767
2.67674
2.67676
2.67674
2.6767
2.67668
2.67669
2.6767
2.67681
2.6771
2.67747
2.67792
2.67838
2.67873
2.67889
2.67889
2.67879
2.67862
2.67845
2.67825
2.67803
2.67779
2.67755
2.67734
2.67717
2.67706
2.67698
2.67694
2.67692
2.67691
2.67691
2.67691
2.67693
2.67694
2.67696
2.67699
2.67702
2.67705
2.67709
2.67714
2.67721
2.67729
2.67739
2.67751
2.67767
2.67786
2.67808
2.67834
2.67862
2.67889
2.67914
2.67935
2.67949
2.67958
2.67964
2.67968
2.67972
2.67977
2.67981
2.67984
2.67985
2.67985
2.67985
2.67984
2.67981
2.67978
2.67974
2.67973
2.67973
2.67973
2.67973
2.67974
2.67975
2.67974
2.67973
2.67972
2.6797
2.67968
2.67968
2.67968
2.67968
2.67969
2.67971
2.67974
2.67978
2.67982
2.67984
2.67985
2.67986
2.67986
2.67986
2.67986
2.67987
2.67988
2.67989
2.67991
2.67993
2.67994
2.67994
2.67994
2.67994
2.67995
2.67995
2.67996
2.67996
2.67998
2.67999
2.68
2.68002
2.68002
2.68003
2.68003
2.68002
2.68002
2.68002
2.68002
2.68002
2.68002
2.68002
2.68002
2.68002
2.68002
2.68002
2.68002
2.68001
2.68
2.67999
2.67999
2.67998
2.67998
2.67998
2.67998
2.67994
2.67968
2.6781
2.66814
2.60764
2.31147
1.62862
1.25058
1.22145
1.22125
1.22125
1.22125
1.22125
1.22125
1.22125
1.22125
1.22125
1.22125
1.22125
1.22125
1.22125
1.22125
1.22125
1.22125
1.22125
1.22125
1.22125
1.22125
1.22125
1.22125
1.22125
1.22125
1.22125
1.22125
1.22125
1.22125
1.22125
1.22125
1.22125
1.22125
1.22125
1.22125
1.22125
1.22125
1.22125
1.22125
1.22125
1.22125
1.22125
1.22125
1.22125
1.22125
1.22125
1.22125
1.22125
1.22125
1.22125
1.22125
1.22125
1.22125
1.22125
1.22125
1.22125
1.22125
1.22125
1.22125
1.22125
1.22125
1.22125
1.22125
1.22125
1.22125
1.22125
1.22125
1.22125
1.22125
1.22125
1.22125
1.22125
1.22125
1.22125
1.22125
1.22125
1.22125
1.22125
1.22125
1.22125
1.22125
1.22125
1.22125
1.22125
1.22125
1.22125
1.22125
1.22125
1.22125
1.22125
1.22125
1.22125
1.22125
1.22125
1.22125
1.22125
1.22125
1.22125
1.22125
1.22125
1.22125
1.22125
1.22125
1.22125
1.22125
1.22125
1.22125
1.22125
1.22125
1.22125
1.22125
1.22125
1.22125
1.22125
1.22125
1.22125
1.22125
1.22125
1.22125
1.22125
1.22125
1.22125
1.22125
1.22125
1.22125
1.22125
1.22125
1.22125
1.22125
1.22125
1.22125
1.22125
1.22125
1.22125
1.22125
1.22125
1.22125
1.22125
1.22125
1.22125
1.22125
1.22125
1.22125
1.22125
1.22125
1.22125
1.22125
1.22125
1.22125
1.22125
1.22125
1.22125
1.22125
1.22125
1.22125
1.22125
1.22125
1.22125
1.22125
1.22125
1.22125
1.22125
1.22125
1.22125
1.22125
1.22125
1.22125
1.22125
1.22125
1.22125
1.22125
1.22125
1.22125
1.22125
1.22125
1.22125
1.22125
1.22125
1.22125
1.22125
1.22125
1.22125
1.22125
1.22125
1.22125
1.22125
1.22125
1.22125
1.22125
1.22125
1.22125
1.22125
1.22125
1.22125
1.22125
1.22125
1.22125
1.22125
1.22125
1.22125
1.22125
1.22125
1.22125
1.22125
1.22125
1.22125
1.22125
1.22125
1.22125
1.22125
1.22125
1.22125
1.22125
1.22125
1.22125
1.22125
1.22125
1.22125
1.22125
1.22125
4.32005
4.32005
4.32005
4.32005
4.32005
4.32005
4.32005
4.32005
4.32005
4.32005
4.32005
4.32005
4.32005
4.32005
4.32005
4.32005
4.32007
4.32055
4.33261
4.48703
4.71511
4.73783
4.73786
4.73751
4.73701
4.73707
4.73754
4.73823
4.73893
4.7398
4.74074
4.74118
4.74131
4.74116
4.74061
4.73998
4.73987
4.74002
4.74032
4.74075
4.74124
4.74146
4.74141
4.74116
4.74079
4.74026
4.73989
4.73976
4.73978
4.73989
4.74015
4.74054
4.74069
4.74061
4.74041
4.74015
4.73977
4.73944
4.73938
4.73943
4.73956
4.73982
4.74015
4.74028
4.74027
4.7402
4.74005
4.73979
4.73954
4.7395
4.73958
4.73975
4.73999
4.74034
4.74067
4.74075
4.74075
4.74069
4.74052
4.74022
4.73998
4.73993
4.73991
4.73993
4.74007
4.7403
4.74039
4.74039
4.74033
4.74021
4.74
4.73978
4.7397
4.73969
4.73974
4.73988
4.74011
4.74031
4.74035
4.74035
4.7403
4.74018
4.74
4.73988
4.73984
4.73986
4.73992
4.74002
4.74011
4.74013
4.74012
4.74008
4.74
4.73994
4.73993
4.73996
4.74002
4.74011
4.74022
4.7403
4.74034
4.74032
4.74029
4.74024
4.74017
4.74012
4.74006
4.74
4.73998
4.73998
4.73998
4.73999
4.73999
4.74001
4.74002
4.74002
4.74
4.73998
4.73996
4.73996
4.73998
4.74002
4.74008
4.74015
4.74021
4.74023
4.74022
4.7402
4.74016
4.74013
4.7401
4.74006
4.74002
4.73998
4.73997
4.73998
4.73997
4.73996
4.73998
4.73998
4.73999
4.74006
4.74036
4.74108
4.74102
4.73951
4.73455
4.72558
4.71432
4.70277
4.69368
4.6881
4.68519
4.68383
4.68249
4.68133
4.68044
4.68056
4.68114
4.68203
4.68297
4.68375
4.68425
4.68457
4.68483
4.68486
4.68514
4.68589
4.68757
4.69094
4.69604
4.70132
4.70568
4.70912
4.71203
4.71455
4.71677
4.71873
4.72052
4.72221
4.72376
4.72522
4.72652
4.72765
4.72863
4.72944
4.73011
4.73065
4.73109
4.73142
4.73166
4.73183
4.732
4.73216
4.7323
4.73239
4.73253
4.73269
4.73288
4.73303
4.7332
4.73339
4.7336
4.73378
4.73396
4.73415
4.73429
4.73438
4.7344
4.73443
4.73447
4.73452
4.7345
4.73456
4.73457
4.73461
4.73458
4.73459
4.7346
4.73461
4.73453
4.73441
4.73415
4.7337
4.73281
4.73136
4.72898
4.72514
4.71901
4.70947
4.69509
4.67358
4.6423
4.59777
4.53627
4.45363
4.34603
4.21079
4.04713
3.85703
3.646
3.42381
3.20443
3.00479
2.84459
2.74028
2.68872
2.67322
2.67193
2.67217
2.67284
2.67395
2.67541
2.67701
2.67855
2.67983
2.68051
2.6807
2.68071
2.6808
2.681
2.68122
2.68117
2.68092
2.68055
2.68005
2.67942
2.67872
2.67827
2.6782
2.67824
2.67843
2.67875
2.67912
2.6794
2.67949
2.67952
2.67939
2.6791
2.67881
2.67869
2.67866
2.67863
2.67864
2.67867
2.67863
2.67857
2.67846
2.67825
2.67798
2.67777
2.67771
2.67774
2.6778
2.67792
2.67805
2.67811
2.67811
2.67808
2.67796
2.67777
2.67758
2.67745
2.67737
2.67733
2.6773
2.67728
2.67726
2.67722
2.67716
2.67705
2.6769
2.67678
2.67672
2.67668
2.67668
2.67669
2.67673
2.67675
2.67674
2.67671
2.67668
2.67669
2.67672
2.67682
2.67711
2.67748
2.67794
2.6784
2.67874
2.67891
2.67891
2.6788
2.67863
2.67845
2.67826
2.67803
2.67779
2.67754
2.67733
2.67716
2.67705
2.67698
2.67694
2.67692
2.67691
2.67691
2.67692
2.67693
2.67695
2.67696
2.67699
2.67702
2.67705
2.67709
2.67714
2.67721
2.67729
2.67739
2.67751
2.67767
2.67786
2.67809
2.67834
2.67862
2.67889
2.67914
2.67935
2.67949
2.67958
2.67964
2.67968
2.67972
2.67977
2.67981
2.67984
2.67985
2.67985
2.67985
2.67984
2.67981
2.67978
2.67974
2.67973
2.67973
2.67973
2.67973
2.67974
2.67975
2.67974
2.67973
2.67972
2.6797
2.67968
2.67968
2.67968
2.67968
2.67969
2.67971
2.67974
2.67978
2.67982
2.67984
2.67985
2.67986
2.67986
2.67986
2.67986
2.67987
2.67988
2.67989
2.67991
2.67993
2.67994
2.67994
2.67994
2.67994
2.67995
2.67995
2.67996
2.67996
2.67998
2.67999
2.68
2.68002
2.68002
2.68003
2.68003
2.68002
2.68002
2.68002
2.68002
2.68002
2.68002
2.68002
2.68002
2.68002
2.68002
2.68002
2.68002
2.68001
2.68
2.67999
2.67999
2.67998
2.67998
2.67998
2.67998
2.67994
2.67968
2.6781
2.66814
2.60764
2.31147
1.62862
1.25058
1.22145
1.22125
1.22125
1.22125
1.22125
1.22125
1.22125
1.22125
1.22125
1.22125
1.22125
1.22125
1.22125
1.22125
1.22125
1.22125
1.22125
1.22125
1.22125
1.22125
1.22125
1.22125
1.22125
1.22125
1.22125
1.22125
1.22125
1.22125
1.22125
1.22125
1.22125
1.22125
1.22125
1.22125
1.22125
1.22125
1.22125
1.22125
1.22125
1.22125
1.22125
1.22125
1.22125
1.22125
1.22125
1.22125
1.22125
1.22125
1.22125
1.22125
1.22125
1.22125
1.22125
1.22125
1.22125
1.22125
1.22125
1.22125
1.22125
1.22125
1.22125
1.22125
1.22125
1.22125
1.22125
1.22125
1.22125
1.22125
1.22125
1.22125
1.22125
1.22125
1.22125
1.22125
1.22125
1.22125
1.22125
1.22125
1.22125
1.22125
1.22125
1.22125
1.22125
1.22125
1.22125
1.22125
1.22125
1.22125
1.22125
1.22125
1.22125
1.22125
1.22125
1.22125
1.22125
1.22125
1.22125
1.22125
1.22125
1.22125
1.22125
1.22125
1.22125
1.22125
1.22125
1.22125
1.22125
1.22125
1.22125
1.22125
1.22125
1.22125
1.22125
1.22125
1.22125
1.22125
1.22125
1.22125
1.22125
1.22125
1.22125
1.22125
1.22125
1.22125
1.22125
1.22125
1.22125
1.22125
1.22125
1.22125
1.22125
1.22125
1.22125
1.22125
1.22125
1.22125
1.22125
1.22125
1.22125
1.22125
1.22125
1.22125
1.22125
1.22125
1.22125
1.22125
1.22125
1.22125
1.22125
1.22125
1.22125
1.22125
1.22125
1.22125
1.22125
1.22125
1.22125
1.22125
1.22125
1.22125
1.22125
1.22125
1.22125
1.22125
1.22125
1.22125
1.22125
1.22125
1.22125
1.22125
1.22125
1.22125
1.22125
1.22125
1.22125
1.22125
1.22125
1.22125
1.22125
1.22125
1.22125
1.22125
1.22125
1.22125
1.22125
1.22125
1.22125
1.22125
1.22125
1.22125
1.22125
1.22125
1.22125
1.22125
1.22125
1.22125
1.22125
1.22125
1.22125
1.22125
1.22125
1.22125
1.22125
1.22125
1.22125
1.22125
1.22125
1.22125
1.22125
1.22125
1.22125
1.22125
1.22125
1.22125
1.22125
1.22125
1.22125
1.22125
1.22125
4.32005
4.32005
4.32005
4.32005
4.32005
4.32005
4.32005
4.32005
4.32005
4.32005
4.32005
4.32005
4.32005
4.32005
4.32005
4.32005
4.32007
4.32055
4.33261
4.48703
4.71511
4.73783
4.73786
4.73751
4.73701
4.73707
4.73754
4.73823
4.73893
4.7398
4.74074
4.74118
4.74131
4.74116
4.74061
4.73999
4.73987
4.74002
4.74032
4.74075
4.74124
4.74146
4.74141
4.74116
4.74079
4.74026
4.73989
4.73976
4.73978
4.73989
4.74015
4.74054
4.74069
4.74061
4.74041
4.74015
4.73977
4.73944
4.73938
4.73943
4.73956
4.73982
4.74015
4.74028
4.74027
4.7402
4.74005
4.73979
4.73954
4.7395
4.73958
4.73975
4.73999
4.74034
4.74067
4.74075
4.74075
4.74069
4.74052
4.74022
4.73998
4.73993
4.73991
4.73993
4.74007
4.7403
4.74039
4.74039
4.74033
4.74021
4.74
4.73978
4.7397
4.73969
4.73974
4.73988
4.74011
4.74031
4.74035
4.74035
4.7403
4.74018
4.74
4.73988
4.73984
4.73986
4.73992
4.74002
4.74011
4.74013
4.74012
4.74008
4.74
4.73994
4.73993
4.73996
4.74002
4.74011
4.74022
4.7403
4.74034
4.74032
4.74029
4.74024
4.74017
4.74012
4.74006
4.74
4.73998
4.73998
4.73998
4.73999
4.73999
4.74001
4.74002
4.74002
4.74
4.73998
4.73996
4.73996
4.73998
4.74002
4.74008
4.74015
4.74021
4.74023
4.74022
4.7402
4.74016
4.74013
4.7401
4.74006
4.74002
4.73998
4.73997
4.73998
4.73997
4.73996
4.73998
4.73998
4.73999
4.74006
4.74036
4.74109
4.74103
4.73952
4.73455
4.72555
4.71427
4.70267
4.69364
4.6882
4.68542
4.68398
4.68252
4.68123
4.68025
4.68041
4.68109
4.68203
4.68301
4.68379
4.68428
4.68461
4.68488
4.68492
4.68515
4.68586
4.68756
4.69095
4.69602
4.70128
4.70567
4.70915
4.71206
4.71455
4.71674
4.7187
4.72051
4.72222
4.72378
4.72523
4.72652
4.72764
4.72861
4.72943
4.73011
4.73065
4.73109
4.73142
4.73166
4.73183
4.732
4.73215
4.7323
4.73239
4.73254
4.73269
4.73288
4.73303
4.73319
4.73339
4.7336
4.73378
4.73396
4.73416
4.7343
4.73438
4.7344
4.73443
4.73447
4.73452
4.7345
4.73456
4.73457
4.73461
4.73457
4.73458
4.73461
4.73462
4.73454
4.73442
4.73414
4.73368
4.7328
4.73135
4.72899
4.72517
4.71905
4.70955
4.69521
4.67376
4.64255
4.59813
4.53677
4.45431
4.34694
4.21197
4.0485
3.85847
3.64743
3.42518
3.20569
3.0059
2.84537
2.7407
2.68892
2.67328
2.67196
2.6722
2.67286
2.67394
2.67537
2.67698
2.67852
2.67982
2.68051
2.68071
2.68073
2.68081
2.68102
2.68123
2.68117
2.68092
2.68054
2.68004
2.67942
2.67873
2.67827
2.6782
2.67825
2.67843
2.67874
2.67912
2.67939
2.67949
2.67951
2.67939
2.67911
2.67882
2.6787
2.67866
2.67863
2.67864
2.67867
2.67863
2.67857
2.67845
2.67825
2.67798
2.67777
2.67771
2.67774
2.6778
2.67791
2.67805
2.67811
2.67811
2.67808
2.67796
2.67778
2.67758
2.67745
2.67737
2.67733
2.6773
2.67728
2.67726
2.67722
2.67716
2.67706
2.6769
2.67679
2.67673
2.67669
2.67668
2.6767
2.67673
2.67676
2.67675
2.67671
2.67668
2.67668
2.67673
2.67685
2.67711
2.6775
2.67795
2.67841
2.67876
2.67894
2.67894
2.67883
2.67866
2.67848
2.67828
2.67804
2.67779
2.67753
2.67731
2.67715
2.67704
2.67697
2.67694
2.67692
2.67692
2.67692
2.67693
2.67694
2.67695
2.67697
2.67699
2.67701
2.67705
2.67709
2.67714
2.67721
2.67729
2.67739
2.67752
2.67767
2.67786
2.67809
2.67834
2.67862
2.67889
2.67914
2.67934
2.67949
2.67958
2.67964
2.67968
2.67973
2.67977
2.67981
2.67984
2.67985
2.67985
2.67985
2.67984
2.67981
2.67978
2.67974
2.67973
2.67973
2.67973
2.67973
2.67974
2.67975
2.67974
2.67973
2.67972
2.6797
2.67968
2.67968
2.67968
2.67968
2.67969
2.67971
2.67974
2.67978
2.67982
2.67984
2.67985
2.67986
2.67986
2.67986
2.67986
2.67987
2.67988
2.67989
2.67991
2.67993
2.67994
2.67994
2.67994
2.67994
2.67995
2.67995
2.67996
2.67996
2.67998
2.67999
2.68
2.68002
2.68002
2.68003
2.68003
2.68002
2.68002
2.68002
2.68002
2.68002
2.68002
2.68002
2.68002
2.68002
2.68002
2.68002
2.68002
2.68001
2.68
2.67999
2.67999
2.67998
2.67998
2.67998
2.67998
2.67994
2.67968
2.6781
2.66814
2.60764
2.31147
1.62862
1.25058
1.22145
1.22125
1.22125
1.22125
1.22125
1.22125
1.22125
1.22125
1.22125
1.22125
1.22125
1.22125
1.22125
1.22125
1.22125
1.22125
1.22125
1.22125
1.22125
1.22125
1.22125
1.22125
1.22125
1.22125
1.22125
1.22125
1.22125
1.22125
1.22125
1.22125
1.22125
1.22125
1.22125
1.22125
1.22125
1.22125
1.22125
1.22125
1.22125
1.22125
1.22125
1.22125
1.22125
1.22125
1.22125
1.22125
1.22125
1.22125
1.22125
1.22125
1.22125
1.22125
1.22125
1.22125
1.22125
1.22125
1.22125
1.22125
1.22125
1.22125
1.22125
1.22125
1.22125
1.22125
1.22125
1.22125
1.22125
1.22125
1.22125
1.22125
1.22125
1.22125
1.22125
1.22125
1.22125
1.22125
1.22125
1.22125
1.22125
1.22125
1.22125
1.22125
1.22125
1.22125
1.22125
1.22125
1.22125
1.22125
1.22125
1.22125
1.22125
1.22125
1.22125
1.22125
1.22125
1.22125
1.22125
1.22125
1.22125
1.22125
1.22125
1.22125
1.22125
1.22125
1.22125
1.22125
1.22125
1.22125
1.22125
1.22125
1.22125
1.22125
1.22125
1.22125
1.22125
1.22125
1.22125
1.22125
1.22125
1.22125
1.22125
1.22125
1.22125
1.22125
1.22125
1.22125
1.22125
1.22125
1.22125
1.22125
1.22125
1.22125
1.22125
1.22125
1.22125
1.22125
1.22125
1.22125
1.22125
1.22125
1.22125
1.22125
1.22125
1.22125
1.22125
1.22125
1.22125
1.22125
1.22125
1.22125
1.22125
1.22125
1.22125
1.22125
1.22125
1.22125
1.22125
1.22125
1.22125
1.22125
1.22125
1.22125
1.22125
1.22125
1.22125
1.22125
1.22125
1.22125
1.22125
1.22125
1.22125
1.22125
1.22125
1.22125
1.22125
1.22125
1.22125
1.22125
1.22125
1.22125
1.22125
1.22125
1.22125
1.22125
1.22125
1.22125
1.22125
1.22125
1.22125
1.22125
1.22125
1.22125
1.22125
1.22125
1.22125
1.22125
1.22125
1.22125
1.22125
1.22125
1.22125
1.22125
1.22125
1.22125
1.22125
1.22125
1.22125
1.22125
1.22125
1.22125
1.22125
1.22125
1.22125
1.22125
1.22125
1.22125
1.22125
1.22125
1.22125
4.32005
4.32005
4.32005
4.32005
4.32005
4.32005
4.32005
4.32005
4.32005
4.32005
4.32005
4.32005
4.32005
4.32005
4.32005
4.32005
4.32007
4.32055
4.33261
4.48703
4.71511
4.73783
4.73786
4.73751
4.73701
4.73707
4.73754
4.73823
4.73892
4.7398
4.74074
4.74118
4.74131
4.74116
4.74061
4.73999
4.73987
4.74002
4.74032
4.74075
4.74124
4.74146
4.74141
4.74116
4.74079
4.74026
4.73989
4.73976
4.73978
4.73989
4.74015
4.74054
4.74069
4.74061
4.74041
4.74015
4.73977
4.73944
4.73938
4.73943
4.73956
4.73982
4.74015
4.74028
4.74027
4.7402
4.74005
4.73979
4.73954
4.7395
4.73958
4.73975
4.73999
4.74034
4.74067
4.74075
4.74075
4.74069
4.74052
4.74022
4.73998
4.73993
4.73991
4.73993
4.74007
4.7403
4.74039
4.74039
4.74033
4.74021
4.74
4.73978
4.7397
4.73969
4.73974
4.73988
4.74011
4.74031
4.74035
4.74035
4.7403
4.74018
4.74
4.73988
4.73984
4.73986
4.73992
4.74002
4.74011
4.74013
4.74012
4.74008
4.74
4.73994
4.73993
4.73996
4.74002
4.74011
4.74022
4.7403
4.74034
4.74032
4.74029
4.74024
4.74017
4.74012
4.74006
4.74
4.73998
4.73998
4.73998
4.73999
4.73999
4.74001
4.74002
4.74002
4.74
4.73998
4.73996
4.73996
4.73998
4.74002
4.74008
4.74015
4.74021
4.74023
4.74022
4.7402
4.74016
4.74013
4.7401
4.74006
4.74002
4.73998
4.73997
4.73998
4.73997
4.73996
4.73998
4.73998
4.73999
4.74006
4.74036
4.74109
4.74104
4.73953
4.73456
4.72552
4.71422
4.70258
4.69361
4.68829
4.68561
4.68413
4.68255
4.68114
4.68008
4.68028
4.68104
4.68205
4.68304
4.68382
4.68431
4.68464
4.68493
4.68497
4.68516
4.68584
4.68754
4.69097
4.69601
4.70123
4.70566
4.70919
4.7121
4.71454
4.7167
4.71866
4.72051
4.72224
4.72381
4.72524
4.72651
4.72762
4.7286
4.72943
4.73011
4.73065
4.73109
4.73142
4.73166
4.73183
4.732
4.73215
4.73229
4.73238
4.73254
4.7327
4.73289
4.73303
4.73319
4.73338
4.73359
4.73379
4.73397
4.73416
4.7343
4.73437
4.73439
4.73443
4.73447
4.73452
4.7345
4.73456
4.73457
4.73461
4.73457
4.73459
4.73462
4.73464
4.73455
4.73441
4.73412
4.73367
4.73279
4.73137
4.72902
4.72522
4.71912
4.70965
4.69538
4.67399
4.64288
4.59858
4.53736
4.45508
4.34787
4.21298
4.04951
3.85945
3.64826
3.4259
3.20643
3.00668
2.84601
2.74105
2.6891
2.67332
2.67198
2.67223
2.67286
2.67392
2.67535
2.67694
2.67849
2.67981
2.68051
2.68072
2.68074
2.68082
2.68103
2.68123
2.68116
2.68091
2.68054
2.68003
2.67942
2.67873
2.67828
2.67821
2.67826
2.67843
2.67874
2.67911
2.67939
2.67948
2.67951
2.67939
2.67911
2.67882
2.6787
2.67866
2.67863
2.67864
2.67866
2.67863
2.67857
2.67845
2.67825
2.67799
2.67777
2.67771
2.67774
2.6778
2.67791
2.67805
2.6781
2.67811
2.67808
2.67796
2.67778
2.67758
2.67745
2.67737
2.67733
2.6773
2.67728
2.67726
2.67723
2.67716
2.67706
2.6769
2.6768
2.67674
2.6767
2.67669
2.6767
2.67673
2.67677
2.67676
2.67672
2.67669
2.67669
2.67674
2.67688
2.67712
2.67751
2.67798
2.67845
2.67881
2.67899
2.679
2.67888
2.6787
2.67852
2.67831
2.67806
2.67779
2.67752
2.67728
2.67712
2.67701
2.67696
2.67693
2.67693
2.67693
2.67693
2.67694
2.67695
2.67696
2.67697
2.67699
2.67701
2.67704
2.67708
2.67714
2.67721
2.67729
2.67739
2.67752
2.67768
2.67786
2.67809
2.67834
2.67861
2.67889
2.67914
2.67934
2.67949
2.67958
2.67964
2.67969
2.67973
2.67977
2.67981
2.67984
2.67985
2.67985
2.67984
2.67983
2.67981
2.67978
2.67975
2.67973
2.67973
2.67973
2.67973
2.67974
2.67975
2.67974
2.67973
2.67972
2.6797
2.67969
2.67968
2.67968
2.67968
2.67969
2.67971
2.67974
2.67978
2.67981
2.67984
2.67985
2.67986
2.67986
2.67986
2.67986
2.67987
2.67988
2.67989
2.67991
2.67993
2.67994
2.67994
2.67994
2.67994
2.67995
2.67995
2.67996
2.67996
2.67998
2.67999
2.68
2.68002
2.68002
2.68003
2.68003
2.68002
2.68002
2.68002
2.68002
2.68002
2.68002
2.68002
2.68002
2.68002
2.68002
2.68002
2.68002
2.68001
2.68
2.67999
2.67999
2.67998
2.67998
2.67998
2.67998
2.67994
2.67968
2.6781
2.66814
2.60764
2.31147
1.62862
1.25058
1.22145
1.22125
1.22125
1.22125
1.22125
1.22125
1.22125
1.22125
1.22125
1.22125
1.22125
1.22125
1.22125
1.22125
1.22125
1.22125
1.22125
1.22125
1.22125
1.22125
1.22125
1.22125
1.22125
1.22125
1.22125
1.22125
1.22125
1.22125
1.22125
1.22125
1.22125
1.22125
1.22125
1.22125
1.22125
1.22125
1.22125
1.22125
1.22125
1.22125
1.22125
1.22125
1.22125
1.22125
1.22125
1.22125
1.22125
1.22125
1.22125
1.22125
1.22125
1.22125
1.22125
1.22125
1.22125
1.22125
1.22125
1.22125
1.22125
1.22125
1.22125
1.22125
1.22125
1.22125
1.22125
1.22125
1.22125
1.22125
1.22125
1.22125
1.22125
1.22125
1.22125
1.22125
1.22125
1.22125
1.22125
1.22125
1.22125
1.22125
1.22125
1.22125
1.22125
1.22125
1.22125
1.22125
1.22125
1.22125
1.22125
1.22125
1.22125
1.22125
1.22125
1.22125
1.22125
1.22125
1.22125
1.22125
1.22125
1.22125
1.22125
1.22125
1.22125
1.22125
1.22125
1.22125
1.22125
1.22125
1.22125
1.22125
1.22125
1.22125
1.22125
1.22125
1.22125
1.22125
1.22125
1.22125
1.22125
1.22125
1.22125
1.22125
1.22125
1.22125
1.22125
1.22125
1.22125
1.22125
1.22125
1.22125
1.22125
1.22125
1.22125
1.22125
1.22125
1.22125
1.22125
1.22125
1.22125
1.22125
1.22125
1.22125
1.22125
1.22125
1.22125
1.22125
1.22125
1.22125
1.22125
1.22125
1.22125
1.22125
1.22125
1.22125
1.22125
1.22125
1.22125
1.22125
1.22125
1.22125
1.22125
1.22125
1.22125
1.22125
1.22125
1.22125
1.22125
1.22125
1.22125
1.22125
1.22125
1.22125
1.22125
1.22125
1.22125
1.22125
1.22125
1.22125
1.22125
1.22125
1.22125
1.22125
1.22125
1.22125
1.22125
1.22125
1.22125
1.22125
1.22125
1.22125
1.22125
1.22125
1.22125
1.22125
1.22125
1.22125
1.22125
1.22125
1.22125
1.22125
1.22125
1.22125
1.22125
1.22125
1.22125
1.22125
1.22125
1.22125
1.22125
1.22125
1.22125
1.22125
1.22125
1.22125
1.22125
1.22125
1.22125
1.22125
1.22125
4.32005
4.32005
4.32005
4.32005
4.32005
4.32005
4.32005
4.32005
4.32005
4.32005
4.32005
4.32005
4.32005
4.32005
4.32005
4.32005
4.32007
4.32055
4.33261
4.48703
4.71511
4.73783
4.73786
4.73751
4.73701
4.73707
4.73754
4.73823
4.73892
4.7398
4.74074
4.74118
4.74131
4.74116
4.74061
4.73999
4.73987
4.74002
4.74032
4.74075
4.74124
4.74146
4.74141
4.74116
4.74079
4.74026
4.73989
4.73976
4.73978
4.73989
4.74015
4.74054
4.74069
4.74061
4.74041
4.74015
4.73977
4.73944
4.73938
4.73943
4.73956
4.73982
4.74015
4.74028
4.74027
4.7402
4.74005
4.73979
4.73954
4.7395
4.73958
4.73975
4.73999
4.74034
4.74067
4.74075
4.74075
4.74069
4.74052
4.74022
4.73998
4.73993
4.73991
4.73993
4.74007
4.7403
4.74039
4.74039
4.74033
4.74021
4.74
4.73978
4.7397
4.73969
4.73974
4.73988
4.74011
4.74031
4.74035
4.74035
4.7403
4.74018
4.74
4.73988
4.73984
4.73986
4.73992
4.74002
4.74011
4.74013
4.74012
4.74008
4.74
4.73994
4.73993
4.73996
4.74002
4.74011
4.74022
4.7403
4.74034
4.74032
4.74029
4.74024
4.74017
4.74012
4.74006
4.74
4.73998
4.73998
4.73998
4.73999
4.73999
4.74001
4.74002
4.74002
4.74
4.73998
4.73996
4.73996
4.73998
4.74002
4.74008
4.74015
4.74021
4.74023
4.74022
4.7402
4.74016
4.74013
4.7401
4.74006
4.74002
4.73998
4.73997
4.73998
4.73997
4.73996
4.73998
4.73998
4.73999
4.74006
4.74036
4.74109
4.74105
4.73954
4.73456
4.7255
4.71419
4.70251
4.69358
4.68836
4.68576
4.68425
4.68258
4.68106
4.67994
4.68018
4.68101
4.68207
4.68308
4.68384
4.68432
4.68466
4.68497
4.68501
4.68516
4.68581
4.68753
4.69098
4.69599
4.70119
4.70566
4.70924
4.71213
4.71453
4.71666
4.71863
4.7205
4.72227
4.72384
4.72525