/*--------------------------------*- C++ -*----------------------------------*\
| =========                 |                                                 |
| \\      /  F ield         | OpenFOAM: The Open Source CFD Toolbox           |
|  \\    /   O peration     | Version:  2406                                  |
|   \\  /    A nd           | Website:  www.openfoam.com                      |
|    \\/     M anipulation  |                                                 |
\*---------------------------------------------------------------------------*/
FoamFile
{
    version     2.0;
    format      ascii;
    arch        "LSB;label=32;scalar=64";
    class       volVectorField;
    location    "0.035";
    object      U;
}
// * * * * * * * * * * * * * * * * * * * * * * * * * * * * * * * * * * * * * //

dimensions      [0 1 -1 0 0 0 0];

internalField   nonuniform List<vector> 
83682
(
(347.059 -7.73765e-12 -2.22491e-11)
(347.059 -6.07181e-12 -2.151e-11)
(347.059 -4.68722e-12 -2.10042e-11)
(347.059 -6.17151e-12 -2.03792e-11)
(347.059 -9.39421e-12 -2.27366e-11)
(347.059 -1.20201e-11 -2.07599e-11)
(347.059 -8.7289e-12 -2.10424e-11)
(347.059 -3.36355e-12 -2.00945e-11)
(347.059 2.51717e-12 -2.16645e-11)
(347.059 6.68828e-12 -2.15465e-11)
(347.059 9.40129e-12 -2.10007e-11)
(347.059 9.2701e-12 -2.09674e-11)
(347.059 8.93772e-12 -2.10072e-11)
(347.059 1.40118e-11 -2.13686e-11)
(347.059 -6.31565e-11 -1.62535e-11)
(347.059 1.98655e-09 -1.40786e-10)
(347.058 -3.5789e-08 2.28096e-09)
(347.024 4.60382e-07 -3.22324e-08)
(346.168 -7.58321e-07 1.46422e-07)
(335.304 -6.03358e-05 2.63303e-06)
(320.055 4.87661e-05 -2.65298e-06)
(318.518 7.13765e-05 -4.03346e-06)
(318.495 8.02125e-05 -4.94993e-06)
(318.472 3.84013e-05 -2.63404e-06)
(318.444 -4.34942e-05 2.38964e-06)
(318.435 -6.40774e-05 3.73121e-06)
(318.42 -6.02407e-05 3.73185e-06)
(318.403 -5.35198e-05 3.3598e-06)
(318.39 -3.34995e-05 2.74447e-06)
(318.38 9.59478e-08 5.40632e-07)
(318.363 3.81988e-05 -2.67597e-06)
(318.331 4.11094e-05 -2.98686e-06)
(318.311 4.47252e-05 -3.88586e-06)
(318.296 4.0292e-05 -4.29874e-06)
(318.282 6.00958e-06 -1.20284e-06)
(318.276 -3.65177e-05 3.38087e-06)
(318.284 -4.21799e-05 4.30288e-06)
(318.288 -3.62675e-05 3.75335e-06)
(318.288 -4.15861e-05 6.09121e-06)
(318.286 -1.86605e-05 2.58108e-06)
(318.279 1.69163e-05 -2.96278e-06)
(318.263 2.22157e-05 -3.8552e-06)
(318.253 2.45065e-05 -5.1382e-06)
(318.252 2.43878e-05 -6.487e-06)
(318.254 1.78148e-05 -4.30124e-06)
(318.257 -8.9009e-08 1.3277e-06)
(318.271 -9.06815e-06 3.49752e-06)
(318.285 -8.24376e-06 4.43152e-06)
(318.296 -8.63648e-06 6.63535e-06)
(318.309 -9.27981e-06 5.40879e-06)
(318.321 -6.69039e-06 6.58032e-07)
(318.335 6.60203e-07 -4.48282e-06)
(318.338 4.25271e-06 -6.7019e-06)
(318.34 2.7982e-06 -6.96431e-06)
(318.343 2.71545e-06 -7.75929e-06)
(318.342 1.03274e-05 -4.54171e-06)
(318.337 1.40281e-05 1.39927e-06)
(318.334 1.08412e-05 5.28164e-06)
(318.337 1.02495e-05 5.61989e-06)
(318.337 1.07891e-05 6.0652e-06)
(318.338 8.01386e-06 5.1386e-06)
(318.339 -1.25147e-06 8.64424e-07)
(318.341 -7.566e-06 -3.74548e-06)
(318.335 -8.66104e-06 -4.81648e-06)
(318.331 -1.07786e-05 -5.5296e-06)
(318.327 -1.26007e-05 -5.82726e-06)
(318.32 -7.24017e-06 -3.31096e-06)
(318.312 1.32751e-06 7.71561e-07)
(318.307 6.24967e-06 3.97587e-06)
(318.31 7.38748e-06 4.54219e-06)
(318.311 8.64217e-06 4.74203e-06)
(318.313 7.13084e-06 4.0735e-06)
(318.317 1.56337e-06 2.39142e-06)
(318.323 -4.52558e-06 3.45365e-07)
(318.328 -8.3387e-06 -1.04319e-06)
(318.325 -9.24974e-06 -1.11596e-06)
(318.322 -8.97744e-06 -8.92171e-07)
(318.318 -7.0917e-06 8.6096e-09)
(318.313 -4.09071e-06 4.9227e-07)
(318.307 -7.06524e-07 -3.00564e-07)
(318.305 3.9653e-07 -1.26571e-06)
(318.307 2.28724e-07 -1.61639e-06)
(318.31 6.08759e-08 -1.73242e-06)
(318.314 8.39653e-07 -3.68392e-07)
(318.318 2.74616e-06 3.24843e-06)
(318.322 4.16423e-06 6.01685e-06)
(318.32 4.71727e-06 6.67825e-06)
(318.318 5.30874e-06 7.26751e-06)
(318.316 4.25485e-06 5.60345e-06)
(318.314 -6.8637e-07 -1.24748e-06)
(318.311 -7.30021e-06 -9.97552e-06)
(318.312 -1.32198e-05 -1.62891e-05)
(318.319 -1.48745e-05 -1.7293e-05)
(318.324 -1.60737e-05 -1.62235e-05)
(318.328 -1.35917e-05 -1.19522e-05)
(318.332 -8.70863e-06 -6.52502e-06)
(318.336 -3.47705e-06 -6.64045e-07)
(318.339 -1.44666e-06 6.90092e-07)
(318.338 8.63447e-07 2.35671e-06)
(318.337 -8.87611e-07 1.41586e-07)
(318.335 -6.46734e-06 -4.65803e-06)
(318.333 -7.28658e-06 -3.85858e-06)
(318.331 -2.62962e-06 2.11943e-06)
(318.328 4.88272e-06 1.23044e-05)
(318.325 6.25064e-06 1.43069e-05)
(318.323 8.26346e-06 1.60575e-05)
(318.321 1.45044e-05 1.96924e-05)
(318.32 1.74397e-05 1.50137e-05)
(318.318 1.30909e-05 1.83648e-06)
(318.316 1.01963e-05 -3.19721e-06)
(318.316 3.14095e-06 -1.26693e-05)
(318.316 -5.26394e-06 -2.0481e-05)
(318.316 -7.9883e-06 -1.21023e-05)
(318.315 2.22183e-06 1.95119e-05)
(318.315 9.86031e-06 3.58164e-05)
(318.314 1.76715e-05 4.87452e-05)
(318.314 2.33656e-05 5.18026e-05)
(318.315 2.69388e-05 4.41652e-05)
(318.317 2.76756e-05 2.64073e-05)
(318.322 1.68266e-05 -9.60254e-06)
(318.327 -7.79299e-06 -6.09341e-05)
(318.329 -2.75525e-05 -9.39169e-05)
(318.33 -5.15029e-05 -0.00013288)
(318.33 -8.92107e-05 -0.000183606)
(318.329 -0.000119369 -0.000212044)
(318.327 -0.000134286 -0.000212538)
(318.323 -0.000134314 -0.000187122)
(318.319 -0.000120215 -0.000139651)
(318.316 -9.36034e-05 -8.85838e-05)
(318.317 -7.81626e-05 -6.55121e-05)
(318.317 -4.57303e-05 -1.58374e-07)
(318.317 3.35845e-06 8.56341e-05)
(318.318 3.06286e-05 0.000116155)
(318.318 5.21882e-05 0.00012923)
(318.318 6.6748e-05 0.000133283)
(318.318 6.89772e-05 0.000132333)
(318.319 7.02725e-05 0.000125385)
(318.321 7.0271e-05 0.000120472)
(318.323 6.5578e-05 0.000107135)
(318.325 5.4122e-05 8.65888e-05)
(318.327 4.12661e-05 6.73734e-05)
(318.328 3.04611e-05 5.26104e-05)
(318.329 2.15181e-05 4.13086e-05)
(318.33 1.40756e-05 3.18149e-05)
(318.33 7.92859e-06 2.4084e-05)
(318.33 4.69151e-06 2.00302e-05)
(318.33 2.38569e-06 1.67064e-05)
(318.331 -1.28465e-06 1.22987e-05)
(318.331 -3.18085e-06 8.74061e-06)
(318.33 -5.99631e-06 6.29973e-06)
(318.327 -3.9623e-06 4.37538e-06)
(318.324 -8.71905e-06 3.34196e-06)
(318.319 -3.74275e-06 2.20497e-06)
(318.314 -1.01897e-05 1.8658e-06)
(318.311 -2.02681e-06 9.02416e-07)
(318.31 -1.15924e-05 1.11507e-06)
(318.311 9.55772e-06 -5.45663e-08)
(318.312 -2.27668e-05 1.12103e-06)
(318.314 1.75679e-05 -2.75691e-07)
(318.317 -2.51766e-05 4.08576e-07)
(318.32 -2.52269e-05 6.20157e-07)
(318.32 0.00020294 -9.83436e-06)
(318.305 -0.000485772 1.69339e-05)
(318.261 -0.000206741 1.03846e-05)
(318.266 0.000889561 -2.97713e-05)
(318.366 0.001633 -5.03542e-05)
(318.692 0.00191903 -8.63562e-05)
(319.279 0.00221647 -0.000117341)
(320.02 -0.00286783 0.000148764)
(320.779 -0.00681713 0.000170503)
(321.393 -0.0146193 0.00041986)
(321.784 -0.0115675 0.000519499)
(321.996 0.000226463 -4.99424e-05)
(322.078 0.0139816 8.88132e-05)
(322.144 0.0234523 -0.00059327)
(322.193 0.0207968 -0.000766821)
(322.235 0.00968686 -0.00047286)
(322.224 -0.00249193 -0.000108801)
(322.193 -0.0120694 0.000270796)
(322.142 -0.0137939 0.000369383)
(322.086 -0.0127277 0.000408268)
(322.04 -0.009357 0.000286488)
(322.012 -0.00606507 0.000223341)
(321.995 -0.00148523 4.79404e-05)
(321.986 0.00242994 5.51591e-06)
(321.987 0.00942435 -0.000305367)
(321.964 0.0089958 -0.000325252)
(321.913 0.0078932 -0.000312309)
(321.803 0.00621492 -0.000264133)
(321.581 0.00581585 -0.000238299)
(321.242 0.00491394 -0.000255019)
(320.886 0.00533681 -0.000218374)
(320.597 0.0047426 -0.000250866)
(320.368 0.00437047 -0.00019968)
(320.174 0.00376633 -0.000121807)
(320.004 0.00416293 -0.000149137)
(319.852 0.00380234 -0.000147585)
(319.717 0.00350963 -0.000129858)
(319.596 0.00265705 -6.78791e-05)
(319.483 0.00150213 1.51087e-05)
(319.378 0.00121699 1.87939e-05)
(319.28 0.00140518 -6.7266e-06)
(319.191 0.00158353 -4.35434e-05)
(319.116 0.00159545 -5.86925e-05)
(319.052 0.00165586 -5.34776e-05)
(319.001 0.0015288 -2.57616e-05)
(318.961 0.00126237 4.44197e-06)
(318.929 0.00107163 2.10421e-05)
(318.904 0.000953444 2.37634e-05)
(318.887 0.000809487 1.59373e-05)
(318.873 0.000708031 -2.39456e-06)
(318.863 0.00067103 -1.2783e-05)
(318.851 0.00064963 -2.61587e-05)
(318.839 0.000590607 -3.34066e-05)
(318.828 0.000588242 -1.88433e-05)
(318.82 0.000618722 3.36091e-06)
(318.809 0.00051306 3.89224e-05)
(318.796 0.000348298 8.30688e-05)
(318.782 0.000307379 0.000118768)
(318.77 0.000370843 0.000126954)
(318.757 0.000501218 0.000132229)
(318.742 0.000602286 0.000132039)
(318.727 0.000603515 0.000148269)
(318.713 0.000487566 0.000186707)
(318.701 0.000206686 0.000210925)
(318.687 -2.05407e-05 0.000189461)
(318.677 -6.9614e-05 0.000165211)
(318.672 -7.11137e-05 0.000144308)
(318.67 -6.94357e-05 0.000112027)
(318.669 -0.000131759 8.14576e-05)
(318.668 -8.89938e-05 5.7677e-05)
(318.668 9.85886e-05 4.79998e-05)
(318.67 0.000310399 4.75001e-05)
(318.667 0.000321307 6.69921e-05)
(318.667 0.000251092 7.84114e-05)
(318.663 -0.000200153 0.000113143)
(318.665 -0.000958359 0.000160347)
(318.663 -0.00187598 0.000209584)
(318.66 -0.00219427 0.00023365)
(318.657 -0.00182654 0.000233116)
(318.656 -0.00107475 0.000209527)
(318.65 -0.00037632 0.000167412)
(318.645 -0.000784073 0.000144506)
(318.638 -0.00360661 0.000194826)
(318.637 -0.0072582 0.000292047)
(318.633 -0.00690015 0.000139463)
(318.626 -0.00241267 -0.000193733)
(318.618 0.00822374 -0.000839748)
(318.609 0.0200283 -0.00146564)
(318.601 0.0277856 -0.0018865)
(318.588 0.0204479 -0.00145441)
(318.585 -0.0078827 0.000159695)
(318.584 -0.04263 0.00198441)
(318.595 -0.0767455 0.00364901)
(318.608 -0.108639 0.00509407)
(318.627 -0.127506 0.00593899)
(318.651 -0.107904 0.00485452)
(318.671 -0.0502337 0.00200555)
(318.68 0.0372591 -0.00233843)
(318.67 0.158311 -0.00798938)
(318.632 0.299627 -0.0154625)
(318.561 0.41834 -0.0207908)
(318.473 0.45465 -0.0228468)
(318.303 0.443616 -0.0220277)
(318.131 0.358552 -0.0171009)
(318.222 0.221793 -0.0103409)
(317.925 0.115844 -0.00474372)
(317.673 0.0689711 -0.00189606)
(317.76 0.0620073 -0.00146296)
(317.779 0.0567032 -0.00109304)
(317.828 0.0485683 -0.000475026)
(317.899 0.0433067 -5.89852e-05)
(317.954 0.0380207 0.000229797)
(317.962 0.0297524 0.000724228)
(317.919 0.0230352 0.00113975)
(317.844 0.0120512 0.00236137)
(317.751 0.00872086 0.00272215)
(317.677 0.00549502 0.0030213)
(317.649 0.00328676 0.00310958)
(317.659 0.00215004 0.00306172)
(317.703 0.00110742 0.00289642)
(317.77 0.000495392 0.00261954)
(317.814 0.000171254 0.00233385)
(317.836 -2.10515e-05 0.00214037)
(317.845 -0.000415365 0.00185193)
(317.829 -0.000894114 0.00159325)
(317.776 -0.0014255 0.00139881)
(317.696 -0.00187009 0.00124038)
(317.641 -0.0020938 0.00110381)
(317.636 -0.00212637 0.00101969)
(317.642 -0.00205522 0.000949258)
(317.662 -0.00190838 0.000884992)
(317.697 -0.00170889 0.000844645)
(317.736 -0.00149632 0.000800183)
(317.757 -0.00132837 0.000743963)
(317.75 -0.00127747 0.000704394)
(317.734 -0.00125942 0.000648052)
(317.702 -0.00130888 0.000561112)
(317.653 -0.00132213 0.000449226)
(317.611 -0.00124752 0.000310381)
(317.598 -0.00116033 0.000175299)
(317.599 -0.0011036 9.2849e-05)
(317.608 -0.00104945 2.12183e-05)
(317.626 -0.000995578 -4.21459e-05)
(317.645 -0.00093679 -7.75023e-05)
(317.653 -0.000879112 -9.11571e-05)
(317.655 -0.000788691 -0.000107312)
(317.645 -0.000616386 -0.000152355)
(317.62 -0.000354667 -0.000228332)
(317.582 -4.73083e-06 -0.000313079)
(317.547 0.000298363 -0.000393667)
(317.535 0.000445726 -0.000446607)
(317.533 0.000475802 -0.00047206)
(317.535 0.000422095 -0.000501601)
(317.544 0.000231656 -0.000520323)
(317.555 -4.86876e-05 -0.000539256)
(317.557 -0.000336039 -0.000567579)
(317.554 -0.000499237 -0.000592002)
(317.547 -0.000917372 -0.000632645)
(317.53 -0.00116798 -0.000640312)
(317.504 -0.00129576 -0.000604103)
(317.477 -0.0011503 -0.000550622)
(317.461 -0.000196091 -0.00053268)
(317.454 0.0017379 -0.000620622)
(317.453 0.00412761 -0.000791649)
(317.455 0.00609477 -0.000970434)
(317.455 0.00744316 -0.00112716)
(317.454 0.00820898 -0.00126418)
(317.449 0.00799875 -0.00138614)
(317.439 0.00537885 -0.00141421)
(317.421 -0.00136974 -0.0011904)
(317.397 -0.015456 -0.00050508)
(317.38 -0.0383785 0.000852566)
(317.379 -0.0639256 0.00250487)
(317.39 -0.0840902 0.0038874)
(317.408 -0.0942197 0.00464975)
(317.431 -0.0955614 0.00482553)
(317.457 -0.0877499 0.00461617)
(317.475 -0.0700339 0.00393705)
(317.481 -0.0438973 0.00295706)
(317.475 -0.00374714 0.00154782)
(317.457 0.0469249 -0.000591929)
(317.423 0.0888512 -0.00257437)
(317.378 0.110247 -0.00355214)
(317.336 0.117329 -0.00385963)
(317.305 0.117687 -0.00390673)
(317.275 0.114101 -0.00373653)
(317.249 0.101785 -0.00276247)
(317.229 0.0766438 -0.00128542)
(317.212 0.0410548 0.00011424)
(317.199 0.00510011 0.00146419)
(317.186 -0.0188917 0.00283001)
(317.173 -0.028797 0.00389502)
(317.162 -0.031711 0.00467848)
(317.151 -0.0321244 0.00520407)
(317.142 -0.0311397 0.0054791)
(317.136 -0.0277748 0.00555767)
(317.135 -0.0221249 0.00573672)
(317.138 -0.0159095 0.00594993)
(317.142 -0.0103561 0.00564052)
(317.147 -0.00607161 0.00479033)
(317.153 -0.00326013 0.00388057)
(317.157 -0.0010057 0.00298904)
(317.161 0.000142654 0.00247048)
(317.165 0.00111101 0.00197374)
(317.169 0.00241396 0.0013355)
(317.173 0.00346561 0.000907811)
(317.178 0.00407357 0.000775897)
(317.184 0.00424629 0.000870634)
(317.193 0.00397701 0.00104806)
(317.203 0.00339961 0.00116383)
(317.214 0.00267265 0.00117082)
(317.227 0.00192472 0.00110628)
(317.239 0.00125766 0.000994677)
(317.251 0.000764211 0.000853746)
(317.263 0.000495426 0.000708185)
(317.275 0.000417512 0.000594052)
(317.29 0.00045673 0.000523159)
(317.306 0.000536066 0.000479965)
(317.326 0.000567237 0.000448146)
(317.351 0.000502639 0.00041409)
(317.382 0.000357272 0.00036553)
(317.418 0.000154467 0.00031409)
(317.459 -5.90459e-05 0.0002786)
(317.504 -0.000227332 0.000251048)
(317.55 -0.000324049 0.000229552)
(317.592 -0.000331846 0.000212621)
(317.627 -0.000243624 0.000186836)
(317.653 -8.43423e-05 0.000150934)
(317.671 9.97191e-05 0.000115039)
(317.683 0.000252441 8.6309e-05)
(317.693 0.000344672 6.62699e-05)
(317.701 0.000376104 5.43831e-05)
(317.71 0.000338145 4.6835e-05)
(317.717 0.000230748 4.44819e-05)
(317.723 8.55247e-05 4.43318e-05)
(317.725 -4.94235e-05 4.32597e-05)
(317.725 -0.000117503 4.39849e-05)
(317.724 -0.000186513 4.55946e-05)
(317.723 -0.000198398 4.71393e-05)
(317.719 -0.000143919 4.70802e-05)
(317.713 -5.57737e-05 4.37702e-05)
(317.708 3.36242e-05 3.94866e-05)
(317.706 9.73024e-05 3.68311e-05)
(317.706 0.000121707 3.6287e-05)
(317.707 0.000123609 3.69527e-05)
(317.709 9.03324e-05 3.87709e-05)
(317.712 3.26602e-05 3.9106e-05)
(317.715 -2.81801e-05 3.84827e-05)
(317.717 -7.08229e-05 3.85424e-05)
(317.718 -9.7159e-05 3.86271e-05)
(317.718 -0.000108493 3.78885e-05)
(317.718 -7.46161e-05 3.46202e-05)
(317.717 7.37463e-07 2.8575e-05)
(317.717 6.59228e-05 2.32541e-05)
(317.718 0.000111377 1.98362e-05)
(317.719 0.000152444 1.66454e-05)
(317.72 0.000144621 1.53917e-05)
(317.723 9.0326e-05 1.56054e-05)
(317.728 1.56393e-05 1.62787e-05)
(317.733 -5.62696e-05 1.66785e-05)
(317.738 -0.000108179 1.70201e-05)
(317.741 -0.00012645 1.75309e-05)
(317.743 -0.000110509 1.73273e-05)
(317.745 -6.83345e-05 1.51793e-05)
(317.745 -1.51585e-05 1.15756e-05)
(317.746 3.49445e-05 7.74488e-06)
(317.748 7.19708e-05 4.42973e-06)
(317.749 9.43614e-05 2.12429e-06)
(317.752 7.82476e-05 1.08779e-06)
(317.755 6.54322e-05 1.47502e-06)
(317.759 1.83798e-05 1.41075e-06)
(317.762 -2.652e-05 2.21438e-06)
(317.764 -6.54372e-05 2.05743e-06)
(317.764 -7.96293e-05 3.58059e-07)
(317.764 -7.14756e-05 -2.00703e-06)
(317.765 -4.96397e-05 -4.804e-06)
(317.765 -1.60865e-05 -7.96743e-06)
(317.765 1.9916e-05 -1.06529e-05)
(317.765 4.84648e-05 -1.21356e-05)
(317.766 6.09883e-05 -1.18593e-05)
(317.766 5.42531e-05 -1.00778e-05)
(317.768 3.23164e-05 -7.53692e-06)
(317.77 7.24067e-07 -4.42399e-06)
(317.771 -3.40542e-05 -1.01913e-06)
(317.772 -6.08212e-05 2.27093e-06)
(317.772 -7.03721e-05 4.14352e-06)
(317.771 -7.19205e-05 6.17239e-06)
(317.771 -5.81957e-05 7.84797e-06)
(317.77 -3.07052e-05 8.45887e-06)
(317.77 1.65334e-06 8.01142e-06)
(317.769 2.33781e-05 6.89857e-06)
(317.769 3.1886e-05 5.88891e-06)
(317.77 3.22227e-05 4.47595e-06)
(317.77 1.62192e-05 3.43949e-06)
(317.77 -1.32538e-05 2.82607e-06)
(317.77 -3.83223e-05 2.34973e-06)
(317.77 -5.51057e-05 1.76521e-06)
(317.77 -6.84104e-05 4.55953e-07)
(317.769 -6.8433e-05 -1.31132e-06)
(317.768 -5.0138e-05 -3.96193e-06)
(317.766 -3.51623e-05 -5.06392e-06)
(317.764 -6.46953e-06 -7.74785e-06)
(317.762 1.98834e-05 -1.04284e-05)
(317.762 2.97375e-05 -1.35972e-05)
(317.762 2.83849e-05 -1.80392e-05)
(317.761 2.5205e-05 -2.40706e-05)
(317.76 2.29774e-05 -3.38731e-05)
(317.754 2.45893e-05 -4.65533e-05)
(317.716 3.19603e-05 -5.96947e-05)
(317.471 4.3023e-05 -7.42037e-05)
(315.93 5.66149e-05 -9.64718e-05)
(306.536 6.83531e-05 -0.000128966)
(258.134 6.5072e-05 -0.000137643)
(116.752 3.02092e-05 -6.49665e-05)
(9.10271 2.07598e-06 -4.23726e-06)
(0.0595511 1.14584e-08 -2.07895e-08)
(2.45485e-05 4.82625e-12 -5.94981e-12)
(7.65975e-10 3.22406e-13 9.5358e-13)
(1.502e-11 6.01293e-13 -6.50447e-13)
(1.59152e-11 1.99826e-13 -1.17503e-12)
(1.81869e-11 2.16183e-13 -2.54026e-12)
(1.72325e-11 1.75077e-12 -4.75466e-12)
(1.46549e-11 1.57293e-12 -8.66224e-12)
(1.43672e-11 1.80257e-12 -1.28331e-11)
(1.22251e-11 2.96927e-12 -1.19054e-11)
(8.4306e-12 4.18927e-12 -1.13058e-11)
(4.43153e-12 3.68316e-12 -1.31225e-11)
(1.26221e-12 3.09262e-12 -1.66107e-11)
(-2.62837e-12 3.63962e-12 -1.58331e-11)
(-6.11878e-12 4.40487e-12 -1.64259e-11)
(-1.02996e-11 4.31225e-12 -1.64385e-11)
(-1.48413e-11 3.18032e-12 -1.82368e-11)
(-1.65527e-11 2.03831e-12 -2.0092e-11)
(-1.59482e-11 1.60621e-12 -1.99045e-11)
(-1.59646e-11 7.53623e-13 -1.84487e-11)
(-1.49093e-11 3.80065e-13 -1.81687e-11)
(-1.57306e-11 8.46373e-13 -1.69401e-11)
(-1.76207e-11 -2.33021e-13 -1.60978e-11)
(-1.76551e-11 -7.03331e-13 -1.46344e-11)
(-1.75953e-11 -3.10141e-13 -1.38936e-11)
(-1.65002e-11 -1.11017e-12 -1.34304e-11)
(-1.68604e-11 -2.29702e-12 -1.2921e-11)
(-1.72394e-11 -4.22812e-12 -1.28419e-11)
(-1.35161e-11 -5.44043e-12 -1.19281e-11)
(-1.10022e-11 -3.20756e-12 -9.31057e-12)
(-7.64479e-12 -2.70919e-12 -7.09671e-12)
(-4.28452e-12 -1.38858e-12 -6.62563e-12)
(-3.13372e-12 4.06689e-13 -5.30378e-12)
(-1.30158e-12 5.3308e-13 -3.79003e-12)
(3.14689e-13 1.33568e-13 -2.30148e-12)
(1.07794e-12 7.62453e-13 -1.42508e-12)
(2.42724e-12 1.92549e-12 -1.2839e-12)
(4.17712e-12 2.5333e-12 -1.77373e-12)
(4.90269e-12 3.28481e-12 -2.54284e-12)
(5.36966e-12 2.7385e-12 -2.15889e-12)
(6.5426e-12 2.2797e-12 -5.48491e-13)
(7.93845e-12 1.34365e-12 7.74178e-13)
(7.77387e-12 5.44931e-13 7.38785e-13)
(8.57655e-12 3.10009e-13 -2.60266e-12)
(1.08118e-11 -4.03159e-13 -4.27949e-12)
(1.05786e-11 4.02401e-13 -4.95697e-12)
(9.36464e-12 2.16164e-12 -2.74882e-12)
(9.36399e-12 2.62173e-12 4.51929e-13)
(8.21038e-12 4.64132e-12 9.6207e-13)
(4.61969e-12 6.75245e-12 2.95131e-12)
(1.00024e-12 5.95266e-12 6.21042e-12)
(-2.49192e-12 4.905e-12 5.71524e-12)
(-4.48013e-12 3.88243e-12 6.87955e-12)
(-5.66334e-12 2.08929e-12 6.53337e-12)
(-6.03867e-12 1.65215e-12 5.80049e-12)
(-6.98656e-12 2.95216e-12 5.62382e-12)
(-1.03179e-11 2.30615e-12 5.28965e-12)
(-1.25319e-11 7.38471e-13 2.17839e-12)
(-1.38442e-11 -9.06526e-13 -9.79955e-15)
(-1.46775e-11 -3.22531e-12 2.20377e-12)
(-1.30443e-11 -4.92825e-12 3.97871e-12)
(-1.0294e-11 -6.19937e-12 4.42549e-12)
(-8.76396e-12 -5.14322e-12 5.89763e-12)
(-7.77982e-12 -4.53019e-12 7.95603e-12)
(-6.5745e-12 -4.43152e-12 6.9107e-12)
(-5.9254e-12 -3.58289e-12 8.3073e-12)
(-6.82038e-12 -1.72117e-12 1.05722e-11)
(-7.25691e-12 -1.29957e-12 1.2774e-11)
(-5.72501e-12 -5.18807e-13 1.35584e-11)
(-4.42883e-12 7.67202e-13 1.31641e-11)
(-4.35933e-12 2.58315e-13 1.23921e-11)
(-3.86983e-12 1.13551e-12 1.03507e-11)
(-1.78565e-12 6.08723e-13 8.76657e-12)
(-4.08654e-12 1.24424e-12 7.46952e-12)
(-5.53572e-12 1.13561e-13 6.7458e-12)
(-4.71615e-12 -8.35296e-14 7.48775e-12)
(-6.55104e-12 -9.65719e-14 8.09144e-12)
(-6.59586e-12 -1.39671e-12 9.79718e-12)
(-6.23356e-12 5.28919e-13 1.26701e-11)
(-8.23896e-12 -4.31383e-16 1.66255e-11)
(-7.71993e-12 4.03945e-13 1.90647e-11)
(-5.86331e-12 5.48847e-13 1.43019e-11)
(-5.80708e-12 2.25098e-12 8.15468e-12)
(-7.78199e-12 2.45398e-12 5.79658e-12)
(-6.75134e-12 3.19789e-12 4.93037e-12)
(-5.73626e-12 3.71543e-12 4.41366e-12)
(-7.27113e-12 2.53728e-12 4.25934e-12)
(-7.9899e-12 3.74647e-13 4.45779e-12)
(-6.75633e-12 -1.41684e-12 4.736e-12)
(-5.29115e-12 -3.37874e-12 4.93199e-12)
(-2.1707e-12 -3.11558e-12 5.00973e-12)
(-1.99987e-12 -1.53978e-12 4.86374e-12)
(-2.66146e-12 -1.34995e-12 3.62848e-12)
(-1.6013e-12 -8.19234e-13 3.34684e-12)
(-1.50305e-13 -6.11665e-13 3.63512e-12)
(8.08276e-13 -1.7698e-12 1.72107e-12)
(3.09269e-12 -2.4432e-13 -3.47208e-13)
(5.50927e-12 4.34056e-13 -2.11918e-12)
(5.20784e-12 1.86447e-12 -3.08854e-12)
(5.16979e-12 1.25765e-12 -4.03885e-12)
(6.96775e-12 1.2175e-12 -4.64201e-12)
(7.4356e-12 2.27109e-12 -4.61922e-12)
(8.71586e-12 2.42333e-12 -4.23148e-12)
(7.96568e-12 4.22625e-12 -3.63996e-12)
(4.45676e-12 4.84874e-12 -2.41559e-12)
(3.72873e-12 2.4643e-12 -6.58017e-13)
(3.5188e-12 1.65655e-12 1.62576e-12)
(3.67163e-12 1.36596e-12 7.64238e-13)
(5.26809e-12 1.19391e-12 1.08234e-12)
(6.96488e-12 6.48843e-13 -6.16347e-13)
(7.89686e-12 1.91541e-12 -2.36805e-12)
(8.63426e-12 2.16789e-12 -4.4585e-12)
(7.13982e-12 1.95589e-12 -6.98218e-12)
(8.19973e-12 2.64149e-12 -9.19788e-12)
(9.26936e-12 2.83191e-12 -9.8932e-12)
(9.84014e-12 2.11843e-12 -9.81256e-12)
(9.78238e-12 2.29104e-12 -1.00142e-11)
(9.57583e-12 3.50644e-12 -9.7309e-12)
(8.75025e-12 4.25918e-12 -1.10606e-11)
(7.41871e-12 4.83983e-12 -1.34381e-11)
(7.29844e-12 5.43264e-12 -1.59097e-11)
(7.03857e-12 5.71569e-12 -1.68641e-11)
(5.89958e-12 5.87926e-12 -1.64695e-11)
(4.80145e-12 5.84275e-12 -1.7936e-11)
(4.14447e-12 4.82259e-12 -1.79402e-11)
(4.81811e-12 3.96327e-12 -1.67287e-11)
(6.13355e-12 3.5165e-12 -1.63245e-11)
(5.18009e-12 3.57723e-12 -1.61912e-11)
(4.40359e-12 2.85691e-12 -1.42455e-11)
(4.25462e-12 3.75064e-12 -1.19251e-11)
(2.14771e-12 2.94598e-12 -1.05107e-11)
(2.20324e-12 9.09428e-13 -1.02267e-11)
(5.11457e-12 -1.03973e-12 -9.63888e-12)
(6.90775e-12 -2.99244e-12 -6.62262e-12)
(6.06804e-12 -1.78273e-12 -2.7661e-12)
(7.11248e-12 -3.08328e-12 1.49674e-12)
(8.83817e-12 -1.39832e-12 2.89393e-12)
(1.09473e-11 3.36773e-13 4.97614e-12)
(1.19949e-11 1.30396e-12 6.91174e-12)
(1.04933e-11 1.94462e-12 5.35249e-12)
(9.61127e-12 2.70028e-12 3.94601e-12)
(1.02423e-11 2.44953e-12 2.11515e-12)
(8.49116e-12 2.06741e-12 -3.85419e-13)
(8.15581e-12 1.80001e-12 -2.30996e-12)
(8.07475e-12 1.18785e-12 -2.82944e-12)
(7.36396e-12 1.47619e-12 -3.20763e-12)
(7.96751e-12 2.27601e-12 -5.74253e-12)
(8.90302e-12 2.59218e-12 -9.9136e-12)
(7.90795e-12 4.52086e-12 -1.20427e-11)
(4.94181e-12 6.44957e-12 -1.31158e-11)
(1.93327e-12 6.37638e-12 -1.45373e-11)
(-1.97329e-12 8.70871e-12 -1.59073e-11)
(-8.24599e-12 7.56748e-12 -1.44835e-11)
(-1.23247e-11 3.95636e-12 -1.40506e-11)
(-1.28118e-11 7.84047e-13 -1.34147e-11)
(-1.10844e-11 2.83749e-13 -1.20679e-11)
(-1.26061e-11 4.88028e-13 -1.06671e-11)
(-1.43863e-11 -7.59484e-13 -1.01621e-11)
(-1.40512e-11 -2.06098e-12 -9.00352e-12)
(-1.25707e-11 -3.39178e-12 -6.82808e-12)
(-9.67294e-12 -3.79968e-12 -5.36793e-12)
(-9.402e-12 -3.28289e-12 -2.87717e-12)
(-8.5704e-12 -3.52579e-12 -7.50442e-13)
(-7.61869e-12 -2.70038e-12 -6.00118e-14)
(-7.35968e-12 -2.35932e-12 -6.27146e-13)
(-6.24072e-12 -3.41789e-12 -1.88803e-12)
(-2.86018e-12 -2.96985e-12 -2.88207e-12)
(-8.08815e-13 -1.47732e-12 -2.87268e-12)
(-2.21856e-12 -6.46175e-13 -3.76052e-12)
(-3.50457e-12 -7.7714e-13 -3.3392e-12)
(-4.03823e-12 -7.58908e-13 -3.62871e-12)
(-3.12465e-12 -2.33263e-12 -3.46324e-12)
(-6.44147e-13 -3.35494e-12 -3.08547e-12)
(7.17888e-13 -1.84109e-12 -2.75549e-12)
(-1.8597e-13 8.02055e-13 -2.80303e-12)
(-2.51133e-12 2.0177e-12 -5.54231e-12)
(-3.73354e-12 2.56595e-12 -8.69996e-12)
(-3.52291e-12 1.18401e-12 -8.57287e-12)
(-1.43961e-12 1.32138e-12 -7.84475e-12)
(-1.05096e-12 2.50653e-12 -5.48178e-12)
(-2.47969e-12 4.1104e-12 -3.87774e-12)
(-3.98495e-12 3.95619e-12 -2.32724e-12)
(-4.8516e-12 2.37433e-12 -1.21356e-12)
(-3.93501e-12 2.91273e-13 -5.86466e-13)
(-2.69728e-12 3.05609e-13 1.21075e-12)
(-1.8063e-12 1.22314e-13 1.31701e-12)
(-3.89543e-12 7.65031e-13 7.56629e-13)
(-5.92799e-12 -1.33263e-13 -3.21129e-13)
(-5.03033e-12 -1.32013e-12 -1.83896e-12)
(-4.46024e-12 -2.19477e-12 -3.73392e-12)
(-2.54696e-12 -2.97105e-12 -4.25034e-12)
(-1.22533e-13 -1.416e-12 -6.17368e-12)
(4.94174e-15 1.49303e-12 -8.43048e-12)
(-2.70254e-13 2.39038e-12 -1.12476e-11)
(-1.41644e-12 1.91694e-12 -1.09948e-11)
(-1.83684e-12 4.31123e-13 -1.01685e-11)
(-8.88805e-14 -6.51994e-13 -8.48136e-12)
(6.45308e-13 -1.56065e-12 -8.72992e-12)
(2.47116e-12 -1.58965e-12 -7.87686e-12)
(4.04936e-12 -4.85979e-13 -7.45585e-12)
(2.50681e-12 3.22932e-13 -6.63169e-12)
(-3.94527e-15 1.85002e-13 -6.05774e-12)
(-9.04746e-13 1.94383e-13 -3.22925e-12)
(-1.72218e-12 -4.71088e-13 -1.25018e-12)
(-1.22957e-12 -2.32208e-12 4.60965e-13)
(7.43853e-13 -3.17422e-12 2.03817e-12)
(2.67685e-12 -3.48564e-12 3.59819e-12)
(1.97157e-12 -2.67409e-12 2.74243e-12)
(-4.84805e-13 -3.1707e-12 2.28136e-12)
(7.37908e-13 -5.17871e-12 9.37605e-13)
(2.465e-12 -5.83456e-12 -1.0262e-12)
(3.29619e-12 -5.37273e-12 -6.26259e-13)
(2.68639e-12 -4.32386e-12 2.15703e-13)
(2.41997e-12 -3.38663e-12 -3.93067e-13)
(3.06438e-12 -2.28733e-12 1.14765e-13)
(3.4808e-12 -2.00161e-12 -1.54837e-12)
(5.25008e-12 -1.90654e-12 -2.86567e-12)
(5.26332e-12 -6.01759e-13 -4.07989e-12)
(3.5503e-12 5.69352e-14 -4.35583e-12)
(347.059 8.10734e-13 -2.17818e-11)
(347.059 1.50539e-12 -2.20176e-11)
(347.059 1.46315e-12 -2.18175e-11)
(347.059 -1.65685e-12 -2.12232e-11)
(347.059 -8.5303e-12 -2.2431e-11)
(347.059 -1.05674e-11 -2.02039e-11)
(347.059 -1.08905e-11 -2.03488e-11)
(347.059 -9.63455e-12 -2.01766e-11)
(347.059 -3.80816e-12 -2.01598e-11)
(347.059 3.27151e-12 -2.14889e-11)
(347.059 8.6794e-12 -2.22667e-11)
(347.059 8.41868e-12 -2.22315e-11)
(347.059 8.5876e-12 -2.18393e-11)
(347.059 1.37981e-11 -2.18497e-11)
(347.059 -6.01914e-11 -1.67441e-11)
(347.059 1.91207e-09 -1.36254e-10)
(347.058 -3.43423e-08 2.17984e-09)
(347.024 4.35107e-07 -3.03002e-08)
(346.168 -4.56787e-07 1.23014e-07)
(335.304 -6.04109e-05 2.66364e-06)
(320.055 4.69006e-05 -2.53523e-06)
(318.518 6.93913e-05 -3.88956e-06)
(318.495 7.81116e-05 -4.76614e-06)
(318.472 3.74717e-05 -2.52874e-06)
(318.444 -4.28106e-05 2.35846e-06)
(318.435 -6.32326e-05 3.67222e-06)
(318.42 -5.99001e-05 3.67545e-06)
(318.403 -5.24742e-05 3.2824e-06)
(318.39 -3.33654e-05 2.68696e-06)
(318.38 -9.2501e-08 4.97206e-07)
(318.363 3.96519e-05 -2.74089e-06)
(318.331 4.29602e-05 -3.05561e-06)
(318.311 4.64425e-05 -3.94573e-06)
(318.296 4.20246e-05 -4.376e-06)
(318.282 7.21007e-06 -1.26127e-06)
(318.276 -3.69626e-05 3.41835e-06)
(318.284 -4.35313e-05 4.38413e-06)
(318.288 -3.90968e-05 3.85041e-06)
(318.288 -4.53233e-05 6.22123e-06)
(318.286 -2.16219e-05 2.67733e-06)
(318.279 1.57258e-05 -2.98932e-06)
(318.263 2.19386e-05 -3.90775e-06)
(318.253 2.62256e-05 -5.26821e-06)
(318.252 2.73154e-05 -6.67043e-06)
(318.254 2.04822e-05 -4.44791e-06)
(318.257 9.1163e-07 1.31947e-06)
(318.271 -8.87443e-06 3.57473e-06)
(318.285 -8.67995e-06 4.57647e-06)
(318.296 -1.05565e-05 6.87022e-06)
(318.309 -1.13053e-05 5.63961e-06)
(318.321 -7.47665e-06 7.76151e-07)
(318.335 1.37716e-06 -4.53134e-06)
(318.338 5.55476e-06 -6.81936e-06)
(318.34 4.18078e-06 -7.08336e-06)
(318.343 4.99335e-06 -7.83363e-06)
(318.342 1.19005e-05 -4.48109e-06)
(318.337 1.30832e-05 1.54954e-06)
(318.334 8.44915e-06 5.43292e-06)
(318.337 7.92496e-06 5.75096e-06)
(318.337 8.36438e-06 6.1915e-06)
(318.338 5.67794e-06 5.18843e-06)
(318.339 -2.10878e-06 8.11971e-07)
(318.341 -6.50004e-06 -3.86858e-06)
(318.335 -7.12008e-06 -4.94858e-06)
(318.331 -8.72793e-06 -5.61776e-06)
(318.327 -9.93568e-06 -5.80768e-06)
(318.32 -4.97172e-06 -3.21345e-06)
(318.312 2.6258e-06 8.09173e-07)
(318.307 6.80678e-06 3.92949e-06)
(318.31 7.83853e-06 4.46736e-06)
(318.311 8.7341e-06 4.58935e-06)
(318.313 6.83504e-06 3.8198e-06)
(318.317 1.55871e-06 2.17913e-06)
(318.323 -4.08212e-06 3.08614e-07)
(318.328 -7.95627e-06 -9.13906e-07)
(318.325 -8.93951e-06 -9.74525e-07)
(318.322 -8.86188e-06 -6.75143e-07)
(318.318 -7.34616e-06 1.46026e-07)
(318.313 -4.70675e-06 4.3391e-07)
(318.307 -1.734e-06 -4.84631e-07)
(318.305 -4.77258e-07 -1.40448e-06)
(318.307 -6.23393e-07 -1.73572e-06)
(318.31 -7.23237e-07 -1.76567e-06)
(318.314 2.54516e-07 -2.46982e-07)
(318.318 2.16312e-06 3.38729e-06)
(318.322 3.33853e-06 6.00002e-06)
(318.32 3.83527e-06 6.55289e-06)
(318.318 4.33038e-06 7.02821e-06)
(318.316 3.27516e-06 5.17559e-06)
(318.314 -1.27132e-06 -1.75587e-06)
(318.311 -7.2778e-06 -1.04362e-05)
(318.312 -1.25177e-05 -1.65355e-05)
(318.319 -1.39448e-05 -1.7404e-05)
(318.324 -1.47017e-05 -1.60078e-05)
(318.328 -1.19942e-05 -1.15172e-05)
(318.332 -7.29164e-06 -6.11659e-06)
(318.336 -2.16755e-06 -4.36936e-07)
(318.339 4.8391e-08 8.67367e-07)
(318.338 2.16929e-06 2.17161e-06)
(318.337 2.43968e-07 4.08476e-08)
(318.335 -4.92911e-06 -3.80289e-06)
(318.333 -5.71576e-06 -2.53351e-06)
(318.331 -1.44539e-06 3.13721e-06)
(318.328 5.04492e-06 1.24828e-05)
(318.325 5.8296e-06 1.43262e-05)
(318.323 7.76563e-06 1.58008e-05)
(318.321 1.34564e-05 1.80625e-05)
(318.32 1.55774e-05 1.16328e-05)
(318.318 1.10503e-05 -2.06799e-06)
(318.316 8.26664e-06 -6.8579e-06)
(318.316 1.60041e-06 -1.5454e-05)
(318.316 -6.22487e-06 -2.15863e-05)
(318.316 -8.76108e-06 -1.01722e-05)
(318.315 1.31991e-06 2.47466e-05)
(318.315 8.87956e-06 4.18782e-05)
(318.314 1.68895e-05 5.45853e-05)
(318.314 2.32225e-05 5.58291e-05)
(318.315 2.7299e-05 4.5416e-05)
(318.317 2.86021e-05 2.44572e-05)
(318.322 1.88453e-05 -1.43827e-05)
(318.327 -4.49127e-06 -6.72998e-05)
(318.329 -2.31181e-05 -0.000100548)
(318.33 -4.58362e-05 -0.000139324)
(318.33 -8.21802e-05 -0.000188192)
(318.329 -0.000112273 -0.000212511)