/*--------------------------------*- C++ -*----------------------------------*\
| =========                 |                                                 |
| \\      /  F ield         | OpenFOAM: The Open Source CFD Toolbox           |
|  \\    /   O peration     | Version:  2406                                  |
|   \\  /    A nd           | Website:  www.openfoam.com                      |
|    \\/     M anipulation  |                                                 |
\*---------------------------------------------------------------------------*/
FoamFile
{
    version     2.0;
    format      ascii;
    arch        "LSB;label=32;scalar=64";
    class       volScalarField;
    location    "0.07";
    object      p;
}
// * * * * * * * * * * * * * * * * * * * * * * * * * * * * * * * * * * * * * //

dimensions      [1 -1 -2 0 0 0 0];

internalField   nonuniform List<scalar> 
13948
(
95019.1
98652.8
99726.4
100319
100853
101442
102063
102603
102916
103004
103019
102951
102869
102864
102917
103058
103260
103368
103388
103328
103186
103031
102958
102946
102946
102946
102946
102946
102946
102946
102946
102946
102946
102946
102946
102946
102946
102946
102946
102946
102946
102946
102946
102946
102946
102946
102946
102946
102946
102946
102946
102946
102946
102946
102946
102946
102946
102946
102946
102946
102946
102946
102946
102946
102946
102946
102946
102946
102946
102946
102946
102946
102946
102946
102946
102946
102946
102946
102946
102946
102946
102946
102946
102946
102946
102946
102946
102946
102946
102946
102946
102946
102946
102946
102946
102946
102946
102946
102946
98530.6
97872.4
99356.1
100075
100563
101035
101566
102137
102637
102926
103008
103023
102958
102879
102876
102929
103066
103259
103360
103377
103318
103178
103027
102957
102946
102946
102946
102946
102946
102946
102946
102946
102946
102946
102946
102946
102946
102946
102946
102946
102946
102946
102946
102946
102946
102946
102946
102946
102946
102946
102946
102946
102946
102946
102946
102946
102946
102946
102946
102946
102946
102946
102946
102946
102946
102946
102946
102946
102946
102946
102946
102946
102946
102946
102946
102946
102946
102946
102946
102946
102946
102946
102946
102946
102946
102946
102946
102946
102946
102946
102946
102946
102946
102946
102946
102946
102946
102946
102946
102946
100341
99126.4
98250.3
97707.7
96957.8
96640.4
96826.8
97345
97700.6
98485.1
98225.7
99590.7
100246
100727
101171
101669
102205
102671
102937
103013
103024
102960
102885
102886
102939
103074
103262
103355
103369
103309
103170
103023
102956
102946
102946
102946
102946
102946
102946
102946
102946
102946
102946
102946
102946
102946
102946
102946
102946
102946
102946
102946
102946
102946
102946
102946
102946
102946
102946
102946
102946
102946
102946
102946
102946
102946
102946
102946
102946
102946
102946
102946
102946
102946
102946
102946
102946
102946
102946
102946
102946
102946
102946
102946
102946
102946
102946
102946
102946
102946
102946
102946
102946
102946
102946
102946
102946
102946
102946
102946
102946
102946
102946
102946
102946
102946
102946
102946
102946
110163
111553
113013
114451
115830
117222
118714
120258
121634
122546
122797
120894
114977
104622
89725.6
73488.1
65653.7
64978.5
72043.3
83996.7
92257.2
98129.2
102332
104850
106194
106775
106813
106438
105927
105318
104561
103581
102537
101329
100174
99207.4
98450
97844.1
97555.1
97592.8
97992.2
98347.5
98959.8
99282
100056
100478
100904
101317
101784
102282
102711
102950
103018
103026
102961
102891
102896
102949
103084
103266
103351
103362
103300
103161
103018
102955
102946
102946
102946
102946
102946
102946
102946
102946
102946
102946
102946
102946
102946
102946
102946
102946
102946
102946
102946
102946
102946
102946
102946
102946
102946
102946
102946
102946
102946
102946
102946
102946
102946
102946
102946
102946
102946
102946
102946
102946
102946
102946
102946
102946
102946
102946
102946
102946
102946
102946
102946
102946
102946
102946
102946
102946
102946
102946
102946
102946
102946
102946
102946
102946
102946
102946
102946
102946
102946
102946
102946
102946
102946
102946
102946
102946
107209
108467
109684
110967
112325
113665
114913
116103
117316
118531
119548
120080
119904
117822
112691
104827
94792.5
83875
76568.1
74750.2
78035.1
86190.9
93098.6
97857.2
101378
103649
104931
105521
105704
105584
105309
104941
104395
103644
102787
101868
100994
100268
99691.1
99231.4
98904.6
98823.3
98990.2
99229.9
99549.4
99771.5
100297
100687
101074
101459
101900
102364
102754
102963
103025
103026
102961
102896
102905
102961
103096
103272
103347
103355
103289
103150
103012
102954
102946
102946
102946
102946
102946
102946
102946
102946
102946
102946
102946
102946
102946
102946
102946
102946
102946
102946
102946
102946
102946
102946
102946
102946
102946
102946
102946
102946
102946
102946
102946
102946
102946
102946
102946
102946
102946
102946
102946
102946
102946
102946
102946
102946
102946
102946
102946
102946
102946
102946
102946
102946
102946
102946
102946
102946
102946
102946
102946
102946
102946
102946
102946
102946
102946
102946
102946
102946
102946
102946
102946
102946
102946
102946
102946
102946
105503
106852
108063
109195
110365
111611
112853
113987
114999
115950
116850
117553
117863
117426
115315
111019
105087
97973.2
90494.7
84634.6
82449.5
83884.1
88891.6
94292
98033.3
100796
102746
103952
104615
104904
104925
104780
104512
104160
103668
103071
102411
101705
101022
100458
100105
99958.7
99835.5
99874.4
100011
100140
100276
100633
100934
101261
101614
102026
102452
102800
102976
103034
103027
102961
102901
102915
102974
103110
103279
103344
103347
103278
103138
103006
102953
102946
102946
102946
102946
102946
102946
102946
102946
102946
102946
102946
102946
102946
102946
102946
102946
102946
102946
102946
102946
102946
102946
102946
102946
102946
102946
102946
102946
102946
102946
102946
102946
102946
102946
102946
102946
102946
102946
102946
102946
102946
102946
102946
102946
102946
102946
102946
102946
102946
102946
102946
102946
102946
102946
102946
102946
102946
102946
102946
102946
102946
102946
102946
102946
102946
102946
102946
102946
102946
102946
102946
102946
102946
102946
102946
102946
105162
106476
107649
108703
109756
110880
112021
113059
113929
114659
115279
115718
115867
115300
113335
109883
105348
100049
94752.9
90575.6
88527.5
88743
91422.4
95573
98417
100491
102095
103201
103881
104243
104376
104376
104213
103938
103573
103126
102663
102148
101639
101194
100843
100630
100546
100517
100545
100589
100654
100902
101150
101443
101773
102155
102543
102846
102989
103042
103026
102959
102906
102925
102988
103127
103286
103342
103340
103265
103124
102999
102952
102946
102946
102946
102946
102946
102946
102946
102946
102946
102946
102946
102946
102946
102946
102946
102946
102946
102946
102946
102946
102946
102946
102946
102946
102946
102946
102946
102946
102946
102946
102946
102946
102946
102946
102946
102946
102946
102946
102946
102946
102946
102946
102946
102946
102946
102946
102946
102946
102946
102946
102946
102946
102946
102946
102946
102946
102946
102946
102946
102946
102946
102946
102946
102946
102946
102946
102946
102946
102946
102946
102946
102946
102946
102946
102946
102946
104804
106080
107226
108215
109155
110146
111176
112129
112899
113468
113866
114093
114090
113458
111760
109107
105646
101638
97700.4
94535.1
92719.3
92362.9
93675.2
96607.6
98858.1
100470
101761
102715
103357
103741
103931
104001
103929
103730
103479
103132
102780
102403
102028
101689
101402
101191
101056
100967
100925
100926
100966
101165
101383
101641
101942
102290
102635
102890
103004
103049
103025
102957
102912
102937
103005
103145
103294
103340
103331
103251
103109
102991
102950
102946
102946
102946
102946
102946
102946
102946
102946
102946
102946
102946
102946
102946
102946
102946
102946
102946
102946
102946
102946
102946
102946
102946
102946
102946
102946
102946
102946
102946
102946
102946
102946
102946
102946
102946
102946
102946
102946
102946
102946
102946
102946
102946
102946
102946
102946
102946
102946
102946
102946
102946
102946
102946
102946
102946
102946
102946
102946
102946
102946
102946
102946
102946
102946
102946
102946
102946
102946
102946
102946
102946
102946
102946
102946
102946
102946
104436
105660
106792
107736
108576
109429
110330
111198
111903
112376
112628
112718
112573
111868
110452
108464
105893
102901
99910.7
97426.7
95855.7
95285.5
95751
97493.6
99323.3
100610
101660
102463
103037
103403
103608
103693
103676
103543
103364
103121
102841
102552
102261
101987
101741
101537
101388
101295
101235
101218
101250
101421
101608
101835
102110
102425
102725
102932
103020
103055
103021
102954
102919
102949
103023
103166
103301
103339
103322
103234
103092
102983
102949
102946
102946
102946
102946
102946
102946
102946
102946
102946
102946
102946
102946
102946
102946
102946
102946
102946
102946
102946
102946
102946
102946
102946
102946
102946
102946
102946
102946
102946
102946
102946
102946
102946
102946
102946
102946
102946
102946
102946
102946
102946
102946
102946
102946
102946
102946
102946
102946
102946
102946
102946
102946
102946
102946
102946
102946
102946
102946
102946
102946
102946
102946
102946
102946
102946
102946
102946
102946
102946
102946
102946
102946
102946
102946
102946
102946
104067
105216
106341
107265
108029
108750
109507
110273
110926
111360
111550
111567
111338
110601
109361
107831
105967
103782
101535
99593.5
98241.6
97622
97645.4
98476.2
99875.9
100887
101705
102380
102887
103220
103407
103484
103486
103405
103262
103099
102895
102674
102447
102225
102020
101840
101697
101602
101544
101522
101534
101672
101833
102032
102281
102559
102809
102971
103039
103058
103015
102950
102928
102962
103045
103189
103307
103337
103311
103215
103074
102976
102948
102946
102946
102946
102946
102946
102946
102946
102946
102946
102946
102946
102946
102946
102946
102946
102946
102946
102946
102946
102946
102946
102946
102946
102946
102946
102946
102946
102946
102946
102946
102946
102946
102946
102946
102946
102946
102946
102946
102946
102946
102946
102946
102946
102946
102946
102946
102946
102946
102946
102946
102946
102946
102946
102946
102946
102946
102946
102946
102946
102946
102946
102946
102946
102946
102946
102946
102946
102946
102946
102946
102946
102946
102946
102946
102946
102946
103717
104749
105864
106794
107517
108132
108741
109376
109964
110388
110579
110586
110361
109673
108542
107260
105863
104263
102609
101112
99988.1
99366.3
99200.4
99520.2
100421
101222
101831
102365
102786
103087
103266
103345
103360
103320
103213
103091
102949
102785
102611
102435
102268
102118
101996
101911
101855
101830
101821
101917
102053
102226
102448
102686
102885
103005
103060
103059
103006
102947
102939
102977
103070
103215
103312
103334
103298
103193
103054
102968
102947
102946
102946
102946
102946
102946
102946
102946
102946
102946
102946
102946
102946
102946
102946
102946
102946
102946
102946
102946
102946
102946
102946
102946
102946
102946
102946
102946
102946
102946
102946
102946
102946
102946
102946
102946
102946
102946
102946
102946
102946
102946
102946
102946
102946
102946
102946
102946
102946
102946
102946
102946
102946
102946
102946
102946
102946
102946
102946
102946
102946
102946
102946
102946
102946
102946
102946
102946
102946
102946
102946
102946
102946
102946
102946
102946
102946
103412
104273
105352
106309
107031
107580
108062
108549
109037
109437
109659
109700
109547
109014
108020
106879
105727
104511
103266
102112
101189
100597
100357
100418
100870
101505
101973
102368
102692
102943
103117
103218
103257
103253
103197
103101
103002
102885
102756
102623
102493
102374
102275
102201
102148
102121
102103
102157
102268
102416
102608
102802
102954
103038
103076
103056
102995
102945
102951
102995
103098
103241
103316
103329
103282
103168
103034
102961
102947
102946
102946
102946
102946
102946
102946
102946
102946
102946
102946
102946
102946
102946
102946
102946
102946
102946
102946
102946
102946
102946
102946
102946
102946
102946
102946
102946
102946
102946
102946
102946
102946
102946
102946
102946
102946
102946
102946
102946
102946
102946
102946
102946
102946
102946
102946
102946
102946
102946
102946
102946
102946
102946
102946
102946
102946
102946
102946
102946
102946
102946
102946
102946
102946
102946
102946
102946
102946
102946
102946
102946
102946
102946
102946
102946
102946
103180
103816
104803
105788
106550
107084
107483
107837
108193
108525
108758
108843
108784
108468
107704
106715
105716
104721
103730
102806
102036
101489
101199
101130
101292
101710
102090
102392
102650
102852
103007
103113
103174
103198
103191
103135
103063
102981
102886
102786
102687
102596
102518
102456
102410
102384
102362
102383
102473
102597
102756
102906
103013
103071
103081
103046
102984
102947
102965
103018
103131
103266
103320
103322
103263
103139
103014
102956
102946
102946
102946
102946
102946
102946
102946
102946
102946
102946
102946
102946
102946
102946
102946
102946
102946
102946
102946
102946
102946
102946
102946
102946
102946
102946
102946
102946
102946
102946
102946
102946
102946
102946
102946
102946
102946
102946
102946
102946
102946
102946
102946
102946
102946
102946
102946
102946
102946
102946
102946
102946
102946
102946
102946
102946
102946
102946
102946
102946
102946
102946
102946
102946
102946
102946
102946
102946
102946
102946
102946
102946
102946
102946
102946
102946
102946
103036
103426
104237
105212
106041
106618
106993
107258
107486
107707
107895
108000
108010
107880
107425
106645
105799
104971
104156
103390
102729
102222
101899
101758
101763
101947
102237
102472
102679
102851
102986
103086
103154
103191
103206
103183
103131
103074
103005
102931
102857
102789
102729
102680
102642
102619
102596
102599
102669
102769
102893
102997
103065
103091
103078
103030
102974
102954
102982
103047
103168
103288
103323
103312
103237
103107
102994
102952
102946
102946
102946
102946
102946
102946
102946
102946
102946
102946
102946
102946
102946
102946
102946
102946
102946
102946
102946
102946
102946
102946
102946
102946
102946
102946
102946
102946
102946
102946
102946
102946
102946
102946
102946
102946
102946
102946
102946
102946
102946
102946
102946
102946
102946
102946
102946
102946
102946
102946
102946
102946
102946
102946
102946
102946
102946
102946
102946
102946
102946
102946
102946
102946
102946
102946
102946
102946
102946
102946
102946
102946
102946
102946
102946
102946
102946
102970
103151
103707
104585
105469
106135
106552
106794
106940
107050
107142
107208
107231
107203
107024
106526
105861
105195
104541
103910
103344
102881
102548
102353
102280
102311
102461
102638
102790
102926
103039
103126
103187
103221
103241
103239
103207
103165
103118
103066
103013
102964
102920
102883
102854
102833
102812
102809
102858
102931
103011
103069
103094
103095
103067
103012
102968
102967
103001
103082
103209
103303
103325
103298
103205
103072
102977
102949
102946
102946
102946
102946
102946
102946
102946
102946
102946
102946
102946
102946
102946
102946
102946
102946
102946
102946
102946
102946
102946
102946
102946
102946
102946
102946
102946
102946
102946
102946
102946
102946
102946
102946
102946
102946
102946
102946
102946
102946
102946
102946
102946
102946
102946
102946
102946
102946
102946
102946
102946
102946
102946
102946
102946
102946
102946
102946
102946
102946
102946
102946
102946
102946
102946
102946
102946
102946
102946
102946
102946
102946
102946
102946
102946
102946
102946
102950
103005
103294
103954
104816
105582
106103
106393
106527
106573
106578
106547
106510
106499
106462
106251
105809
105291
104786
104296
103828
103421
103102
102885
102765
102727
102761
102859
102964
103061
103139
103197
103248
103278
103295
103300
103282
103253
103222
103188
103153
103118
103087
103059
103035
103016
102999
102994
103019
103056
103087
103104
103106
103091
103049
102995
102968
102984
103028
103125
103251
103313
103323
103276
103166
103037
102964
102947
102946
102946
102946
102946
102946
102946
102946
102946
102946
102946
102946
102946
102946
102946
102946
102946
102946
102946
102946
102946
102946
102946
102946
102946
102946
102946
102946
102946
102946
102946
102946
102946
102946
102946
102946
102946
102946
102946
102946
102946
102946
102946
102946
102946
102946
102946
102946
102946
102946
102946
102946
102946
102946
102946
102946
102946
102946
102946
102946
102946
102946
102946
102946
102946
102946
102946
102946
102946
102946
102946
102946
102946
102946
102946
102946
102946
102946
102946
102956
103053
103424
104120
104921
105575
105982
106176
106232
106207
106102
105955
105875
105848
105789
105590
105243
104856
104481
104121
103784
103496
103275
103129
103052
103031
103055
103108
103167
103220
103268
103307
103331
103345
103348
103342
103326
103304
103282
103257
103232
103208
103184
103162
103143
103123
103112
103113
103118
103121
103119
103106
103076
103026
102985
102977
103004
103065
103175
103287
103322
103313
103245
103120
103005
102954
102946
102946
102946
102946
102946
102946
102946
102946
102946
102946
102946
102946
102946
102946
102946
102946
102946
102946
102946
102946
102946
102946
102946
102946
102946
102946
102946
102946
102946
102946
102946
102946
102946
102946
102946
102946
102946
102946
102946
102946
102946
102946
102946
102946
102946
102946
102946
102946
102946
102946
102946
102946
102946
102946
102946
102946
102946
102946
102946
102946
102946
102946
102946
102946
102946
102946
102946
102946
102946
102946
102946
102946
102946
102946
102946
102946
102946
102946
102946
102947
102964
103096
103506
104185
104912
105475
105802
105935
105948
105859
105646
105443
105328
105272
105200
105036
104783
104500
104227
103965
103723
103513
103355
103251
103197
103183
103197
103229
103271
103306
103333
103353
103366
103370
103371
103363
103347
103330
103311
103290
103269
103248
103228
103209
103187
103167
103153
103143
103132
103118
103093
103052
103007
102984
102995
103033
103114
103232
103310
103327
103295
103201
103071
102978
102949
102946
102946
102946
102946
102946
102946
102946
102946
102946
102946
102946
102946
102946
102946
102946
102946
102946
102946
102946
102946
102946
102946
102946
102946
102946
102946
102946
102946
102946
102946
102946
102946
102946
102946
102946
102946
102946
102946
102946
102946
102946
102946
102946
102946
102946
102946
102946
102946
102946
102946
102946
102946
102946
102946
102946
102946
102946
102946
102946
102946
102946
102946
102946
102946
102946
102946
102946
102946
102946
102946
102946
102946
102946
102946
102946
102946
102946
102946
102946
102946
102947
102971
103118
103520
104150
104807
105307
105590
105693
105681
105540
105273
105042
104889
104790
104702
104580
104408
104208
104007
103816
103639
103484
103364
103283
103239
103226
103232
103250
103276
103302
103324
103341
103351
103355
103353
103345
103332
103317
103299
103281
103262
103244
103228
103207
103184
103163
103145
103126
103103
103068
103025
102997
102994
103019
103075
103176
103285
103324
103321
103261
103144
103022
102960
102947
102946
102946
102946
102946
102946
102946
102946
102946
102946
102946
102946
102946
102946
102946
102946
102946
102946
102946
102946
102946
102946
102946
102946
102946
102946
102946
102946
102946
102946
102946
102946
102946
102946
102946
102946
102946
102946
102946
102946
102946
102946
102946
102946
102946
102946
102946
102946
102946
102946
102946
102946
102946
102946
102946
102946
102946
102946
102946
102946
102946
102946
102946
102946
102946
102946
102946
102946
102946
102946
102946
102946
102946
102946
102946
102946
102946
102946
102946
102946
102946
102946
102948
102973
103110
103469
104029
104622
105086
105355
105453
105435
105272
105009
104768
104582
104450
104341
104229
104104
103967
103825
103689
103560
103445
103350
103282
103239
103220
103215
103220
103231
103248
103264
103278
103288
103292
103292
103288
103280
103268
103255
103241
103228
103215
103197
103174
103152
103131
103106
103074
103038
103010
103001
103017
103056
103137
103249
103321
103332
103300
103207
103078
102983
102950
102946
102946
102946
102946
102946
102946
102946
102946
102946
102946
102946
102946
102946
102946
102946
102946
102946
102946
102946
102946
102946
102946
102946
102946
102946
102946
102946
102946
102946
102946
102946
102946
102946
102946
102946
102946
102946
102946
102946
102946
102946
102946
102946
102946
102946
102946
102946
102946
102946
102946
102946
102946
102946
102946
102946
102946
102946
102946
102946
102946
102946
102946
102946
102946
102946
102946
102946
102946
102946
102946
102946
102946
102946
102946
102946
102946
102946
102946
102946
102946
102946
102946
102946
102948
102968
103077
103368
103841
104372
104816
105095
105209
105202
105051
104821
104605
104407
104242
104110
104000
103896
103792
103688
103588
103493
103407
103333
103275
103233
103208
103192
103184
103181
103184
103189
103196
103201
103205
103206
103206
103203
103197
103191
103184
103176
103163
103144
103122
103099
103071
103043
103021
103012
103021
103052
103117
103219
103313
103337
103323
103254
103133
103017
102959
102947
102946
102946
102946
102946
102946
102946
102946
102946
102946
102946
102946
102946
102946
102946
102946
102946
102946
102946
102946
102946
102946
102946
102946
102946
102946
102946
102946
102946
102946
102946
102946
102946
102946
102946
102946
102946
102946
102946
102946
102946
102946
102946
102946
102946
102946
102946
102946
102946
102946
102946
102946
102946
102946
102946
102946
102946
102946
102946
102946
102946
102946
102946
102946
102946
102946
102946
102946
102946
102946
102946
102946
102946
102946
102946
102946
102946
102946
102946
102946
102946
102946
102946
102946
102946
102947
102960
103032
103241
103612
104071
104496
104798
104946
104966
104864
104684
104497
104319
104150
104001
103874
103765
103670
103585
103506
103433
103368
103309
103260
103222
103194
103174
103160
103150
103144
103140
103139
103138
103137
103137
103136
103134
103131
103127
103123
103114
103099
103082
103064
103045
103031
103027
103034
103060
103116
103209
103306
103340
103336
103284
103177
103052
102973
102949
102946
102946
102946
102946
102946
102946
102946
102946
102946
102946
102946
102946
102946
102946
102946
102946
102946
102946
102946
102946
102946
102946
102946
102946
102946
102946
102946
102946
102946
102946
102946
102946
102946
102946
102946
102946
102946
102946
102946
102946
102946
102946
102946
102946
102946
102946
102946
102946
102946
102946
102946
102946
102946
102946
102946
102946
102946
102946
102946
102946
102946
102946
102946
102946
102946
102946
102946
102946
102946
102946
102946
102946
102946
102946
102946
102946
102946
102946
102946
102946
102946
102946
102946
102946
102946
102946
102946
102953
102992
103120
103379
103744
104132
104451
104648
104712
104677
104566
104419
104270
104125
103986
103855
103739
103637
103548
103470
103401
103340
103288
103245
103209
103181
103159
103144
103132
103124
103118
103113
103109
103106
103103
103099
103096
103092
103088
103081
103070
103059
103050
103046
103046
103054
103081
103135
103220
103310
103345
103344
103302
103205
103081
102988
102952
102946
102946
102946
102946
102946
102946
102946
102946
102946
102946
102946
102946
102946
102946
102946
102946
102946
102946
102946
102946
102946
102946
102946
102946
102946
102946
102946
102946
102946
102946
102946
102946
102946
102946
102946
102946
102946
102946
102946
102946
102946
102946
102946
102946
102946
102946
102946
102946
102946
102946
102946
102946
102946
102946
102946
102946
102946
102946
102946
102946
102946
102946
102946
102946
102946
102946
102946
102946
102946
102946
102946
102946
102946
102946
102946
102946
102946
102946
102946
102946
102946
102946
102946
102946
102946
102946
102946
102946
102946
102948
102965
103028
103179
103432
103748
104056
104293
104423
104453
104418
104337
104229
104112
104000
103893
103791
103692
103601
103520
103448
103386
103332
103285
103245
103212
103185
103163
103147
103134
103124
103115
103109
103103
103098
103094
103090
103087
103082
103076
103074
103073
103076
103091
103122
103176
103254
103326
103350
103348
103308
103217
103096
102998
102955
102947
102946
102946
102946
102946
102946
102946
102946
102946
102946
102946
102946
102946
102946
102946
102946
102946
102946
102946
102946
102946
102946
102946
102946
102946
102946
102946
102946
102946
102946
102946
102946
102946
102946
102946
102946
102946
102946
102946
102946
102946
102946
102946
102946
102946
102946
102946
102946
102946
102946
102946
102946
102946
102946
102946
102946
102946
102946
102946
102946
102946
102946
102946
102946
102946
102946
102946
102946
102946
102946
102946
102946
102946
102946
102946
102946
102946
102946
102946
102946
102946
102946
102946
102946
102946
102946
102946
102946
102946
102946
102946
102947
102952
102975
103044
103184
103397
103648
103886
104068
104174
104207
104193
104148
104081
104001
103916
103835
103760
103689
103620
103552
103488
103430
103378
103333
103294
103261
103234
103212
103194
103179
103167
103156
103148
103141
103136
103132
103126
103122
103124
103135
103155
103192
103246
103303
103340
103353
103345
103300
103209
103094
103001
102957
102947
102946
102946
102946
102946
102946
102946
102946
102946
102946
102946
102946
102946
102946
102946
102946
102946
102946
102946
102946
102946
102946
102946
102946
102946
102946
102946
102946
102946
102946
102946
102946
102946
102946
102946
102946
102946
102946
102946
102946
102946
102946
102946
102946
102946
102946
102946
102946
102946
102946
102946
102946
102946
102946
102946
102946
102946
102946
102946
102946
102946
102946
102946
102946
102946
102946
102946
102946
102946
102946
102946
102946
102946
102946
102946
102946
102946
102946
102946
102946
102946
102946
102946
102946
102946
102946
102946
102946
102946
102946
102946
102946
102946
102946
102947
102953
102976
103033
103141
103298
103484
103665
103813
103915
103969
103981
103968
103937
103895
103845
103789
103732
103678
103629
103583
103540
103499
103461
103424
103389
103358
103330
103306
103286
103270
103256
103245
103237
103231
103228
103229
103241
103262
103289
103315
103336
103350
103353
103331
103274
103181
103075
102993
102956
102947
102946
102946
102946
102946
102946
102946
102946
102946
102946
102946
102946
102946
102946
102946
102946
102946
102946
102946
102946
102946
102946
102946
102946
102946
102946
102946
102946
102946
102946
102946
102946
102946
102946
102946
102946
102946
102946
102946
102946
102946
102946
102946
102946
102946
102946
102946
102946
102946
102946
102946
102946
102946
102946
102946
102946
102946
102946
102946
102946
102946
102946
102946
102946
102946
102946
102946
102946
102946
102946
102946
102946
102946
102946
102946
102946
102946
102946
102946
102946
102946
102946
102946
102946
102946
102946
102946
102946
102946
102946
102946
102946
102946
102946
102946
102946
102946
102947
102952
102967
103004
103073
103174
103298
103429
103549
103646
103715
103758
103774
103774
103762
103741
103715
103686
103654
103620
103587
103554
103524
103497
103473
103451
103432
103415
103400
103387
103376
103366
103359
103351
103344
103343
103345
103350
103353
103350
103332
103292
103223
103132
103041
102979
102953
102947
102946
102946
102946
102946
102946
102946
102946
102946
102946
102946
102946
102946
102946
102946
102946
102946
102946
102946
102946
102946
102946
102946
102946
102946
102946
102946
102946
102946
102946
102946
102946
102946
102946
102946
102946
102946
102946
102946
102946
102946
102946
102946
102946
102946
102946
102946
102946
102946
102946
102946
102946
102946
102946
102946
102946
102946
102946
102946
102946
102946
102946
102946
102946
102946
102946
102946
102946
102946
102946
102946
102946
102946
102946
102946
102946
102946
102946
102946
102946
102946
102946
102946
102946
102946
102946
102946
102946
102946
102946
102946
102946
102946
102946
102946
102946
102946
102946
102946
102946
102947
102949
102957
102975
103009
103062
103132
103213
103298
103379
103448
103503
103543
103571
103585
103589
103587
103579
103568
103554
103539
103524
103508
103492
103477
103462
103448
103436
103424
103414
103404
103393
103379
103367
103354
103338
103314
103276
103220
103146
103067
103002
102964
102949
102946
102946
102946
102946
102946
102946
102946
102946
102946
102946
102946
102946
102946
102946
102946
102946
102946
102946
102946
102946
102946
102946
102946
102946
102946
102946
102946
102946
102946
102946
102946
102946
102946
102946
102946
102946
102946
102946
102946
102946
102946
102946
102946
102946
102946
102946
102946
102946
102946
102946
102946
102946
102946
102946
102946
102946
102946
102946
102946
102946
102946
102946
102946
102946
102946
102946
102946
102946
102946
102946
102946
102946
102946
102946
102946
102946
102946
102946
102946
102946
102946
102946
102946
102946
102946
102946
102946
102946
102946
102946
102946
102946
102946
102946
102946
102946
102946
102946
102946
102946
102946
102946
102946
102946
102947
102950
102956
102968
102988
103018
103056
103102
103151
103200
103246
103288
103323
103352
103374
103390
103401
103407
103409
103408
103405
103400
103394
103387
103379
103370
103362
103353
103338
103317
103292
103262
103223
103174
103116
103057
103005
102970
102953
102947
102946
102946
102946
102946
102946
102946
102946
102946
102946
102946
102946
102946
102946
102946
102946
102946
102946
102946
102946
102946
102946
102946
102946
102946
102946
102946
102946
102946
102946
102946
102946
102946
102946
102946
102946
102946
102946
102946
102946
102946
102946
102946
102946
102946
102946
102946
102946
102946
102946
102946
102946
102946
102946
102946
102946
102946
102946
102946
102946
102946
102946
102946
102946
102946
102946
102946
102946
102946
102946
102946
102946
102946
102946
102946
102946
102946
102946
102946
102946
102946
102946
102946
102946
102946
102946
102946
102946
102946
102946
102946
102946
102946
102946
102946
102946
102946
102946
102946
102946
102946
102946
102946
102946
102946
102946
102946
102946
102946
102947
102948
102951
102956
102964
102976
102991
103009
103031
103053
103077
103099
103121
103140
103157
103170
103182
103190
103196
103199
103200
103199
103196
103191
103184
103171
103149
103121
103088
103052
103016
102986
102964
102952
102948
102946
102946
102946
102946
102946
102946
102946
102946
102946
102946
102946
102946
102946
102946
102946
102946