/*--------------------------------*- C++ -*----------------------------------*\
| =========                 |                                                 |
| \\      /  F ield         | OpenFOAM: The Open Source CFD Toolbox           |
|  \\    /   O peration     | Version:  2406                                  |
|   \\  /    A nd           | Website:  www.openfoam.com                      |
|    \\/     M anipulation  |                                                 |
\*---------------------------------------------------------------------------*/
FoamFile
{
    version     2.0;
    format      ascii;
    arch        "LSB;label=32;scalar=64";
    class       volScalarField;
    location    "0.07";
    object      rho;
}
// * * * * * * * * * * * * * * * * * * * * * * * * * * * * * * * * * * * * * //

dimensions      [1 -3 0 0 0 0 0];

internalField   nonuniform List<scalar> 
13948
(
1.11718
1.17506
1.19202
1.19923
1.20418
1.20877
1.21379
1.21833
1.22099
1.22174
1.22187
1.22129
1.2206
1.22055
1.22101
1.2222
1.22391
1.22482
1.22499
1.22449
1.22328
1.22197
1.22135
1.22126
1.22125
1.22125
1.22125
1.22125
1.22125
1.22125
1.22125
1.22125
1.22125
1.22125
1.22125
1.22125
1.22125
1.22125
1.22125
1.22125
1.22125
1.22125
1.22125
1.22125
1.22125
1.22125
1.22125
1.22125
1.22125
1.22125
1.22125
1.22125
1.22125
1.22125
1.22125
1.22125
1.22125
1.22125
1.22125
1.22125
1.22125
1.22125
1.22125
1.22125
1.22125
1.22125
1.22125
1.22125
1.22125
1.22125
1.22125
1.22125
1.22125
1.22125
1.22125
1.22125
1.22125
1.22125
1.22125
1.22125
1.22125
1.22125
1.22125
1.22125
1.22125
1.22125
1.22125
1.22125
1.22125
1.22125
1.22125
1.22125
1.22125
1.22125
1.22125
1.22125
1.22125
1.22125
1.22125
1.13333
1.15203
1.18233
1.19508
1.20124
1.20564
1.2098
1.21442
1.21863
1.22108
1.22178
1.2219
1.22135
1.22068
1.22066
1.22111
1.22226
1.2239
1.22475
1.2249
1.2244
1.22321
1.22194
1.22135
1.22125
1.22125
1.22125
1.22125
1.22125
1.22125
1.22125
1.22125
1.22125
1.22125
1.22125
1.22125
1.22125
1.22125
1.22125
1.22125
1.22125
1.22125
1.22125
1.22125
1.22125
1.22125
1.22125
1.22125
1.22125
1.22125
1.22125
1.22125
1.22125
1.22125
1.22125
1.22125
1.22125
1.22125
1.22125
1.22125
1.22125
1.22125
1.22125
1.22125
1.22125
1.22125
1.22125
1.22125
1.22125
1.22125
1.22125
1.22125
1.22125
1.22125
1.22125
1.22125
1.22125
1.22125
1.22125
1.22125
1.22125
1.22125
1.22125
1.22125
1.22125
1.22125
1.22125
1.22125
1.22125
1.22125
1.22125
1.22125
1.22125
1.22125
1.22125
1.22125
1.22125
1.22125
1.22125
1.22125
1.1427
1.12578
1.11369
1.10644
1.10137
1.10421
1.11501
1.13163
1.14783
1.16416
1.16753
1.1868
1.1968
1.20251
1.20662
1.2106
1.21498
1.21892
1.22117
1.22181
1.22191
1.22137
1.22073
1.22074
1.22119
1.22233
1.22392
1.22471
1.22483
1.22432
1.22315
1.2219
1.22134
1.22125
1.22125
1.22125
1.22125
1.22125
1.22125
1.22125
1.22125
1.22125
1.22125
1.22125
1.22125
1.22125
1.22125
1.22125
1.22125
1.22125
1.22125
1.22125
1.22125
1.22125
1.22125
1.22125
1.22125
1.22125
1.22125
1.22125
1.22125
1.22125
1.22125
1.22125
1.22125
1.22125
1.22125
1.22125
1.22125
1.22125
1.22125
1.22125
1.22125
1.22125
1.22125
1.22125
1.22125
1.22125
1.22125
1.22125
1.22125
1.22125
1.22125
1.22125
1.22125
1.22125
1.22125
1.22125
1.22125
1.22125
1.22125
1.22125
1.22125
1.22125
1.22125
1.22125
1.22125
1.22125
1.22125
1.22125
1.22125
1.22125
1.22125
1.22125
1.22125
1.22125
1.22125
1.22125
1.22125
1.28175
1.29328
1.30533
1.31717
1.32848
1.33986
1.35201
1.36453
1.37565
1.38306
1.38524
1.37008
1.31831
1.21692
1.06155
0.894573
0.816257
0.813635
0.884936
1.00229
1.08698
1.14894
1.19363
1.22143
1.23719
1.24468
1.24652
1.24425
1.24006
1.23419
1.22596
1.21452
1.20142
1.18652
1.17262
1.16124
1.15286
1.14801
1.1483
1.15341
1.1631
1.17198
1.18058
1.18488
1.1937
1.19926
1.20394
1.20766
1.2115
1.21564
1.21926
1.22128
1.22186
1.22192
1.22138
1.22078
1.22082
1.22128
1.22242
1.22396
1.22467
1.22477
1.22424
1.22307
1.22186
1.22133
1.22125
1.22125
1.22125
1.22125
1.22125
1.22125
1.22125
1.22125
1.22125
1.22125
1.22125
1.22125
1.22125
1.22125
1.22125
1.22125
1.22125
1.22125
1.22125
1.22125
1.22125
1.22125
1.22125
1.22125
1.22125
1.22125
1.22125
1.22125
1.22125
1.22125
1.22125
1.22125
1.22125
1.22125
1.22125
1.22125
1.22125
1.22125
1.22125
1.22125
1.22125
1.22125
1.22125
1.22125
1.22125
1.22125
1.22125
1.22125
1.22125
1.22125
1.22125
1.22125
1.22125
1.22125
1.22125
1.22125
1.22125
1.22125
1.22125
1.22125
1.22125
1.22125
1.22125
1.22125
1.22125
1.22125
1.22125
1.22125
1.22125
1.22125
1.22125
1.22125
1.22125
1.22125
1.22125
1.22125
1.25713
1.26764
1.27777
1.28843
1.29966
1.31071
1.32096
1.33072
1.34063
1.35052
1.35875
1.36303
1.36164
1.34505
1.3032
1.23459
1.14022
1.0327
0.960114
0.942943
0.97571
1.05397
1.12034
1.16629
1.2
1.22186
1.23475
1.24114
1.24333
1.2426
1.24043
1.23729
1.2323
1.22517
1.2167
1.20726
1.19808
1.19034
1.18431
1.18005
1.178
1.17888
1.18235
1.18624
1.19006
1.19269
1.19774
1.20163
1.20533
1.2087
1.21242
1.21632
1.21962
1.22139
1.22192
1.22193
1.22138
1.22083
1.2209
1.22138
1.22252
1.22401
1.22465
1.22471
1.22416
1.22298
1.22181
1.22132
1.22125
1.22125
1.22125
1.22125
1.22125
1.22125
1.22125
1.22125
1.22125
1.22125
1.22125
1.22125
1.22125
1.22125
1.22125
1.22125
1.22125
1.22125
1.22125
1.22125
1.22125
1.22125
1.22125
1.22125
1.22125
1.22125
1.22125
1.22125
1.22125
1.22125
1.22125
1.22125
1.22125
1.22125
1.22125
1.22125
1.22125
1.22125
1.22125
1.22125
1.22125
1.22125
1.22125
1.22125
1.22125
1.22125
1.22125
1.22125
1.22125
1.22125
1.22125
1.22125
1.22125
1.22125
1.22125
1.22125
1.22125
1.22125
1.22125
1.22125
1.22125
1.22125
1.22125
1.22125
1.22125
1.22125
1.22125
1.22125
1.22125
1.22125
1.22125
1.22125
1.22125
1.22125
1.22125
1.22125
1.24282
1.25414
1.26427
1.2737
1.28343
1.29376
1.30402
1.31336
1.32167
1.32947
1.33683
1.34255
1.34505
1.34145
1.32422
1.2891
1.23937
1.17748
1.11048
1.05673
1.03662
1.04992
1.09542
1.1439
1.17754
1.20224
1.21955
1.23023
1.23612
1.23867
1.23886
1.23769
1.23539
1.23224
1.22783
1.22236
1.21622
1.20961
1.20323
1.19793
1.19462
1.19344
1.19288
1.19384
1.19549
1.19691
1.19837
1.20153
1.20411
1.20691
1.20994
1.21345
1.21707
1.22001
1.2215
1.22199
1.22193
1.22137
1.22087
1.22099
1.22149
1.22264
1.22407
1.22462
1.22465
1.22406
1.22288
1.22176
1.22131
1.22125
1.22125
1.22125
1.22125
1.22125
1.22125
1.22125
1.22125
1.22125
1.22125
1.22125
1.22125
1.22125
1.22125
1.22125
1.22125
1.22125
1.22125
1.22125
1.22125
1.22125
1.22125
1.22125
1.22125
1.22125
1.22125
1.22125
1.22125
1.22125
1.22125
1.22125
1.22125
1.22125
1.22125
1.22125
1.22125
1.22125
1.22125
1.22125
1.22125
1.22125
1.22125
1.22125
1.22125
1.22125
1.22125
1.22125
1.22125
1.22125
1.22125
1.22125
1.22125
1.22125
1.22125
1.22125
1.22125
1.22125
1.22125
1.22125
1.22125
1.22125
1.22125
1.22125
1.22125
1.22125
1.22125
1.22125
1.22125
1.22125
1.22125
1.22125
1.22125
1.22125
1.22125
1.22125
1.22125
1.23995
1.25099
1.26081
1.26961
1.27838
1.28771
1.29715
1.30571
1.31288
1.31888
1.32397
1.32756
1.32877
1.3241
1.30788
1.27932
1.24156
1.1972
1.15222
1.11627
1.09875
1.10101
1.12425
1.15999
1.18425
1.20177
1.21537
1.22466
1.23031
1.23324
1.23425
1.23419
1.23277
1.2304
1.22721
1.2232
1.21906
1.2145
1.21002
1.20608
1.203
1.20123
1.20075
1.20073
1.2011
1.20151
1.20208
1.20413
1.20608
1.20847
1.21127
1.21453
1.21783
1.2204
1.22161
1.22206
1.22193
1.22136
1.22091
1.22108
1.22161
1.22278
1.22413
1.22461
1.22458
1.22395
1.22276
1.2217
1.2213
1.22125
1.22125
1.22125
1.22125
1.22125
1.22125
1.22125
1.22125
1.22125
1.22125
1.22125
1.22125
1.22125
1.22125
1.22125
1.22125
1.22125
1.22125
1.22125
1.22125
1.22125
1.22125
1.22125
1.22125
1.22125
1.22125
1.22125
1.22125
1.22125
1.22125
1.22125
1.22125
1.22125
1.22125
1.22125
1.22125
1.22125
1.22125
1.22125
1.22125
1.22125
1.22125
1.22125
1.22125
1.22125
1.22125
1.22125
1.22125
1.22125
1.22125
1.22125
1.22125
1.22125
1.22125
1.22125
1.22125
1.22125
1.22125
1.22125
1.22125
1.22125
1.22125
1.22125
1.22125
1.22125
1.22125
1.22125
1.22125
1.22125
1.22125
1.22125
1.22125
1.22125
1.22125
1.22125
1.22125
1.23694
1.24767
1.25727
1.26554
1.27338
1.28162
1.29015
1.29804
1.3044
1.30908
1.31237
1.31423
1.3142
1.30898
1.29492
1.27285
1.24392
1.21031
1.17709
1.15025
1.13494
1.13213
1.14375
1.16925
1.18828
1.20161
1.21227
1.22013
1.22543
1.22855
1.23005
1.23057
1.22992
1.22819
1.22602
1.22304
1.22
1.21678
1.21359
1.21074
1.20834
1.20661
1.2055
1.20476
1.20441
1.2044
1.20469
1.2063
1.20805
1.21018
1.21272
1.21568
1.21861
1.22078
1.22174
1.22212
1.22191
1.22134
1.22096
1.22117
1.22175
1.22293
1.22419
1.22459
1.22451
1.22383
1.22263
1.22163
1.22129
1.22125
1.22125
1.22125
1.22125
1.22125
1.22125
1.22125
1.22125
1.22125
1.22125
1.22125
1.22125
1.22125
1.22125
1.22125
1.22125
1.22125
1.22125
1.22125
1.22125
1.22125
1.22125
1.22125
1.22125
1.22125
1.22125
1.22125
1.22125
1.22125
1.22125
1.22125
1.22125
1.22125
1.22125
1.22125
1.22125
1.22125
1.22125
1.22125
1.22125
1.22125
1.22125
1.22125
1.22125
1.22125
1.22125
1.22125
1.22125
1.22125
1.22125
1.22125
1.22125
1.22125
1.22125
1.22125
1.22125
1.22125
1.22125
1.22125
1.22125
1.22125
1.22125
1.22125
1.22125
1.22125
1.22125
1.22125
1.22125
1.22125
1.22125
1.22125
1.22125
1.22125
1.22125
1.22125
1.22125
1.23384
1.24414
1.25364
1.26153
1.26855
1.27565
1.28314
1.29034
1.29617
1.30008
1.30216
1.3029
1.3017
1.29587
1.28412
1.26755
1.246
1.22079
1.19544
1.17429
1.16089
1.15607
1.1602
1.17537
1.19112
1.20206
1.21085
1.21748
1.22225
1.22529
1.22695
1.22763
1.22745
1.22629
1.22475
1.22269
1.22031
1.21787
1.21542
1.21313
1.21109
1.20941
1.20815
1.20736
1.20684
1.20669
1.20693
1.20836
1.20993
1.21183
1.21416
1.21683
1.21937
1.22113
1.22188
1.22217
1.22189
1.22131
1.22102
1.22127
1.2219
1.22311
1.22426
1.22457
1.22443
1.22369
1.22249
1.22157
1.22128
1.22125
1.22125
1.22125
1.22125
1.22125
1.22125
1.22125
1.22125
1.22125
1.22125
1.22125
1.22125
1.22125
1.22125
1.22125
1.22125
1.22125
1.22125
1.22125
1.22125
1.22125
1.22125
1.22125
1.22125
1.22125
1.22125
1.22125
1.22125
1.22125
1.22125
1.22125
1.22125
1.22125
1.22125
1.22125
1.22125
1.22125
1.22125
1.22125
1.22125
1.22125
1.22125
1.22125
1.22125
1.22125
1.22125
1.22125
1.22125
1.22125
1.22125
1.22125
1.22125
1.22125
1.22125
1.22125
1.22125
1.22125
1.22125
1.22125
1.22125
1.22125
1.22125
1.22125
1.22125
1.22125
1.22125
1.22125
1.22125
1.22125
1.22125
1.22125
1.22125
1.22125
1.22125
1.22125
1.22125
1.23073
1.24041
1.24986
1.2576
1.26399
1.27001
1.27631
1.28267
1.28809
1.29168
1.29325
1.29339
1.29149
1.28538
1.27507
1.2623
1.24667
1.22826
1.20921
1.19264
1.18107
1.17574
1.17593
1.18306
1.19508
1.20374
1.21073
1.21643
1.2207
1.2235
1.22508
1.22571
1.22572
1.22502
1.2238
1.22242
1.22068
1.2188
1.21688
1.21502
1.2133
1.2118
1.2106
1.2098
1.20932
1.20914
1.20924
1.21042
1.21181
1.2135
1.21562
1.21797
1.22008
1.22146
1.22203
1.2222
1.22183
1.22128
1.2211
1.22138
1.22209
1.22331
1.2243
1.22456
1.22434
1.22353
1.22233
1.2215
1.22127
1.22125
1.22125
1.22125
1.22125
1.22125
1.22125
1.22125
1.22125
1.22125
1.22125
1.22125
1.22125
1.22125
1.22125
1.22125
1.22125
1.22125
1.22125
1.22125
1.22125
1.22125
1.22125
1.22125
1.22125
1.22125
1.22125
1.22125
1.22125
1.22125
1.22125
1.22125
1.22125
1.22125
1.22125
1.22125
1.22125
1.22125
1.22125
1.22125
1.22125
1.22125
1.22125
1.22125
1.22125
1.22125
1.22125
1.22125
1.22125
1.22125
1.22125
1.22125
1.22125
1.22125
1.22125
1.22125
1.22125
1.22125
1.22125
1.22125
1.22125
1.22125
1.22125
1.22125
1.22125
1.22125
1.22125
1.22125
1.22125
1.22125
1.22125
1.22125
1.22125
1.22125
1.22125
1.22125
1.22125
1.22777
1.23648
1.24585
1.25366
1.25971
1.26484
1.26993
1.27521
1.28011
1.28362
1.28521
1.28527
1.2834
1.27767
1.26825
1.25754
1.24582
1.23235
1.21835
1.20563
1.19603
1.1907
1.18925
1.19196
1.19963
1.20645
1.21162
1.21618
1.21976
1.22232
1.22384
1.22452
1.22465
1.22431
1.22339
1.22235
1.22114
1.21974
1.21827
1.21678
1.21537
1.21411
1.21309
1.21239
1.21194
1.21173
1.21167
1.2125
1.21367
1.21515
1.21703
1.21904
1.22073
1.22175
1.22221
1.22221
1.22176
1.22125
1.22119
1.22151
1.2223
1.22353
1.22435
1.22454
1.22423
1.22334
1.22217
1.22144
1.22126
1.22125
1.22125
1.22125
1.22125
1.22125
1.22125
1.22125
1.22125
1.22125
1.22125
1.22125
1.22125
1.22125
1.22125
1.22125
1.22125
1.22125
1.22125
1.22125
1.22125
1.22125
1.22125
1.22125
1.22125
1.22125
1.22125
1.22125
1.22125
1.22125
1.22125
1.22125
1.22125
1.22125
1.22125
1.22125
1.22125
1.22125
1.22125
1.22125
1.22125
1.22125
1.22125
1.22125
1.22125
1.22125
1.22125
1.22125
1.22125
1.22125
1.22125
1.22125
1.22125
1.22125
1.22125
1.22125
1.22125
1.22125
1.22125
1.22125
1.22125
1.22125
1.22125
1.22125
1.22125
1.22125
1.22125
1.22125
1.22125
1.22125
1.22125
1.22125
1.22125
1.22125
1.22125
1.22125
1.22125
1.2252
1.23246
1.24155
1.24959
1.25564
1.26023
1.26426
1.26833
1.27239
1.27572
1.27756
1.27791
1.27663
1.27219
1.2639
1.25436
1.24469
1.23446
1.22394
1.21416
1.20631
1.20126
1.1992
1.19971
1.20354
1.20893
1.21289
1.21623
1.21899
1.22113
1.22262
1.22348
1.22381
1.22378
1.2233
1.22247
1.22163
1.22064
1.21954
1.21841
1.21732
1.21632
1.21549
1.21487
1.21444
1.21422
1.21407
1.21454
1.2155
1.21676
1.21838
1.22003
1.22131
1.22203
1.22235
1.22218
1.22167
1.22124
1.2213
1.22167
1.22254
1.22375
1.22438
1.22449
1.2241
1.22313
1.222
1.22138
1.22126
1.22125
1.22125
1.22125
1.22125
1.22125
1.22125
1.22125
1.22125
1.22125
1.22125
1.22125
1.22125
1.22125
1.22125
1.22125
1.22125
1.22125
1.22125
1.22125
1.22125
1.22125
1.22125
1.22125
1.22125
1.22125
1.22125
1.22125
1.22125
1.22125
1.22125
1.22125
1.22125
1.22125
1.22125
1.22125
1.22125
1.22125
1.22125
1.22125
1.22125
1.22125
1.22125
1.22125
1.22125
1.22125
1.22125
1.22125
1.22125
1.22125
1.22125
1.22125
1.22125
1.22125
1.22125
1.22125
1.22125
1.22125
1.22125
1.22125
1.22125
1.22125
1.22125
1.22125
1.22125
1.22125
1.22125
1.22125
1.22125
1.22125
1.22125
1.22125
1.22125
1.22125
1.22125
1.22125
1.22125
1.22323
1.22861
1.23693
1.24521
1.25161
1.25609
1.25943
1.26238
1.26535
1.26813
1.27007
1.27078
1.27028
1.26764
1.26126
1.25298
1.2446
1.23623
1.22786
1.22005
1.21352
1.20887
1.2064
1.20581
1.20718
1.21073
1.21396
1.2165
1.21869
1.2204
1.22172
1.22262
1.22313
1.22333
1.22327
1.2228
1.22218
1.22149
1.22069
1.21983
1.219
1.21823
1.21758
1.21706
1.21668
1.21646
1.21628
1.21646
1.21724
1.21829
1.21964
1.22091
1.22182
1.22231
1.22239
1.2221
1.22157
1.22126
1.22141
1.22186
1.22281
1.22396
1.22442
1.22443
1.22393
1.22288
1.22182
1.22134
1.22125
1.22125
1.22125
1.22125
1.22125
1.22125
1.22125
1.22125
1.22125
1.22125
1.22125
1.22125
1.22125
1.22125
1.22125
1.22125
1.22125
1.22125
1.22125
1.22125
1.22125
1.22125
1.22125
1.22125
1.22125
1.22125
1.22125
1.22125
1.22125
1.22125
1.22125
1.22125
1.22125
1.22125
1.22125
1.22125
1.22125
1.22125
1.22125
1.22125
1.22125
1.22125
1.22125
1.22125
1.22125
1.22125
1.22125
1.22125
1.22125
1.22125
1.22125
1.22125
1.22125
1.22125
1.22125
1.22125
1.22125
1.22125
1.22125
1.22125
1.22125
1.22125
1.22125
1.22125
1.22125
1.22125
1.22125
1.22125
1.22125
1.22125
1.22125
1.22125
1.22125
1.22125
1.22125
1.22125
1.22125
1.22201
1.22531
1.23216
1.24037
1.24734
1.25218
1.25532
1.25754
1.25945
1.2613
1.26287
1.26375
1.26383
1.26274
1.25893
1.2524
1.2453
1.23834
1.23147
1.22499
1.2194
1.2151
1.21236
1.21116
1.2112
1.21277
1.21523
1.21722
1.21896
1.22041
1.22155
1.2224
1.22297
1.22329
1.22341
1.22322
1.22278
1.2223
1.22172
1.22109
1.22047
1.21989
1.21938
1.21897
1.21865
1.21846
1.21827
1.2183
1.2189
1.21975
1.2208
1.22168
1.22226
1.22247
1.22236
1.22196
1.22149
1.22132
1.22155
1.2221
1.22313
1.22414
1.22444
1.22435
1.22372
1.22261
1.22166
1.2213
1.22125
1.22125
1.22125
1.22125
1.22125
1.22125
1.22125
1.22125
1.22125
1.22125
1.22125
1.22125
1.22125
1.22125
1.22125
1.22125
1.22125
1.22125
1.22125
1.22125
1.22125
1.22125
1.22125
1.22125
1.22125
1.22125
1.22125
1.22125
1.22125
1.22125
1.22125
1.22125
1.22125
1.22125
1.22125
1.22125
1.22125
1.22125
1.22125
1.22125
1.22125
1.22125
1.22125
1.22125
1.22125
1.22125
1.22125
1.22125
1.22125
1.22125
1.22125
1.22125
1.22125
1.22125
1.22125
1.22125
1.22125
1.22125
1.22125
1.22125
1.22125
1.22125
1.22125
1.22125
1.22125
1.22125
1.22125
1.22125
1.22125
1.22125
1.22125
1.22125
1.22125
1.22125
1.22125
1.22125
1.22125
1.22145
1.22298
1.22769
1.23509
1.24254
1.24813
1.25163
1.25366
1.25488
1.2558
1.25657
1.25712
1.25731
1.25707
1.25558
1.2514
1.24582
1.24023
1.23472
1.22939
1.2246
1.22068
1.21786
1.21621
1.21559
1.21586
1.21712
1.21863
1.21991
1.22107
1.22202
1.22275
1.22326
1.22355
1.22372
1.22371
1.22343
1.22308
1.22268
1.22224
1.2218
1.22138
1.22101
1.2207
1.22045
1.22028
1.22011
1.22008
1.2205
1.22112
1.2218
1.22229
1.22251
1.22251
1.22227
1.22181
1.22144
1.22143
1.22172
1.2224
1.22348
1.22427
1.22446
1.22423
1.22345
1.22232
1.22152
1.22128
1.22125
1.22125
1.22125
1.22125
1.22125
1.22125
1.22125
1.22125
1.22125
1.22125
1.22125
1.22125
1.22125
1.22125
1.22125
1.22125
1.22125
1.22125
1.22125
1.22125
1.22125
1.22125
1.22125
1.22125
1.22125
1.22125
1.22125
1.22125
1.22125
1.22125
1.22125
1.22125
1.22125
1.22125
1.22125
1.22125
1.22125
1.22125
1.22125
1.22125
1.22125
1.22125
1.22125
1.22125
1.22125
1.22125
1.22125
1.22125
1.22125
1.22125
1.22125
1.22125
1.22125
1.22125
1.22125
1.22125
1.22125
1.22125
1.22125
1.22125
1.22125
1.22125
1.22125
1.22125
1.22125
1.22125
1.22125
1.22125
1.22125
1.22125
1.22125
1.22125
1.22125
1.22125
1.22125
1.22125
1.22125
1.22128
1.22175
1.22419
1.22977
1.23704
1.24348
1.24786
1.2503
1.25142
1.25181
1.25185
1.25158
1.25127
1.25118
1.25087
1.2491
1.24539
1.24103
1.23678
1.23265
1.2287
1.22526
1.22256
1.22072
1.21971
1.21938
1.21967
1.22049
1.22139
1.2222
1.22287
1.22336
1.22379
1.22404
1.22418
1.22423
1.22407
1.22382
1.22356
1.22328
1.22298
1.22269
1.22243
1.22219
1.22199
1.22183
1.22169
1.22165
1.22187
1.22218
1.22245
1.22259
1.22261
1.22247
1.22212
1.22167
1.22143
1.22157
1.22195
1.22276
1.22383
1.22436
1.22444
1.22405
1.22312
1.22203
1.2214
1.22126
1.22125
1.22125
1.22125
1.22125
1.22125
1.22125
1.22125
1.22125
1.22125
1.22125
1.22125
1.22125
1.22125
1.22125
1.22125
1.22125
1.22125
1.22125
1.22125
1.22125
1.22125
1.22125
1.22125
1.22125
1.22125
1.22125
1.22125
1.22125
1.22125
1.22125
1.22125
1.22125
1.22125
1.22125
1.22125
1.22125
1.22125
1.22125
1.22125
1.22125
1.22125
1.22125
1.22125
1.22125
1.22125
1.22125
1.22125
1.22125
1.22125
1.22125
1.22125
1.22125
1.22125
1.22125
1.22125
1.22125
1.22125
1.22125
1.22125
1.22125
1.22125
1.22125
1.22125
1.22125
1.22125
1.22125
1.22125
1.22125
1.22125
1.22125
1.22125
1.22125
1.22125
1.22125
1.22125
1.22125
1.22125
1.22125
1.22133
1.22216
1.22529
1.23117
1.23793
1.24342
1.24685
1.24847
1.24894
1.24873
1.24785
1.24662
1.24594
1.24571
1.24522
1.24355
1.24063
1.23737
1.23421
1.23118
1.22833
1.22589
1.22403
1.22279
1.22214
1.22196
1.22216
1.22261
1.22311
1.22355
1.22396
1.22428
1.22449
1.22461
1.22463
1.22459
1.22445
1.22427
1.22408
1.22387
1.22366
1.22345
1.22325
1.22307
1.22291
1.22274
1.22265
1.22266
1.2227
1.22273
1.22271
1.2226
1.22235
1.22193
1.22158
1.22151
1.22174
1.22226
1.22319
1.22414
1.22443
1.22436
1.22378
1.22273
1.22175
1.22132
1.22125
1.22125
1.22125
1.22125
1.22125
1.22125
1.22125
1.22125
1.22125
1.22125
1.22125
1.22125
1.22125
1.22125
1.22125
1.22125
1.22125
1.22125
1.22125
1.22125
1.22125
1.22125
1.22125
1.22125
1.22125
1.22125
1.22125
1.22125
1.22125
1.22125
1.22125
1.22125
1.22125
1.22125
1.22125
1.22125
1.22125
1.22125
1.22125
1.22125
1.22125
1.22125
1.22125
1.22125
1.22125
1.22125
1.22125
1.22125
1.22125
1.22125
1.22125
1.22125
1.22125
1.22125
1.22125
1.22125
1.22125
1.22125
1.22125
1.22125
1.22125
1.22125
1.22125
1.22125
1.22125
1.22125
1.22125
1.22125
1.22125
1.22125
1.22125
1.22125
1.22125
1.22125
1.22125
1.22125
1.22125
1.22125
1.22125
1.22126
1.22141
1.22253
1.22598
1.23172
1.23785
1.24258
1.24534
1.24645
1.24656
1.24581
1.24402
1.24231
1.24135
1.24088
1.24027
1.23889
1.23676
1.23438
1.23207
1.22986
1.22781
1.22604
1.2247
1.22382
1.22337
1.22324
1.22336
1.22363
1.22398
1.22428
1.22451
1.22468
1.22479
1.22483
1.22483
1.22476
1.22463
1.22448
1.22433
1.22416
1.22398
1.2238
1.22363
1.22347
1.22329
1.22312
1.223
1.22292
1.22282
1.2227
1.22249
1.22215
1.22176
1.22157
1.22166
1.22199
1.22268
1.22367
1.22434
1.22447
1.2242
1.22341
1.22231
1.22152
1.22128
1.22125
1.22125
1.22125
1.22125
1.22125
1.22125
1.22125
1.22125
1.22125
1.22125
1.22125
1.22125
1.22125
1.22125
1.22125
1.22125
1.22125
1.22125
1.22125
1.22125
1.22125
1.22125
1.22125
1.22125
1.22125
1.22125
1.22125
1.22125
1.22125
1.22125
1.22125
1.22125
1.22125
1.22125
1.22125
1.22125
1.22125
1.22125
1.22125
1.22125
1.22125
1.22125
1.22125
1.22125
1.22125
1.22125
1.22125
1.22125
1.22125
1.22125
1.22125
1.22125
1.22125
1.22125
1.22125
1.22125
1.22125
1.22125
1.22125
1.22125
1.22125
1.22125
1.22125
1.22125
1.22125
1.22125
1.22125
1.22125
1.22125
1.22125
1.22125
1.22125
1.22125
1.22125
1.22125
1.22125
1.22125
1.22125
1.22125
1.22125
1.22126
1.22147
1.2227
1.22611
1.23143
1.23696
1.24117
1.24356
1.24442
1.24432
1.24313
1.24089
1.23894
1.23765
1.23682
1.23608
1.23505
1.2336
1.23191
1.23021
1.2286
1.22711
1.2258
1.22478
1.22409
1.22372
1.22361
1.22366
1.22381
1.22404
1.22425
1.22444
1.22459
1.22466
1.22471
1.22469
1.22462
1.22451
1.22438
1.22423
1.22408
1.22392
1.22377
1.22363
1.22346
1.22326
1.22308
1.22293
1.22278
1.22258
1.22228
1.22192
1.22168
1.22166
1.22187
1.22235
1.2232
1.22412
1.22445
1.22443
1.22392
1.22292
1.2219
1.22137
1.22126
1.22125
1.22125
1.22125
1.22125
1.22125
1.22125
1.22125
1.22125
1.22125
1.22125
1.22125
1.22125
1.22125
1.22125
1.22125
1.22125
1.22125
1.22125
1.22125
1.22125
1.22125
1.22125
1.22125
1.22125
1.22125
1.22125
1.22125
1.22125
1.22125
1.22125
1.22125
1.22125
1.22125
1.22125
1.22125
1.22125
1.22125
1.22125
1.22125
1.22125
1.22125
1.22125
1.22125
1.22125
1.22125
1.22125
1.22125
1.22125
1.22125
1.22125
1.22125
1.22125
1.22125
1.22125
1.22125
1.22125
1.22125
1.22125
1.22125
1.22125
1.22125
1.22125
1.22125
1.22125
1.22125
1.22125
1.22125
1.22125
1.22125
1.22125
1.22125
1.22125
1.22125
1.22125
1.22125
1.22125
1.22125
1.22125
1.22125
1.22125
1.22125
1.22127
1.22148
1.22264
1.22568
1.23041
1.23541
1.23931
1.24158
1.24241
1.24225
1.24088
1.23867
1.23664
1.23507
1.23396
1.23303
1.23209
1.23103
1.22987
1.22868
1.22753
1.22644
1.22546
1.22466
1.22408
1.22373
1.22356
1.22352
1.22356
1.22366
1.2238
1.22394
1.22405
1.22414
1.22417
1.22418
1.22414
1.22407
1.22397
1.22386
1.22375
1.22363
1.22352
1.22337
1.22318
1.22299
1.22281
1.2226
1.22234
1.22203
1.22179
1.22172
1.22185
1.22218
1.22287
1.22381
1.22442
1.22452
1.22425
1.22346
1.22237
1.22157
1.22129
1.22125
1.22125
1.22125
1.22125
1.22125
1.22125
1.22125
1.22125
1.22125
1.22125
1.22125
1.22125
1.22125
1.22125
1.22125
1.22125
1.22125
1.22125
1.22125
1.22125
1.22125
1.22125
1.22125
1.22125
1.22125
1.22125
1.22125
1.22125
1.22125
1.22125
1.22125
1.22125
1.22125
1.22125
1.22125
1.22125
1.22125
1.22125
1.22125
1.22125
1.22125
1.22125
1.22125
1.22125
1.22125
1.22125
1.22125
1.22125
1.22125
1.22125
1.22125
1.22125
1.22125
1.22125
1.22125
1.22125
1.22125
1.22125
1.22125
1.22125
1.22125
1.22125
1.22125
1.22125
1.22125
1.22125
1.22125
1.22125
1.22125
1.22125
1.22125
1.22125
1.22125
1.22125
1.22125
1.22125
1.22125
1.22125
1.22125
1.22125
1.22125
1.22125
1.22125
1.22127
1.22144
1.22236
1.22482
1.22882
1.2333
1.23704
1.23939
1.24035
1.24029
1.23902
1.23708
1.23526
1.2336
1.2322
1.23109
1.23015
1.22928
1.2284
1.22752
1.22668
1.22587
1.22514
1.22452
1.22403
1.22368
1.22346
1.22332
1.22326
1.22324
1.22326
1.2233
1.22336
1.22341
1.22344
1.22345
1.22344
1.22342
1.22338
1.22332
1.22326
1.22319
1.22308
1.22292
1.22274
1.22254
1.22231
1.22208
1.22188
1.22181
1.22189
1.22215
1.2227
1.22357
1.22436
1.22456
1.22444
1.22386
1.22283
1.22185
1.22136
1.22126
1.22125
1.22125
1.22125
1.22125
1.22125
1.22125
1.22125
1.22125
1.22125
1.22125
1.22125
1.22125
1.22125
1.22125
1.22125
1.22125
1.22125
1.22125
1.22125
1.22125
1.22125
1.22125
1.22125
1.22125
1.22125
1.22125
1.22125
1.22125
1.22125
1.22125
1.22125
1.22125
1.22125
1.22125
1.22125
1.22125
1.22125
1.22125
1.22125
1.22125
1.22125
1.22125
1.22125
1.22125
1.22125
1.22125
1.22125
1.22125
1.22125
1.22125
1.22125
1.22125
1.22125
1.22125
1.22125
1.22125
1.22125
1.22125
1.22125
1.22125
1.22125
1.22125
1.22125
1.22125
1.22125
1.22125
1.22125
1.22125
1.22125
1.22125
1.22125
1.22125
1.22125
1.22125
1.22125
1.22125
1.22125
1.22125
1.22125
1.22125
1.22125
1.22125
1.22125
1.22125
1.22126
1.22137
1.22198
1.22375
1.22689
1.23076
1.23435
1.23689
1.23814
1.23831
1.23745
1.23592
1.23436
1.23285
1.23142
1.23016
1.22909
1.22817
1.22737
1.22665
1.22598
1.22537
1.22481
1.22432
1.2239
1.22358
1.22334
1.22317
1.22306
1.22298
1.22292
1.22289
1.22288
1.22287
1.22287
1.22286
1.22286
1.22284
1.22282
1.22278
1.22274
1.22267
1.22255
1.2224
1.22225
1.22208
1.22197
1.22193
1.22199
1.22222
1.22269
1.22347
1.22429
1.22459
1.22456
1.22412
1.2232
1.22215
1.22148
1.22127
1.22125
1.22125
1.22125
1.22125
1.22125
1.22125
1.22125
1.22125
1.22125
1.22125
1.22125
1.22125
1.22125
1.22125
1.22125
1.22125
1.22125
1.22125
1.22125
1.22125
1.22125
1.22125
1.22125
1.22125
1.22125
1.22125
1.22125
1.22125
1.22125
1.22125
1.22125
1.22125
1.22125
1.22125
1.22125
1.22125
1.22125
1.22125
1.22125
1.22125
1.22125
1.22125
1.22125
1.22125
1.22125
1.22125
1.22125
1.22125
1.22125
1.22125
1.22125
1.22125
1.22125
1.22125
1.22125
1.22125
1.22125
1.22125
1.22125
1.22125
1.22125
1.22125
1.22125
1.22125
1.22125
1.22125
1.22125
1.22125
1.22125
1.22125
1.22125
1.22125
1.22125
1.22125
1.22125
1.22125
1.22125
1.22125
1.22125
1.22125
1.22125
1.22125
1.22125
1.22125
1.22125
1.22125
1.22126
1.22131
1.22164
1.22272
1.22491
1.228
1.23127
1.23397
1.23562
1.23617
1.23587
1.23494
1.2337
1.23244
1.23122
1.23004
1.22893
1.22795
1.22709
1.22634
1.22568
1.22509
1.22458
1.22415
1.22378
1.22347
1.22323
1.22305
1.22292
1.22283
1.22276
1.2227
1.22266
1.22263
1.2226
1.22257
1.22255
1.22252
1.22249
1.22245
1.22239
1.2223
1.22221
1.22213
1.2221
1.22209
1.22217
1.22239
1.22285
1.22357
1.22433
1.22462
1.22462
1.22427
1.22344
1.22239
1.2216
1.2213
1.22125
1.22125
1.22125
1.22125
1.22125
1.22125
1.22125
1.22125
1.22125
1.22125
1.22125
1.22125
1.22125
1.22125
1.22125
1.22125
1.22125
1.22125
1.22125
1.22125
1.22125
1.22125
1.22125
1.22125
1.22125
1.22125
1.22125
1.22125
1.22125
1.22125
1.22125
1.22125
1.22125
1.22125
1.22125
1.22125
1.22125
1.22125
1.22125
1.22125
1.22125
1.22125
1.22125
1.22125
1.22125
1.22125
1.22125
1.22125
1.22125
1.22125
1.22125
1.22125
1.22125
1.22125
1.22125
1.22125
1.22125
1.22125
1.22125
1.22125
1.22125
1.22125
1.22125
1.22125
1.22125
1.22125
1.22125
1.22125
1.22125
1.22125
1.22125
1.22125
1.22125
1.22125
1.22125
1.22125
1.22125
1.22125
1.22125
1.22125
1.22125
1.22125
1.22125
1.22125
1.22125
1.22125
1.22125
1.22125
1.22125
1.22127
1.22141
1.22194
1.22323
1.22536
1.22803
1.23063
1.23263
1.23373
1.23398
1.23369
1.233
1.23209
1.23111
1.23016
1.22926
1.2284
1.22756
1.22679
1.2261
1.2255
1.22497
1.22451
1.22412
1.22378
1.2235
1.22327
1.22309
1.22295
1.22284
1.22275
1.22268
1.22262
1.22258
1.22254
1.2225
1.22247
1.22244
1.2224
1.22235
1.22233
1.22232
1.22235
1.22248
1.22274
1.2232
1.22385
1.22446
1.22467
1.22465
1.22432
1.22354
1.22252
1.22169
1.22133
1.22126
1.22125
1.22125
1.22125
1.22125
1.22125
1.22125
1.22125
1.22125
1.22125
1.22125
1.22125
1.22125
1.22125
1.22125
1.22125
1.22125
1.22125
1.22125
1.22125
1.22125
1.22125
1.22125
1.22125
1.22125
1.22125
1.22125
1.22125
1.22125
1.22125
1.22125
1.22125
1.22125
1.22125
1.22125
1.22125
1.22125
1.22125
1.22125
1.22125
1.22125
1.22125
1.22125
1.22125
1.22125
1.22125
1.22125
1.22125
1.22125
1.22125
1.22125
1.22125
1.22125
1.22125
1.22125
1.22125
1.22125
1.22125
1.22125
1.22125
1.22125
1.22125
1.22125
1.22125
1.22125
1.22125
1.22125
1.22125
1.22125
1.22125
1.22125
1.22125
1.22125
1.22125
1.22125
1.22125
1.22125
1.22125
1.22125
1.22125
1.22125
1.22125
1.22125
1.22125
1.22125
1.22125
1.22125
1.22125
1.22125
1.22125
1.22125
1.22126
1.2213
1.2215
1.22208
1.22327
1.22507
1.22719
1.2292
1.23073
1.23163
1.23191
1.23179
1.23141
1.23084
1.23017
1.22945
1.22877
1.22813
1.22753
1.22695
1.22638
1.22584
1.22534
1.22491
1.22452
1.2242
1.22392
1.22369
1.2235
1.22334
1.22322
1.22312
1.22303
1.22296
1.2229
1.22286
1.22282
1.22277
1.22274
1.22276
1.22285
1.22302
1.22333
1.22379
1.22427
1.22458
1.22469
1.22463
1.22425
1.22348
1.22251
1.22171
1.22134
1.22126
1.22125
1.22125
1.22125
1.22125
1.22125
1.22125
1.22125
1.22125
1.22125
1.22125
1.22125
1.22125
1.22125
1.22125
1.22125
1.22125
1.22125
1.22125
1.22125
1.22125
1.22125
1.22125
1.22125
1.22125
1.22125
1.22125
1.22125
1.22125
1.22125
1.22125
1.22125
1.22125
1.22125
1.22125
1.22125
1.22125
1.22125
1.22125
1.22125
1.22125
1.22125
1.22125
1.22125
1.22125
1.22125
1.22125
1.22125
1.22125
1.22125
1.22125
1.22125
1.22125
1.22125
1.22125
1.22125
1.22125
1.22125
1.22125
1.22125
1.22125
1.22125
1.22125
1.22125
1.22125
1.22125
1.22125
1.22125
1.22125
1.22125
1.22125
1.22125
1.22125
1.22125
1.22125
1.22125
1.22125
1.22125
1.22125
1.22125
1.22125
1.22125
1.22125
1.22125
1.22125
1.22125
1.22125
1.22125
1.22125
1.22125
1.22125
1.22125
1.22125
1.22125
1.22126
1.22131
1.2215
1.22199
1.2229
1.22423
1.2258
1.22733
1.22858
1.22944
1.2299
1.23
1.22989
1.22963
1.22927
1.22885
1.22838
1.2279
1.22744
1.22702
1.22664
1.22627
1.22593
1.2256
1.22529
1.225
1.22473
1.2245
1.2243
1.22413
1.22399
1.22388
1.22378
1.22371
1.22367
1.22363
1.22365
1.22375
1.22393
1.22415
1.22438
1.22455
1.22467
1.22469
1.22451
1.22403
1.22324
1.22234
1.22165
1.22133
1.22126
1.22125
1.22125
1.22125
1.22125
1.22125
1.22125
1.22125
1.22125
1.22125
1.22125
1.22125
1.22125
1.22125
1.22125
1.22125
1.22125
1.22125
1.22125
1.22125
1.22125
1.22125
1.22125
1.22125
1.22125
1.22125
1.22125
1.22125
1.22125
1.22125
1.22125
1.22125
1.22125
1.22125
1.22125
1.22125
1.22125
1.22125
1.22125
1.22125
1.22125
1.22125
1.22125
1.22125
1.22125
1.22125
1.22125
1.22125
1.22125
1.22125
1.22125
1.22125
1.22125
1.22125
1.22125
1.22125
1.22125
1.22125
1.22125
1.22125
1.22125
1.22125
1.22125
1.22125
1.22125
1.22125
1.22125
1.22125
1.22125
1.22125
1.22125
1.22125
1.22125
1.22125
1.22125
1.22125
1.22125
1.22125
1.22125
1.22125
1.22125
1.22125
1.22125
1.22125
1.22125
1.22125
1.22125
1.22125
1.22125
1.22125
1.22125
1.22125
1.22125
1.22125
1.22125
1.22125
1.22125
1.22126
1.2213
1.22143
1.22175
1.22232
1.22318
1.22423