/*--------------------------------*- C++ -*----------------------------------*\
| =========                 |                                                 |
| \\      /  F ield         | OpenFOAM: The Open Source CFD Toolbox           |
|  \\    /   O peration     | Version:  2406                                  |
|   \\  /    A nd           | Website:  www.openfoam.com                      |
|    \\/     M anipulation  |                                                 |
\*---------------------------------------------------------------------------*/
FoamFile
{
    version     2.0;
    format      ascii;
    arch        "LSB;label=32;scalar=64";
    class       volScalarField;
    location    "0.085";
    object      p;
}
// * * * * * * * * * * * * * * * * * * * * * * * * * * * * * * * * * * * * * //

dimensions      [1 -1 -2 0 0 0 0];

internalField   nonuniform List<scalar> 
14020
(
330008
330007
330007
330008
330010
330012
330016
330021
330027
330033
330037
330040
330043
330045
330046
330049
330053
330057
330060
330062
330064
330066
330066
330067
330070
330075
330080
330083
330083
330081
330078
330076
330079
330084
330089
330090
330090
330090
330087
330084
330083
330083
330083
330081
330080
330078
330076
330073
330070
330067
330064
330063
330064
330066
330066
330064
330062
330063
330065
330066
330065
330064
330064
330061
330057
330053
330051
330050
330049
330049
330050
330050
330050
330049
330051
330052
330053
330052
330049
330046
330041
330039
330040
330041
330041
330040
330038
330037
330036
330034
330034
330036
330037
330036
330033
330030
330029
330027
330028
330031
330034
330034
330034
330034
330035
330033
330031
330029
330028
330024
330020
330016
330016
330016
330014
330015
330017
330021
330021
330023
330023
330025
330022
330020
330020
330022
330021
330021
330019
330018
330014
330008
330005
330002
330002
329997
330000
329999
330002
329999
330000
330001
330008
330007
330011
330011
330011
330008
329992
329986
329987
330004
330015
330054
330084
330084
329874
329275
328234
326907
325464
323998
322551
321138
319771
318453
317186
315970
314787
313594
312468
311404
310215
309237
308217
307178
306137
305099
304063
303026
301982
300926
299856
298771
297673
296568
295464
294366
293282
292213
291161
290121
289085
288042
286983
285908
284820
283732
282648
281578
280524
279492
278479
277480
276484
275477
274458
273417
272370
271322
270281
269253
268240
267245
266268
265303
264344
263379
262386
261386
260389
259397
258416
257446
256492
255562
254659
253783
252907
251895
249942
330008
330007
330007
330008
330010
330012
330016
330021
330027
330033
330037
330040
330043
330045
330046
330049
330053
330057
330060
330062
330064
330066
330066
330067
330070
330075
330080
330083
330083
330081
330078
330076
330079
330084
330089
330090
330090
330090
330087
330084
330083
330083
330083
330082
330080
330078
330076
330073
330070
330067
330064
330063
330064
330066
330066
330064
330062
330063
330065
330066
330065
330064
330063
330061
330057
330053
330051
330050
330049
330049
330050
330050
330050
330049
330051
330052
330053
330052
330049
330046
330041
330040
330040
330041
330041
330040
330039
330037
330036
330034
330034
330036
330037
330036
330033
330030
330029
330027
330028
330031
330034
330034
330034
330034
330035
330033
330031
330029
330028
330024
330020
330016
330016
330016
330014
330015
330017
330021
330021
330023
330023
330025
330022
330020
330020
330022
330021
330021
330019
330018
330014
330008
330005
330002
330001
329997
330000
329999
330002
329998
330000
330001
330008
330007
330012
330011
330012
330008
329991
329987
329989
330005
330015
330053
330083
330083
329874
329275
328234
326906
325461
323995
322546
321133
319767
318452
317186
315970
314788
313600
312478
311411
310232
309238
308217
307178
306136
305098
304063
303026
301981
300925
299856
298771
297673
296569
295464
294367
293282
292214
291162
290121
289085
288041
286983
285907
284820
283731
282648
281578
280524
279492
278479
277480
276484
275478
274458
273417
272370
271322
270281
269253
268240
267245
266268
265303
264344
263379
262386
261386
260389
259397
258416
257446
256492
255562
254659
253783
252907
251894
249943
330008
330007
330007
330008
330010
330012
330016
330021
330027
330033
330037
330040
330043
330045
330046
330049
330053
330057
330060
330062
330064
330066
330066
330067
330070
330075
330080
330083
330083
330081
330078
330076
330079
330084
330089
330090
330090
330090
330087
330084
330083
330083
330083
330082
330080
330078
330076
330073
330070
330067
330064
330063
330064
330066
330066
330064
330062
330063
330065
330066
330065
330064
330063
330061
330057
330053
330051
330050
330049
330049
330050
330050
330050
330049
330051
330052
330053
330052
330049
330046
330041
330039
330040
330041
330041
330040
330039
330037
330035
330034
330034
330036
330037
330036
330033
330030
330029
330027
330028
330031
330034
330034
330034
330034
330035
330033
330031
330029
330028
330024
330020
330016
330016
330016
330014
330015
330017
330021
330021
330023
330023
330025
330022
330020
330020
330022
330021
330021
330019
330018
330014
330008
330005
330002
330001
329998
330001
329999
330002
329998
330000
330002
330008
330008
330012
330011
330013
330006
329990
329989
329991
330004
330014
330051
330083
330084
329876
329279
328237
326909
325463
323998
322545
321130
319765
318452
317184
315966
314785
313602
312474
311397
310238
309238
308218
307179
306137
305098
304062
303024
301979
300924
299855
298770
297673
296569
295465
294367
293283
292214
291162
290121
289085
288041
286982
285907
284819
283731
282648
281577
280524
279492
278479
277480
276484
275478
274458
273417
272370
271322
270281
269253
268240
267246
266268
265303
264344
263379
262386
261386
260389
259397
258416
257446
256492
255562
254659
253783
252906
251893
249945
330008
330007
330007
330008
330010
330012
330016
330021
330027
330033
330037
330040
330043
330045
330046
330049
330053
330057
330060
330062
330064
330066
330066
330067
330070
330075
330080
330083
330083
330081
330078
330076
330079
330084
330089
330090
330090
330090
330087
330084
330083
330083
330083
330082
330080
330078
330076
330073
330070
330067
330064
330063
330064
330066
330066
330064
330062
330063
330065
330066
330065
330064
330063
330061
330057
330053
330051
330050
330049
330049
330050
330050
330049
330049
330051
330052
330053
330052
330049
330046
330042
330039
330040
330041
330041
330040
330039
330037
330035
330034
330034
330036
330037
330036
330033
330030
330029
330027
330028
330031
330034
330034
330034
330034
330035
330033
330031
330029
330028
330024
330020
330016
330017
330016
330014
330015
330017
330021
330021
330023
330024
330025
330022
330020
330020
330023
330021
330021
330019
330018
330014
330008
330004
330001
330001
329998
330001
329999
330002
329998
330000
330002
330008
330008
330012
330012
330013
330003
329990
329993
329993
330004
330013
330051
330083
330084
329875
329279
328238
326908
325460
323994
322541
321128
319762
318448
317187
315976
314798
313616
312480
311406
310250
309240
308220
307180
306138
305099
304062
303023
301978
300922
299853
298770
297673
296569
295465
294368
293284
292216
291163
290122
289084
288040
286982
285906
284819
283731
282648
281577
280524
279492
278479
277480
276484
275478
274458
273417
272370
271322
270282
269253
268240
267246
266268
265302
264344
263379
262386
261386
260389
259397
258416
257446
256492
255562
254659
253783
252906
251892
249948
330008
330007
330007
330008
330010
330012
330016
330021
330027
330033
330037
330040
330043
330045
330046
330049
330053
330057
330060
330062
330064
330066
330066
330067
330070
330075
330080
330083
330083
330081
330078
330076
330079
330084
330089
330090
330091
330090
330087
330084
330083
330083
330083
330082
330080
330078
330076
330073
330070
330067
330064
330063
330064
330066
330066
330064
330062
330063
330065
330066
330065
330064
330063
330061
330057
330053
330051
330050
330049
330049
330050
330050
330049
330049
330051
330052
330053
330052
330049
330046
330042
330039
330040
330041
330042
330041
330039
330037
330035
330034
330034
330036
330037
330036
330033
330030
330028
330028
330028
330031
330033
330033
330034
330035
330036
330034
330030
330029
330028
330024
330020
330016
330017
330016
330014
330015
330017
330021
330021
330023
330024
330025
330022
330020
330020
330023
330021
330021
330018
330018
330015
330008
330003
330000
330002
329999
330002
329999
330001
329998
330000
330003
330009
330008
330012
330012
330012
330002
329991
329995
329994
330005
330013
330050
330082
330082
329874
329282
328241
326907
325460
323995
322535
321122
319758
318447
317183
315964
314782
313604
312464
311391
310247
309239
308220
307180
306138
305099
304062
303022
301976
300921
299852
298769
297673
296569
295466
294370
293285
292217
291164
290122
289084
288040
286981
285906
284819
283730
282647
281577
280524
279492
278479
277480
276484
275479
274458
273417
272371
271322
270282
269253
268240
267246
266267
265302
264344
263378
262386
261386
260389
259397
258416
257446
256492
255562
254659
253784
252906
251892
249951
330008
330007
330007
330008
330010
330012
330016
330021
330027
330033
330037
330040
330043
330045
330046
330049
330053
330057
330060
330062
330064
330066
330066
330067
330070
330075
330080
330083
330083
330081
330078
330076
330079
330084
330089
330091
330091
330090
330087
330083
330083
330083
330083
330081
330080
330078
330076
330073
330070
330067
330064
330063
330064
330066
330066
330064
330062
330063
330065
330066
330065
330064
330063
330062
330057
330053
330051
330050
330049
330049
330050
330050
330049
330049
330051
330052
330053
330052
330049
330046
330042
330039
330039
330041
330042
330041
330039
330037
330035
330034
330034
330036
330038
330036
330033
330030
330028
330028
330029
330031
330033
330033
330034
330035
330036
330034
330030
330028
330028
330024
330020
330016
330017
330016
330014
330015
330017
330020
330021
330023
330024
330025
330022
330020
330020
330023
330022
330020
330017
330018
330015
330008
330003
330000
330002
330000
330002
329999
330001
329998
330001
330003
330009
330008
330011
330011
330011
330002
329992
329996
329996
330007
330013
330050
330081
330082
329876
329287
328244
326906
325459
323987
322527
321127
319768
318451
317185
315972
314793
313610
312466
311389
310250
309243
308223
307183
306141
305101
304063
303022
301975
300919
299851
298768
297672
296570
295467
294371
293286
292218
291165
290123
289085
288040
286981
285905
284818
283730
282647
281577
280524
279492
278479
277480
276484
275479
274457
273418
272371
271323
270282
269253
268241
267246
266267
265302
264343
263378
262386
261386
260389
259397
258416
257446
256492
255562
254659
253784
252906
251891
249955
330008
330007
330007
330008
330010
330012
330016
330021
330027
330033
330037
330040
330043
330045
330046
330049
330053
330057
330060
330062
330064
330066
330066
330067
330070
330075
330080
330082
330083
330081
330078
330076
330079
330084
330089
330091
330091
330090
330087
330083
330083
330083
330083
330081
330080
330078
330076
330073
330070
330067
330064
330063
330063
330066
330066
330064
330062
330063
330065
330066
330065
330064
330064
330062
330057
330053
330051
330050
330049
330049
330050
330050
330049
330049
330051
330052
330053
330052
330049
330046
330042
330039
330039
330041
330042
330041
330039
330037
330035
330034
330034
330036
330038
330036
330033
330030
330028
330028
330029
330031
330033
330033
330034
330035
330037
330034
330030
330028
330028
330024
330019
330016
330017
330016
330014
330015
330017
330020
330021
330023
330025
330025
330022
330020
330020
330024
330022
330020
330016
330018
330016
330008
330002
329999
330003
330002
330003
329998
330000
329998
330002
330004
330009
330008
330011
330009
330011
330002
329993
329997
329998
330009
330013
330051
330080
330086
329878
329289
328245
326912
325468
323980
322528
321137
319764
318440
317164
315954
314778
313600
312458
311381
310248
309244
308224
307184
306142
305101
304061
303020
301973
300918
299849
298767
297672
296570
295468
294371
293287
292219
291165
290123
289085
288040
286980
285904
284818
283730
282647
281576
280524
279492
278479
277480
276484
275480
274457
273418
272371
271323
270283
269254
268241
267245
266268
265302
264343
263378
262385
261386
260389
259397
258416
257446
256492
255562
254659
253784
252906
251890
249959
330008
330007
330007
330008
330010
330012
330016
330021
330027
330033
330037
330040
330043
330045
330046
330049
330053
330057
330060
330062
330064
330066
330066
330067
330070
330075
330080
330082
330083
330081
330078
330076
330079
330083
330089
330091
330091
330090
330087
330083
330083
330084
330083
330081
330080
330078
330076
330073
330070
330067
330064
330063
330063
330066
330066
330064
330062
330063
330065
330066
330065
330064
330064
330062
330058
330053
330051
330049
330049
330049
330050
330050
330049
330049
330051
330052
330053
330052
330049
330046
330042
330039
330039
330041
330042
330041
330039
330037
330035
330033
330034
330036
330038
330037
330033
330030
330028
330028
330029
330031
330033
330033
330034
330036
330037
330034
330030
330028
330028
330024
330019
330016
330017
330016
330014
330014
330017
330020
330021
330023
330025
330025
330022
330020
330020
330024
330022
330019
330016
330018
330016
330008
330001
329998
330003
330003
330003
329998
329999
329998
330003
330004
330009
330008
330010
330009
330011
330002
329994
329997
329998
330010
330017
330047
330081
330092
329872
329275
328233
326911
325481
323969
322539
321162
319780
318443
317155
315944
314770
313597
312452
311376
310249
309247
308227
307186
306143
305102
304061
303019
301972
300917
299848
298767
297672
296570
295468
294372
293288
292220
291166
290124
289085
288040
286980
285904
284818
283729
282647
281576
280524
279491
278479
277480
276484
275480
274457
273419
272371
271324
270283
269254
268241
267245
266268
265302
264343
263377
262385
261386
260389
259397
258416
257446
256492
255562
254659
253785
252906
251889
249962
330008
330007
330007
330008
330010
330012
330016
330021
330027
330033
330037
330040
330043
330045
330046
330049
330053
330057
330060
330062
330065
330066
330066
330067
330070
330075
330080
330082
330083
330081
330078
330076
330079
330083
330089
330091
330091
330090
330087
330083
330083
330084
330083
330081
330079
330078
330076
330073
330070
330067
330064
330063
330063
330066
330066
330064
330062
330063
330065
330066
330065
330064
330064
330062
330058
330053
330051
330049
330049
330049
330050
330050
330049
330049
330051
330052
330053
330052
330049
330046
330042
330039
330039
330041
330042
330041
330039
330037
330035
330033
330034
330037
330038
330037
330033
330030
330028
330028
330029
330030
330033
330033
330034
330036
330037
330034
330030
330028
330028
330024
330019
330016
330017
330017
330014
330014
330017
330020
330021
330023
330025
330025
330022
330020
330021
330024
330022
330019
330015
330018
330016
330007
330000
329998
330004
330004
330003
329997
329999
329998
330003
330005
330009
330008
330009
330010
330010
330002
329997
330000
330000
330012
330028
330035
330083
330100
329861
329252
328193
326910
325531
323941
322545
321181
319778
318429
317143
315941
314768
313594
312452
311372
310245
309247
308227
307187
306144
305101
304060
303017
301971
300915
299846
298766
297672
296570
295468
294372
293289
292220
291166
290124
289085
288040
286979
285904
284817
283729
282647
281576
280524
279491
278479
277480
276483
275479
274458
273419
272370
271324
270282
269253
268242
267246
266267
265302
264343
263377
262385
261386
260388
259397
258416
257446
256493
255562
254659
253785
252905
251888
249964
102946
102946
102946
102946
102946
102946
102946
102946
102946
102946
102946
102946
102946
102946
102946
102957
103069
103464
104160
104967
105707
106304
106746
107053
107249
107365
107428
107464
107491
107522
107569
107646
107786
108063
108610
109605
111178
113279
115668
118119
120616
123360
126477
129750
132767
135225
136953
136769
133426
125772
115137
99931.8
87050.5
72299.2
62137.3
61735
66770.2
75383.9
82723.7
89449.8
94071.8
97309.3
99525
100777
101256
101451
101395
101560
101798
101948
102115
102537
102925
103319
103717
103952
104152
104099
104027
104344
104467
104490
104036
103534
102999
102567
101911
101347
100808
100475
100255
100077
100019
100342
100730
101352
102142
102512
102999
104865
102946
102946
102946
102946
102946
102946
102946
102946
102946
102946
102946
102946
102946
102946
102946
102946
102955
103054
103425
104100
104898
105639
106242
106693
107007
107210
107330
107395
107429
107453
107479
107518
107582
107701
107941
108422
109310
110738
112687
114954
117307
119682
122233
125108
128160
131006
133292
134768
134100
130103
121823
110934
95044.4
82648.4
70439.3
60120.9
60159.7
65163.4
73709.3
81974.5
89419.3
94511.9
97687.5
99653.9
100951
101340
101491
101628
101399
101835
101887
102207
102680
103182
103679
104111
104536
104804
104800
104744
104828
104490
103949
103354
102826
102204
101931
101445
101160
101019
100869
100852
100998
100952
101143
101266
101554
102056
102566
102976
102946
102946
102946
102946
102946
102946
102946
102946
102946
102946
102946
102946
102946
102946
102946
102946
102953
103040
103382
104033
104821
105563
106172
106631
106954
107165
107290
107357
107391
107411
107432
107462
107514
107611
107812
108225
109004
110281
112062
114183
116421
118671
121030
123637
126412
129026
131095
132292
131183
126720
118314
107573
90899.5
78864.2
68298.8
57520
57191.9
62667
71407.7
80912.7
88223.5
94188.5
98065
100055
101185
101488
101561
101590
101625
101821
102158
102382
102809
103358
103873
104339
104694
104918
104858
104723
104524
104078
103615
103081
102663
102224
101972
101665
101547
101401
101278
102946
102946
102946
102946
102946
102946
102946
102946
102946
102946
102946
102946
102946
102946
102946
102946
102946
102952
103025
103338
103961
104736
105478
106094
106562
106894
107113
107245
107315
107349
107365
107380
107402
107441
107517
107678
108022
108691
109812
111411
113362
115464
117583
119756
122089
124548
126869
128669
129602
128253
123537
115370
104671
88337.5
75754
66130.7
54873.4
53587.1
59583.1
102946
102946
102946
102946
102946
102946
102946
102946
102946
102946
102946
102946
102946
102946
102946
102946
102946
102950
103011
103291
103882
104642
105383
106005
106483
106826
107055
107194
107268
107302
107316
107324
107337
107363
107418
107541
107817
108374
109338
110747
112507
114446
116419
118410
120480
122610
124592
126076
126743
125377
120731
113110
101890
86940.4
72373.2
61726.1
50397
102946
102946
102946
102946
102946
102946
102946
102946
102946
102946
102946
102946
102946
102946
102946
102946
102946
102949
102997
103244
103797
104538
105277
105906
106394
106749
106988
107136
107216
107251
107261
107263
107267
107280
107315
107403
107613
108059
108864
110078
111635
113387
115192
116999
118823
120635
122266
123407
123827
122553
118254
111265
101880
85698.6
70496
58925.7
102946
102946
102946
102946
102946
102946
102946
102946
102946
102946
102946
102946
102946
102946
102946
102946
102946
102948
102985
103196
103708
104424
105159
105795
106294
106661
106913
107071
107158
107194
107202
107197
107192
107193
107209
107266
107414
107753
108397
109413
110760
112311
113929
115540
117127
118648
119955
120793
121003
119730
116005
109733
100989
89008.9
74041.2
60563.1
102946
102946
102946
102946
102946
102946
102946
102946
102946
102946
102946
102946
102946
102946
102946
102946
102946
102947
102974
103149
103613
104302
105030
105671
106182
106561
106826
106996
107092
107131
107137
107127
107112
107101
107102
107130
107224
107462
107949
108764
109897
111242
112661
114066
115420
116675
117707
118305
118348
117048
113725
108598
101424
91613.9
79726.2
69466.5
102946
102946
102946
102946
102946
102946
102946
102946
102946
102946
102946
102946
102946
102946
102946
102946
102946
102947
102965
103105
103517
104169
104887
105533
106056
106449
106729
106912
107017
107061
107067
107052
107028
107005
106992
106996
107044
107192
107530
108144
109061
110198
111420
112619
113744
114752
115549
115969
115905
114669
111773
107630
102150
95031
86054.7
77491.7
102946
102946
102946
102946
102946
102946
102946
102946
102946
102946
102946
102946
102946
102946
102946
102946
102946
102946
102958
103064
103419
104029
104731
105381
105915
106323
106618
106815
106932
106983
106990
106973
106942
106907
106879
106865
106874
106946
107149
107574
108271
109197
110227
111234
112147
112930
113520
113811
113681
112576
110175
106861
102643
97505.7
91643
85910
102946
102946
102946
102946
102946
102946
102946
102946
102946
102946
102946
102946
102946
102946
102946
102946
102946
102946
102953
103028
103323
103881
104562
105213
105759
106182
106493
106706
106835
106895
106907
106889
106853
106809
106767
106733
106713
106724
106815
107068
107552
108262
109100
109931
110666
111260
111670
111856
111677
110729
108861
106278
103041
99303.7
95400.1
91531.3
102946
102946
102946
102946
102946
102946
102946
102946
102946
102946
102946
102946
102946
102946
102946
102946
102946
102946
102950
102999
103232
103730
104381
105029
105585
106024
106352
106582
106726
106797
106814
106799
106762
106710
106656
106603
106555
106524
106533
106640
106928
107421
108059
108724
109312
109764
110041
110143
109921
109110
107720
105798
103360
100610
97837.6
95263.1
102946
102946
102946
102946
102946
102946
102946
102946
102946
102946
102946
102946
102946
102946
102946
102946
102946
102946
102948
102977
103150
103577
104189
104829
105394
105849
106194
106441
106602
106686
106712
106702
106666
106610
106546
106479
106407
106335
106289
106297
106417
106705
107136
107630
108089
108441
108638
108684
108444
107751
106711
105327
103552
101550
99540
97735.7
102946
102946
102946
102946
102946
102946
102946
102946
102946
102946
102946
102946
102946
102946
102946
102946
102946
102946
102947
102962
103080
103429
103989
104613
105185
105655
106018
106283
106462
106562
106599
106596
106564
106509
106438
106359
106268
106167
106072
106016
106026
106136
106370
106683
107010
107278
107430
107456
107242
106668
105862
104860
103604
102177
100731
99414.9
102946
102946
102946
102946
102946
102946
102946
102946
102946
102946
102946
102946
102946
102946
102946
102946
102946
102946
102946
102953
103025
103292
103785
104382
104956
105441
105822
106106
106304
106423
106474
106480
106455
106403
106331
106243
106139
106017
105889
105781
105719
105717
105782
105922
106105
106282
106395
106418
106261
105818
105197
104449
103561
102557
101531
100569
102946
102946
102946
102946
102946
102946
102946
102946
102946
102946
102946
102946
102946
102946
102946
102946
102946
102946
102946
102949
102987
103172
103583
104140
104709
105206
105606
105910
106127
106266
106335
106352
106337
106293
106223
106131
106017
105882
105734
105595
105483
105404
105364
105366
105407
105477
105537
105546
105439
105142
104684
104122
103478
102771
102046
101353
102946
102946
102946
102946
102946
102946
102946
102946
102946
102946
102946
102946
102946
102946
102946
102946
102946
102946
102946
102947
102963
103077
103394
103892
104444
104951
105369
105692
105930
106090
106179
106211
106207
106175
106112
106021
105903
105758
105599
105443
105304
105184
105079
104989
104924
104890
104876
104851
104770
104579
104265
103858
103390
102884
102367
101867
102946
102946
102946
102946
102946
102946
102946
102946
102946
102946
102946
102946
102946
102946
102946
102946
102946
102946
102946
102946
102952
103010
103229
103646
104166
104674
105109
105454
105712
105894
106005
106056
106065
106045
105996
105913
105796
105646
105478
105312
105161
105023
104890
104755
104625
104514
104428
104353
104265
104129
103919
103637
103306
102940
102567
102201
102946
102946
102946
102946
102946
102946
102946
102946
102946
102946
102946
102946
102946
102946
102946
102946
102946
102946
102946
102946
102947
102971
103100
103417
103881
104378
104826
105192
105473
105677
105812
105885
105909
105902
105869
105801
105695
105547
105373
105199
105040
104896
104757
104612
104459
104308
104173
104054
103941
103817
103663
103465
103231
102975
102705
102437
102946
102946
102946
102946
102946
102946
102946
102946
102946
102946
102946
102946
102946
102946
102946
102946
102946
102946
102946
102946
102946
102953
103013
103222
103602
104068
104521
104907
105212
105439
105597
105694
105738
105746
105728
105681
105593
105459
105286
105104
104936
104788
104651
104512
104365
104211
104059
103918
103785
103657
103521
103371
103203
103019
102825
102629
102946
102946
102946
102946
102946
102946
102946
102946
102946
102946
102946
102946
102946
102946
102946
102946
102946
102946
102946
102946
102946
102947
102967
103078
103350
103755
104196
104598
104927
105179
105361
105482
105550
105574
105571
105545
105483
105374
105215
105030
104852
104695
104557
104427
104296
104158
104016
103877
103745
103619
103494
103367
103232
103091
102946
102800
102946
102946
102946
102946
102946
102946
102946
102946
102946
102946
102946
102946
102946
102946
102946
102946
102946
102946
102946
102946
102946
102946
102950
102992
103150
103460
103861
104265
104617
104896
105104
105250
105342
105388
105400
105391
105356
105281
105151
104978
104794
104624
104477
104348
104227
104107
103987
103866
103749
103637
103529
103420
103309
103195
103080
102966
102946
102946
102946
102946
102946
102946
102946
102946
102946
102946
102946
102946
102946
102946
102946
102946
102946
102946
102946
102946
102946
102946
102946
102956
103022
103214
103535
103916
104281
104588
104825
104997
105114
105184
105215
105220
105207
105166
105079
104936
104761
104585
104424
104283
104159
104048
103944
103844
103747
103653
103565
103481
103398
103312
103223
103133
102946
102946
102946
102946
102946
102946
102946
102946
102946
102946
102946
102946
102946
102946
102946
102946
102946
102946
102946
102946
102946
102946
102946
102947
102964
103048
103255
103569
103922
104250
104519
104722
104866
104961
105014
105036
105037
105022
104978
104885
104740
104572
104407
104255
104119
103998
103892
103799
103715
103640
103570
103506
103445
103387
103327
103265
102946
102946
102946
102946
102946
102946
102946
102946
102946
102946
102946
102946
102946
102946
102946
102946
102946
102946
102946
102946
102946
102946
102946
102946
102948
102970
103063
103267
103562
103885
104181
104420
104597
104720
104797
104839
104854
104854
104840
104796
104704
104567
104414
104263
104120
103988
103870
103768
103681
103607
103545
103491
103444
103403
103364
103324
102946
102946
102946
102946
102946
102946
102946
102946
102946
102946
102946
102946
102946
102946
102946
102946
102946
102946
102946
102946
102946
102946
102946
102946
102946
102949
102972
103062
103250
103518
103811
104080
104297
104456
104563
104629
104662
104674
104674
104661
104621
104536
104416
104283
104149
104017
103891
103777
103677
103591
103521
103465
103420
103382
103351
103323
102946
102946
102946
102946
102946
102946
102946
102946
102946
102946
102946
102946
102946
102946
102946
102946
102946
102946
102946
102946
102946
102946
102946
102946
102946
102946
102949
102970
103046
103208
103443
103706
103952
104154
104303
104402
104461
104490
104499
104498
104487
104452
104381
104283
104173
104058
103944
103829
103719
103620
103533
103461
103404
103360
103326
103300
102946
102946
102946
102946
102946
102946
102946
102946
102946
102946
102946
102946
102946
102946
102946
102946
102946
102946
102946
102946
102946
102946
102946
102946
102946
102946
102946
102948
102963
103022
103150
103346
103577
103803
103995
104139
104237
104295
104323
104332
104331
104321
104290
104235
104160
104073
103981
103886
103790
103695
103602
103516
103441
103377
103327
103287
102946
102946
102946
102946
102946
102946
102946
102946
102946
102946
102946
102946
102946
102946
102946
102946
102946
102946
102946
102946
102946
102946
102946
102946
102946
102946
102946
102946
102947
102956
102994
103086
103238
103432
103635
103819
103964
104066
104130
104163
104175
104175
104164
104139
104098
104043
103977
103905
103831
103754
103678
103602
103527
103457
103394
103338
102946
102946
102946
102946
102946
102946
102946
102946
102946
102946
102946
102946
102946
102946
102946
102946
102946
102946
102946
102946
102946
102946
102946
102946
102946
102946
102946
102946
102946
102946
102951
102971
103028
103134
103285
103459
103629
103776
103887
103962
104005
104025
104029
104021
104001
103970
103930
103881
103826
103769
103711
103652
103593
103535
103478
103424
102946
102946
102946
102946
102946
102946
102946
102946
102946
102946
102946
102946
102946
102946
102946
102946
102946
102946
102946
102946
102946
102946
102946
102946
102946
102946
102946
102946
102946
102946
102946
102948
102957
102985
103048
103151
103286
103434
103576
103694
103783
103843
103876
103889
103889
103877
103854
103824
103787
103746
103702
103656
103611
103566
103522
103479
102946
102946
102946
102946
102946
102946
102946
102946
102946
102946
102946
102946
102946
102946
102946
102946
102946
102946
102946
102946
102946
102946
102946
102946
102946
102946
102946
102946
102946
102946
102946
102946
102946
102949
102961
102991
103049
103138
103251
103374
103490
103590
103666
103717
103748
103760
103759
103749
103728
103701
103669
103635
103599
103563
103527
103492
102946
102946
102946
102946
102946
102946
102946
102946
102946
102946
102946
102946
102946
102946
102946
102946
102946
102946
102946
102946
102946
102946
102946
102946
102946
102946
102946
102946
102946
102946
102946
102946
102946
102946
102947
102950
102961
102986
103033
103103
103192
103290
103387
103472
103540
103590
103622
103637
103640
103634
103620
103598
103573
103545
103516
103486
102946
102946
102946
102946
102946
102946
102946
102946
102946
102946
102946
102946
102946
102946
102946
102946
102946
102946
102946
102946
102946
102946
102946
102946
102946
102946
102946
102946
102946
102946
102946
102946
102946
102946
102946
102946
102947
102949
102957
102975
103008
103058
103123
103198
103275
103348
103411
103460
103496
103519
103529
103530
103524
103510
103492
103471
102946
102946
102946
102946
102946
102946
102946
102946
102946
102946
102946
102946
102946
102946
102946
102946
102946
102946
102946
102946
102946
102946
102946
102946
102946
102946
102946
102946
102946
102946
102946
102946
102946
102946
102946
102946
102946
102946
102946
102948