/*--------------------------------*- C++ -*----------------------------------*\
| =========                 |                                                 |
| \\      /  F ield         | OpenFOAM: The Open Source CFD Toolbox           |
|  \\    /   O peration     | Version:  2406                                  |
|   \\  /    A nd           | Website:  www.openfoam.com                      |
|    \\/     M anipulation  |                                                 |
\*---------------------------------------------------------------------------*/
FoamFile
{
    version     2.0;
    format      ascii;
    arch        "LSB;label=32;scalar=64";
    class       volScalarField;
    location    "0.085";
    object      rho;
}
// * * * * * * * * * * * * * * * * * * * * * * * * * * * * * * * * * * * * * //

dimensions      [1 -3 0 0 0 0 0];

internalField   nonuniform List<scalar> 
14020
(
4.73926
4.73925
4.73925
4.73926
4.73927
4.7393
4.73933
4.73939
4.73945
4.73951
4.73955
4.73958
4.73961
4.73963
4.73964
4.73966
4.7397
4.73974
4.73977
4.73979
4.73981
4.73983
4.73983
4.73984
4.73987
4.73991
4.73997
4.73999
4.73999
4.73998
4.73994
4.73993
4.73996
4.74001
4.74006
4.74009
4.74009
4.74009
4.74007
4.74004
4.74002
4.74003
4.74002
4.74001
4.73998
4.73997
4.73994
4.73991
4.73987
4.73984
4.73981
4.73979
4.7398
4.73983
4.73983
4.73981
4.73979
4.7398
4.73982
4.73982
4.73982
4.73981
4.7398
4.73978
4.73974
4.7397
4.73968
4.73967
4.73966
4.73965
4.73966
4.73967
4.73966
4.73965
4.73967
4.73969
4.73969
4.73968
4.73966
4.73962
4.73957
4.73956
4.73956
4.73957
4.73957
4.73956
4.73954
4.73953
4.73951
4.73949
4.73949
4.73952
4.73952
4.73951
4.73948
4.73945
4.73944
4.73942
4.73943
4.73946
4.73949
4.73949
4.73949
4.73949
4.73949
4.73948
4.73945
4.73944
4.73943
4.73939
4.73934
4.73931
4.73931
4.7393
4.73929
4.73929
4.73932
4.73935
4.73936
4.73937
4.73937
4.73939
4.73936
4.73934
4.73933
4.73935
4.73933
4.73933
4.73931
4.73929
4.73924
4.73917
4.73913
4.73908
4.73906
4.73899
4.73898
4.7389
4.73884
4.73864
4.73841
4.73806
4.73759
4.73679
4.73567
4.734
4.73163
4.72824
4.7234
4.71689
4.70809
4.69637
4.68064
4.66017
4.63332
4.59846
4.55224
4.49135
4.4138
4.31985
4.21007
4.08476
3.94435
3.78996
3.6238
3.44941
3.27171
3.09719
2.93382
2.79123
2.68069
2.60955
2.57356
2.5596
2.55117
2.54364
2.53713
2.53143
2.52616
2.52094
2.51557
2.51
2.50425
2.49833
2.49225
2.48601
2.47963
2.47316
2.46666
2.46018
2.45375
2.44737
2.441
2.43459
2.42808
2.42148
2.41481
2.40816
2.40154
2.39502
2.38861
2.38235
2.37619
2.37013
2.36408
2.35796
2.35176
2.34541
2.33902
2.33261
2.32623
2.31991
2.31367
2.30753
2.30149
2.29551
2.28957
2.28357
2.27741
2.2712
2.265
2.25883
2.25272
2.24669
2.24075
2.23495
2.22933
2.22386
2.21839
2.21207
2.19982
4.73926
4.73925
4.73925
4.73926
4.73927
4.7393
4.73933
4.73939
4.73945
4.73951
4.73955
4.73958
4.73961
4.73963
4.73964
4.73966
4.7397
4.73974
4.73977
4.73979
4.73981
4.73983
4.73983
4.73984
4.73987
4.73991
4.73997
4.73999
4.73999
4.73998
4.73994
4.73993
4.73996
4.74001
4.74006
4.74009
4.74009
4.74009
4.74007
4.74004
4.74002
4.74003
4.74002
4.74001
4.73998
4.73997
4.73994
4.73991
4.73987
4.73984
4.73981
4.73979
4.7398
4.73983
4.73983
4.73981
4.73979
4.7398
4.73982
4.73982
4.73982
4.73981
4.7398
4.73978
4.73974
4.7397
4.73968
4.73967
4.73966
4.73965
4.73966
4.73967
4.73966
4.73965
4.73967
4.73969
4.73969
4.73968
4.73966
4.73962
4.73958
4.73956
4.73956
4.73957
4.73957
4.73956
4.73954
4.73953
4.73951
4.73949
4.73949
4.73952
4.73952
4.73951
4.73948
4.73945
4.73944
4.73942
4.73943
4.73946
4.73949
4.73949
4.73949
4.73949
4.7395
4.73948
4.73945
4.73944
4.73943
4.73939
4.73934
4.73931
4.73931
4.7393
4.73929
4.73929
4.73932
4.73935
4.73936
4.73937
4.73937
4.73939
4.73936
4.73934
4.73933
4.73935
4.73933
4.73933
4.73931
4.73929
4.73924
4.73917
4.73913
4.73908
4.73906
4.73899
4.73898
4.7389
4.73884
4.73864
4.73841
4.73806
4.73759
4.73679
4.73568
4.734
4.73164
4.72825
4.7234
4.7169
4.70811
4.69639
4.68067
4.6602
4.63338
4.59856
4.55239
4.49157
4.41411
4.32025
4.21058
4.08539
3.94508
3.79075
3.62462
3.4502
3.27241
3.09773
2.93418
2.79147
2.68083
2.60961
2.57367
2.55961
2.55118
2.54364
2.53713
2.53143
2.52615
2.52093
2.51556
2.50999
2.50424
2.49833
2.49225
2.48601
2.47963
2.47316
2.46667
2.46019
2.45376
2.44737
2.441
2.43459
2.42808
2.42148
2.41481
2.40816
2.40154
2.39502
2.38861
2.38235
2.3762
2.37013
2.36408
2.35796
2.35176
2.34541
2.33902
2.33261
2.32623
2.31991
2.31367
2.30753
2.30149
2.29551
2.28957
2.28357
2.27741
2.2712
2.265
2.25883
2.25273
2.24669
2.24075
2.23495
2.22933
2.22386
2.21839
2.21206
2.19983
4.73926
4.73925
4.73925
4.73926
4.73927
4.7393
4.73933
4.73939
4.73945
4.73951
4.73955
4.73958
4.73961
4.73963
4.73964
4.73966
4.7397
4.73974
4.73977
4.73979
4.73981
4.73983
4.73983
4.73984
4.73987
4.73991
4.73997
4.73999
4.73999
4.73998
4.73994
4.73993
4.73996
4.74001
4.74006
4.74009
4.74009
4.74009
4.74007
4.74004
4.74002
4.74003
4.74002
4.74001
4.73998
4.73997
4.73994
4.73991
4.73987
4.73984
4.73981
4.73979
4.7398
4.73982
4.73983
4.73981
4.73979
4.7398
4.73982
4.73982
4.73981
4.73981
4.7398
4.73978
4.73974
4.7397
4.73968
4.73967
4.73966
4.73965
4.73966
4.73967
4.73966
4.73965
4.73967
4.73969
4.73969
4.73968
4.73966
4.73962
4.73958
4.73956
4.73956
4.73957
4.73957
4.73956
4.73954
4.73953
4.73951
4.73949
4.73949
4.73952
4.73953
4.73951
4.73948
4.73945
4.73944
4.73942
4.73943
4.73946
4.73949
4.73949
4.73949
4.73949
4.7395
4.73948
4.73945
4.73943
4.73943
4.73939
4.73934
4.73931
4.73931
4.7393
4.73929
4.73929
4.73932
4.73935
4.73936
4.73937
4.73938
4.73939
4.73936
4.73934
4.73933
4.73935
4.73933
4.73933
4.73931
4.73929
4.73924
4.73917
4.73912
4.73908
4.73906
4.73899
4.73898
4.73891
4.73884
4.73864
4.73841
4.73807
4.73759
4.7368
4.73568
4.73401
4.73165
4.72823
4.72339
4.71694
4.70816
4.69644
4.68073
4.66031
4.63358
4.59888
4.55288
4.49226
4.41504
4.32146
4.21208
4.08717
3.94704
3.7928
3.62664
3.45203
3.2739
3.0988
2.93487
2.79185
2.68094
2.60955
2.57371
2.55962
2.55119
2.54364
2.53713
2.53143
2.52615
2.52093
2.51555
2.50998
2.50424
2.49832
2.49225
2.48601
2.47964
2.47317
2.46667
2.46019
2.45376
2.44737
2.441
2.43458
2.42808
2.42148
2.41481
2.40815
2.40154
2.39502
2.38861
2.38235
2.37619
2.37013
2.36408
2.35796
2.35176
2.34541
2.33902
2.33261
2.32623
2.31991
2.31367
2.30753
2.30149
2.29551
2.28957
2.28357
2.27741
2.2712
2.265
2.25883
2.25273
2.24669
2.24075
2.23495
2.22933
2.22386
2.21839
2.21206
2.19984
4.73926
4.73925
4.73925
4.73926
4.73927
4.7393
4.73933
4.73939
4.73945
4.73951
4.73955
4.73958
4.73961
4.73963
4.73964
4.73966
4.7397
4.73974
4.73977
4.73979
4.73981
4.73983
4.73983
4.73984
4.73987
4.73991
4.73997
4.73999
4.73999
4.73998
4.73994
4.73993
4.73996
4.74001
4.74006
4.74009
4.74009
4.74009
4.74007
4.74003
4.74002
4.74003
4.74002
4.74001
4.73998
4.73997
4.73994
4.73991
4.73987
4.73984
4.73981
4.73979
4.7398
4.73982
4.73983
4.73981
4.73979
4.7398
4.73982
4.73982
4.73981
4.73981
4.7398
4.73978
4.73974
4.7397
4.73968
4.73967
4.73965
4.73965
4.73966
4.73967
4.73966
4.73965
4.73967
4.73969
4.73969
4.73968
4.73966
4.73962
4.73958
4.73955
4.73956
4.73957
4.73957
4.73956
4.73954
4.73953
4.73951
4.73949
4.73949
4.73952
4.73953
4.73951
4.73948
4.73945
4.73943
4.73942
4.73943
4.73946
4.73948
4.73948
4.73948
4.73949
4.7395
4.73948
4.73945
4.73943
4.73943
4.73939
4.73934
4.73931
4.73931
4.73931
4.73929
4.73929
4.73932
4.73935
4.73936
4.73937
4.73938
4.73939
4.73936
4.73934
4.73933
4.73936
4.73934
4.73933
4.7393
4.73929
4.73924
4.73917
4.73912
4.73907
4.73906
4.739
4.73899
4.7389
4.73883
4.73863
4.73841
4.73807
4.7376
4.7368
4.73568
4.73402
4.73166
4.72822
4.72342
4.71701
4.70824
4.69653
4.68088
4.66055
4.63395
4.59943
4.55368
4.49338
4.41654
4.32333
4.21433
4.08976
3.94983
3.79563
3.62926
3.45424
3.27561
3.10002
2.93562
2.79227
2.6811
2.60963
2.57379
2.55963
2.5512
2.54365
2.53713
2.53143
2.52615
2.52092
2.51554
2.50998
2.50423
2.49832
2.49225
2.48601
2.47964
2.47318
2.46668
2.4602
2.45376
2.44738
2.441
2.43458
2.42808
2.42147
2.41481
2.40815
2.40154
2.39502
2.38861
2.38235
2.37619
2.37013
2.36408
2.35797
2.35176
2.34541
2.33903
2.33261
2.32623
2.31991
2.31367
2.30753
2.30148
2.29551
2.28956
2.28357
2.27741
2.2712
2.265
2.25883
2.25273
2.24669
2.24075
2.23495
2.22933
2.22387
2.21839
2.21205
2.19985
4.73926
4.73925
4.73925
4.73926
4.73927
4.7393
4.73933
4.73939
4.73945
4.73951
4.73955
4.73958
4.73961
4.73963
4.73964
4.73966
4.7397
4.73974
4.73977
4.73979
4.73981
4.73983
4.73983
4.73984
4.73987
4.73991
4.73997
4.73999
4.73999
4.73998
4.73994
4.73993
4.73996
4.74001
4.74006
4.74009
4.74009
4.74009
4.74007
4.74003
4.74002
4.74003
4.74002
4.74
4.73998
4.73996
4.73994
4.73991
4.73987
4.73984
4.73981
4.73979
4.7398
4.73982
4.73983
4.73981
4.73979
4.7398
4.73982
4.73982
4.73981
4.73981
4.7398
4.73978
4.73974
4.7397
4.73968
4.73966
4.73965
4.73966
4.73966
4.73967
4.73966
4.73965
4.73967
4.73969
4.73969
4.73968
4.73966
4.73962
4.73958
4.73955
4.73956
4.73957
4.73957
4.73956
4.73955
4.73953
4.73951
4.73949
4.73949
4.73952
4.73953
4.73952
4.73948
4.73945
4.73943
4.73942
4.73943
4.73946
4.73948
4.73948
4.73948
4.73949
4.73951
4.73948
4.73945
4.73943
4.73943
4.73939
4.73934
4.73931
4.73931
4.73931
4.73929
4.73929
4.73931
4.73935
4.73935
4.73937
4.73938
4.73939
4.73936
4.73934
4.73933
4.73936
4.73934
4.73933
4.73929
4.73928
4.73924
4.73917
4.73911
4.73906
4.73906
4.73901
4.73899
4.7389
4.73883
4.73863
4.73842
4.73808
4.7376
4.73681
4.73568
4.73402
4.73166
4.72822
4.72346
4.71708
4.70833
4.69667
4.68108
4.66086
4.63443
4.60012
4.55466
4.49477
4.41832
4.32549
4.21685
4.09253
3.9526
3.79824
3.63151
3.45601
3.27682
3.10067
2.93589
2.79235
2.68106
2.60956
2.57377
2.55963
2.5512
2.54365
2.53713
2.53143
2.52614
2.52091
2.51553
2.50997
2.50422
2.49832
2.49224
2.48601
2.47964
2.47318
2.46668
2.4602
2.45377
2.44738
2.441
2.43458
2.42807
2.42147
2.41481
2.40815
2.40154
2.39502
2.38861
2.38234
2.37619
2.37013
2.36408
2.35797
2.35176
2.34542
2.33903
2.33261
2.32623
2.31991
2.31367
2.30753
2.30148
2.29551
2.28956
2.28357
2.27741
2.2712
2.265
2.25883
2.25273
2.24669
2.24075
2.23495
2.22933
2.22387
2.21839
2.21204
2.19988
4.73926
4.73925
4.73925
4.73926
4.73927
4.7393
4.73933
4.73939
4.73945
4.73951
4.73955
4.73958
4.73961
4.73963
4.73964
4.73966
4.7397
4.73974
4.73977
4.73979
4.73981
4.73983
4.73983
4.73984
4.73987
4.73991
4.73996
4.73999
4.73999
4.73998
4.73994
4.73993
4.73996
4.74001
4.74006
4.74009
4.74009
4.74009
4.74006
4.74003
4.74002
4.74003
4.74002
4.74
4.73998
4.73996
4.73994
4.73991
4.73987
4.73984
4.73981
4.73979
4.7398
4.73982
4.73983
4.73981
4.73979
4.7398
4.73982
4.73982
4.73981
4.73981
4.7398
4.73978
4.73974
4.7397
4.73968
4.73966
4.73965
4.73966
4.73967
4.73967
4.73966
4.73965
4.73967
4.73969
4.7397
4.73968
4.73966
4.73962
4.73958
4.73955
4.73955
4.73957
4.73958
4.73957
4.73955
4.73953
4.73951
4.73949
4.73949
4.73952
4.73953
4.73952
4.73948
4.73945
4.73943
4.73943
4.73943
4.73945
4.73948
4.73948
4.73948
4.7395
4.73951
4.73948
4.73945
4.73943
4.73943
4.73939
4.73934
4.73931
4.73931
4.73931
4.73929
4.73929
4.73931
4.73935
4.73935
4.73937
4.73938
4.73939
4.73936
4.73934
4.73933
4.73936
4.73934
4.73932
4.73928
4.73928
4.73925
4.73917
4.7391
4.73905
4.73906
4.73902
4.739
4.7389
4.73882
4.73863
4.73843
4.73809
4.73761
4.73681
4.73569
4.73402
4.73166
4.72823
4.7235
4.71715
4.70844
4.69683
4.6813
4.6612
4.63491
4.60083
4.55566
4.49611
4.41997
4.3274
4.21897
4.09467
3.95465
3.80013
3.63305
3.45705
3.27743
3.10102
2.93608
2.79243
2.68108
2.60955
2.57379
2.55965
2.55122
2.54366
2.53715
2.53144
2.52615
2.52091
2.51553
2.50996
2.50421
2.49831
2.49224
2.48601
2.47965
2.47319
2.46669
2.46021
2.45377
2.44738
2.441
2.43458
2.42807
2.42146
2.41481
2.40815
2.40154
2.39502
2.38861
2.38234
2.37619
2.37013
2.36408
2.35797
2.35175
2.34542
2.33903
2.33261
2.32624
2.31991
2.31367
2.30753
2.30148
2.2955
2.28956
2.28357
2.27741
2.2712
2.265
2.25883
2.25273
2.24669
2.24075
2.23495
2.22933
2.22387
2.21839
2.21204
2.1999
4.73926
4.73925
4.73925
4.73926
4.73927
4.7393
4.73933
4.73939
4.73945
4.73951
4.73955
4.73958
4.73961
4.73963
4.73964
4.73966
4.7397
4.73974
4.73977
4.73979
4.73981
4.73983
4.73983
4.73984
4.73987
4.73991
4.73996
4.73999
4.73999
4.73998
4.73994
4.73993
4.73996
4.74001
4.74006
4.74009
4.74009
4.74009
4.74006
4.74003
4.74002
4.74003
4.74003
4.74
4.73998
4.73996
4.73994
4.73991
4.73987
4.73984
4.73981
4.73979
4.7398
4.73982
4.73983
4.73981
4.73979
4.7398
4.73982
4.73982
4.73981
4.73981
4.7398
4.73978
4.73974
4.7397
4.73968
4.73966
4.73965
4.73966
4.73967
4.73967
4.73966
4.73965
4.73967
4.73969
4.7397
4.73968
4.73966
4.73962
4.73958
4.73955
4.73955
4.73957
4.73958
4.73957
4.73955
4.73953
4.73951
4.73949
4.73949
4.73952
4.73953
4.73952
4.73948
4.73945
4.73943
4.73943
4.73944
4.73945
4.73948
4.73948
4.73948
4.7395
4.73951
4.73949
4.73945
4.73943
4.73943
4.73939
4.73934
4.7393
4.73931
4.73931
4.73929
4.73929
4.73931
4.73935
4.73935
4.73937
4.73939
4.73939
4.73936
4.73934
4.73934
4.73937
4.73934
4.73932
4.73928
4.73929
4.73926
4.73917
4.73909
4.73904
4.73907
4.73903
4.739
4.73889
4.73881
4.73863
4.73844
4.7381
4.73761
4.73681
4.73569
4.73402
4.73168
4.72826
4.72354
4.7172
4.70853
4.69697
4.68149
4.66148
4.63531
4.60144
4.55645
4.49711
4.42117
4.32881
4.2205
4.09603
3.95593
3.80123
3.63373
3.45737
3.27745
3.10094
2.93598
2.79236
2.68103
2.6095
2.57378
2.55966
2.55123
2.54367
2.53715
2.53144
2.52614
2.5209
2.51551
2.50995
2.5042
2.49831
2.49224
2.48602
2.47966
2.47319
2.4667
2.46022
2.45378
2.44739
2.441
2.43458
2.42807
2.42146
2.4148
2.40815
2.40154
2.39501
2.38861
2.38234
2.37619
2.37013
2.36408
2.35797
2.35175
2.34542
2.33903
2.33262
2.32624
2.31991
2.31368
2.30753
2.30148
2.29551
2.28956
2.28357
2.27741
2.2712
2.265
2.25883
2.25273
2.24669
2.24075
2.23495
2.22933
2.22387
2.21838
2.21203
2.19992
4.73926
4.73925
4.73925
4.73926
4.73927
4.7393
4.73933
4.73939
4.73945
4.73951
4.73955
4.73958
4.73961
4.73963
4.73964
4.73966
4.7397
4.73974
4.73977
4.73979
4.73981
4.73983
4.73983
4.73984
4.73987
4.73991
4.73996
4.73999
4.73999
4.73998
4.73994
4.73993
4.73996
4.74001
4.74006
4.74009
4.7401
4.74009
4.74006
4.74003
4.74002
4.74003
4.74003
4.74
4.73998
4.73996
4.73994
4.73991
4.73987
4.73984
4.73981
4.73979
4.7398
4.73982
4.73983
4.73981
4.73979
4.7398
4.73982
4.73982
4.73981
4.73981
4.7398
4.73978
4.73974
4.7397
4.73968
4.73966
4.73965
4.73966
4.73967
4.73967
4.73966
4.73965
4.73967
4.73969
4.7397
4.73968
4.73966
4.73962
4.73958
4.73955
4.73955
4.73957
4.73958
4.73957
4.73955
4.73953
4.73951
4.73949
4.73949
4.73952
4.73953
4.73952
4.73948
4.73945
4.73943
4.73943
4.73944
4.73945
4.73947
4.73947
4.73948
4.7395
4.73952
4.73949
4.73945
4.73943
4.73943
4.73939
4.73934
4.7393
4.73931
4.73931
4.73929
4.73929
4.73931
4.73935
4.73935
4.73937
4.73939
4.73939
4.73936
4.73934
4.73934
4.73937
4.73934
4.73932
4.73927
4.73929
4.73926
4.73917
4.73908
4.73904
4.73907
4.73904
4.739
4.73888
4.7388
4.73864
4.73844
4.7381
4.73761
4.73681
4.73568
4.73401
4.73168
4.72827
4.72357
4.71723
4.70859
4.69706
4.68165
4.66162
4.63557
4.60184
4.55683
4.49753
4.42172
4.32956
4.22142
4.09667
3.95665
3.8019
3.63414
3.45753
3.27742
3.10084
2.93588
2.7923
2.68098
2.60947
2.57378
2.55968
2.55124
2.54367
2.53716
2.53144
2.52614
2.52089
2.51551
2.50994
2.5042
2.4983
2.49224
2.48602
2.47966
2.4732
2.4667
2.46022
2.45378
2.44739
2.441
2.43458
2.42806
2.42146
2.4148
2.40814
2.40154
2.39501
2.38861
2.38234
2.37619
2.37013
2.36408
2.35798
2.35175
2.34543
2.33903
2.33262
2.32624
2.31991
2.31368
2.30753
2.30148
2.2955
2.28956
2.28357
2.2774
2.27119
2.265
2.25883
2.25273
2.24669
2.24075
2.23495
2.22933
2.22387
2.21838
2.21203
2.19994
4.73926
4.73925
4.73925
4.73926
4.73927
4.7393
4.73933
4.73939
4.73945
4.73951
4.73955
4.73958
4.73961
4.73963
4.73964
4.73966
4.7397
4.73974
4.73977
4.73979
4.73981
4.73983
4.73983
4.73984
4.73987
4.73991
4.73996
4.73999
4.73999
4.73998
4.73994
4.73993
4.73996
4.74001
4.74006
4.74009
4.7401
4.74009
4.74006
4.74003
4.74002
4.74003
4.74003
4.74
4.73998
4.73996
4.73994
4.73991
4.73987
4.73984
4.73981
4.73979
4.7398
4.73982
4.73983
4.73981
4.73979
4.7398
4.73982
4.73982
4.73981
4.73981
4.7398
4.73978
4.73974
4.7397
4.73968
4.73966
4.73965
4.73966
4.73967
4.73967
4.73966
4.73965
4.73967
4.73969
4.7397
4.73968
4.73966
4.73962
4.73958
4.73955
4.73955
4.73957
4.73958
4.73957
4.73954
4.73953
4.73951
4.73949
4.73949
4.73952
4.73953
4.73952
4.73948
4.73945
4.73943
4.73943
4.73944
4.73945
4.73947
4.73947
4.73948
4.7395
4.73952
4.73949
4.73945
4.73943
4.73943
4.73939
4.73934
4.7393
4.73931
4.73931
4.73929
4.73929
4.73931
4.73935
4.73935
4.73937
4.73939
4.73939
4.73936
4.73934
4.73934
4.73937
4.73935
4.73931
4.73927
4.73929
4.73926
4.73917
4.73908
4.73904
4.73907
4.73905
4.739
4.73888
4.7388
4.73864
4.73845
4.7381
4.73762
4.73681
4.73567
4.73403
4.73168
4.72828
4.7236
4.71728
4.70862
4.69711
4.68181
4.66157
4.6357
4.60206
4.55688
4.49749
4.42158
4.32987
4.2222
4.09671
3.95694
3.80224
3.63423
3.45746
3.27732
3.1008
2.93583
2.79225
2.68097
2.60945
2.57377
2.55968
2.55124
2.54368
2.53716
2.53144
2.52613
2.52088
2.5155
2.50993
2.50419
2.4983
2.49224
2.48602
2.47966
2.4732
2.46671
2.46022
2.45378
2.44739
2.441
2.43458
2.42806
2.42146
2.4148
2.40814
2.40153
2.39501
2.38861
2.38234
2.37619
2.37013
2.36408
2.35797
2.35176
2.34543
2.33902
2.33262
2.32624
2.31991
2.31368
2.30753
2.30148
2.2955
2.28956
2.28357
2.2774
2.27119
2.265
2.25883
2.25273
2.24669
2.24075
2.23496
2.22933
2.22387
2.21838
2.21202
2.19995
1.22125
1.22125
1.22125
1.22125
1.22125
1.22125
1.22125
1.22125
1.22125
1.22125
1.22125
1.22125
1.22125
1.22125
1.22125
1.22135
1.22229
1.22563
1.23151
1.23831
1.24454
1.24955
1.25326
1.25582
1.25747
1.25844
1.25897
1.25926
1.25949
1.25975
1.26015
1.26079
1.26196
1.26428
1.26884
1.27712
1.29017
1.30752
1.32715
1.34718
1.36746
1.38945
1.4141
1.44052
1.46662
1.48778
1.49578
1.46938
1.39293
1.28961
1.18077
1.07111
0.976954
0.854601
0.766586
0.762663
0.80591
0.878139
0.936371
0.986661
1.01806
1.03837
1.05108
1.05715
1.05889
1.0594
1.05789
1.05788
1.05851
1.05954
1.06157
1.0658
1.06973
1.07352
1.07677
1.0783
1.07894
1.07754
1.07596
1.0773
1.078
1.07823
1.0738
1.06876
1.06295
1.05801
1.05149
1.04553
1.03999
1.03659
1.03483
1.03366
1.03349
1.03711
1.04096
1.04729
1.05531
1.06105
1.07208
1.10622
1.22125
1.22125
1.22125
1.22125
1.22125
1.22125
1.22125
1.22125
1.22125
1.22125
1.22125
1.22125
1.22125
1.22125
1.22125
1.22125
1.22133
1.22217
1.2253
1.231
1.23773
1.24397
1.24903
1.25281
1.25544
1.25714
1.25814
1.25869
1.25898
1.25917
1.25939
1.25972
1.26026
1.26125
1.26325
1.26727
1.27467
1.28653
1.30264
1.3213
1.34056
1.35989
1.3804
1.40321
1.42783
1.45237
1.47231
1.47992
1.45388
1.37488
1.2634
1.14858
1.03192
0.94395
0.84188
0.752232
0.752919
0.798766
0.874138
0.94465
1.00717
1.04866
1.07278
1.08539
1.09174
1.09162
1.08966
1.08709
1.0813
1.08034
1.07784
1.07888
1.0821
1.08603
1.09012
1.09369
1.09707
1.09897
1.09885
1.09859
1.09982
1.09867
1.09574
1.09052
1.08471
1.07721
1.0713
1.06392
1.05953
1.05747
1.05563
1.05512
1.05623
1.05656
1.06009
1.06492
1.07388
1.08828
1.10796
1.13223
1.22125
1.22125
1.22125
1.22125
1.22125
1.22125
1.22125
1.22125
1.22125
1.22125
1.22125
1.22125
1.22125
1.22125
1.22125
1.22125
1.22131
1.22204
1.22494
1.23044
1.23709
1.24333
1.24845
1.2523
1.255
1.25676
1.25781
1.25837
1.25866
1.25882
1.259
1.25925
1.25968
1.2605
1.26218
1.26563
1.27212
1.28274
1.29748
1.31496
1.33333
1.35168
1.37072
1.39147
1.41383
1.43625
1.45447
1.46152
1.43724
1.3598
1.24444
1.12486
0.993231
0.906301
0.817178
0.721595
0.718588
0.770247
0.851178
0.936689
1.0041
1.06023
1.09815
1.11835
1.12886
1.13089
1.12935
1.12598
1.1215
1.11745
1.11498
1.11293
1.11356
1.11623
1.11978
1.12394
1.12768
1.1303
1.13107
1.13167
1.13211
1.1308
1.12838
1.12361
1.11831
1.11154
1.10532
1.09939
1.09662
1.09485
1.0936
1.22125
1.22125
1.22125
1.22125
1.22125
1.22125
1.22125
1.22125
1.22125
1.22125
1.22125
1.22125
1.22125
1.22125
1.22125
1.22125
1.22125
1.2213
1.22192
1.22457
1.22983
1.23637
1.24261
1.24779
1.25171
1.2545
1.25633
1.25743
1.25802
1.2583
1.25844
1.25856
1.25875
1.25907
1.25971
1.26106
1.26393
1.26951
1.27884
1.2921
1.30821
1.32549
1.34283
1.36043
1.37909
1.39889
1.41859
1.43449
1.44087
1.42042
1.34957
1.23581
1.11011
0.965211
0.866025
0.781749
0.677324
0.663115
0.718109
1.22125
1.22125
1.22125
1.22125
1.22125
1.22125
1.22125
1.22125
1.22125
1.22125
1.22125
1.22125
1.22125
1.22125
1.22125
1.22125
1.22125
1.22129
1.2218
1.22417
1.22916
1.23557
1.24181
1.24704
1.25105
1.25393
1.25584
1.25701
1.25763
1.25791
1.25803
1.25809
1.2582
1.25842
1.25888
1.25991
1.26222
1.26687
1.2749
1.2866
1.30116
1.31713
1.33332
1.34953
1.36618
1.38332
1.39988
1.41284
1.4182
1.4027
1.34357
1.23977
1.10584
0.953619
0.823377
0.72225
0.611726
1.22125
1.22125
1.22125
1.22125
1.22125
1.22125
1.22125
1.22125
1.22125
1.22125
1.22125
1.22125
1.22125
1.22125
1.22125
1.22125
1.22125
1.22128
1.22168
1.22377
1.22845
1.2347
1.24092
1.24621
1.25031
1.25328
1.25529
1.25652
1.25719
1.25748
1.25757
1.25759
1.25762
1.25773
1.25802
1.25876
1.26051
1.26424
1.27095
1.28105
1.29395
1.30842
1.32327
1.33805
1.35282
1.36742
1.38081
1.39068
1.39458
1.38329
1.33728
1.2501
1.13129
0.958719
0.806228
0.686496
1.22125
1.22125
1.22125
1.22125
1.22125
1.22125
1.22125
1.22125
1.22125
1.22125
1.22125
1.22125
1.22125
1.22125
1.22125
1.22125
1.22125
1.22127
1.22158
1.22337
1.22769
1.23374
1.23993
1.24528
1.24947
1.25254
1.25465
1.25598
1.2567
1.25701
1.25707
1.25704
1.25699
1.257
1.25714
1.25761
1.25885
1.26168
1.26706
1.27552
1.28671
1.29955
1.31289
1.32612
1.33907
1.35137
1.36199
1.36913
1.37127
1.36164
1.32808
1.2607
1.157
1.01691
0.854643
0.71072
1.22125
1.22125
1.22125
1.22125
1.22125
1.22125
1.22125
1.22125
1.22125
1.22125
1.22125
1.22125
1.22125
1.22125
1.22125
1.22125
1.22125
1.22126
1.22149
1.22297
1.2269
1.23271
1.23884
1.24424
1.24852
1.25171
1.25393
1.25535
1.25615
1.25648
1.25653
1.25645
1.25632
1.25623
1.25623
1.25647
1.25726
1.25925
1.26332
1.27012
1.27955
1.2907
1.30244
1.31402
1.32513
1.33535
1.34373
1.34872
1.34927
1.33934
1.31248
1.26532
1.19012
1.08011
0.945241
0.825522
1.22125
1.22125
1.22125
1.22125
1.22125
1.22125
1.22125
1.22125
1.22125
1.22125
1.22125
1.22125
1.22125
1.22125
1.22125
1.22125
1.22125
1.22126
1.22141
1.22259
1.22608
1.23159
1.23764
1.24308
1.24747
1.25077
1.25311
1.25465
1.25552
1.2559
1.25594
1.25582
1.25562
1.25542
1.25531
1.25535
1.25576
1.25699
1.25982
1.26495
1.27259
1.28205
1.29218
1.3021
1.31137
1.31965
1.32616
1.3296
1.32911
1.31923
1.2961
1.26164
1.21146
1.13965
1.04403
0.947242
1.22125
1.22125
1.22125
1.22125
1.22125
1.22125
1.22125
1.22125
1.22125
1.22125
1.22125
1.22125
1.22125
1.22125
1.22125
1.22125
1.22125
1.22125
1.22135
1.22225
1.22525
1.2304
1.23633
1.2418
1.24629
1.24971
1.25218
1.25384
1.25481
1.25524
1.2553
1.25516
1.2549
1.25461
1.25437
1.25425
1.25433
1.25493
1.25663
1.26018
1.26601
1.27373
1.28229
1.29065
1.2982
1.30467
1.30952
1.3119
1.31081
1.30172
1.28213
1.25502
1.2191
1.1727
1.11621
1.05706
1.22125
1.22125
1.22125
1.22125
1.22125
1.22125
1.22125
1.22125
1.22125
1.22125
1.22125
1.22125
1.22125
1.22125
1.22125
1.22125
1.22125
1.22125
1.22131
1.22195
1.22444
1.22916
1.23491
1.24039
1.24497
1.24853
1.25113
1.25292
1.254
1.25451
1.2546
1.25446
1.25416
1.25378
1.25343
1.25315
1.25298
1.25308
1.25383
1.25595
1.26
1.26593
1.27292
1.27984
1.28594
1.29086
1.29426
1.29579
1.29429
1.28639
1.27088
1.24948
1.22252
1.19102
1.15707
1.12173
1.22125
1.22125
1.22125
1.22125
1.22125
1.22125
1.22125
1.22125
1.22125
1.22125
1.22125
1.22125
1.22125
1.22125
1.22125
1.22125
1.22125
1.22125
1.22128
1.2217
1.22368
1.22788
1.23338
1.23884
1.24352
1.2472
1.24995
1.25188
1.25309
1.25368
1.25383
1.2537
1.25339
1.25296
1.2525
1.25206
1.25166
1.2514
1.25147
1.25237
1.25478
1.25891
1.26424
1.26979
1.27469
1.27845
1.28076
1.2816
1.27974
1.27297
1.26133
1.24521
1.22478
1.20182
1.17868
1.15706
1.22125
1.22125
1.22125
1.22125
1.22125
1.22125
1.22125
1.22125
1.22125
1.22125
1.22125
1.22125
1.22125
1.22125
1.22125
1.22125
1.22125
1.22125
1.22126
1.22152
1.22298
1.22659
1.23176
1.23715
1.24191
1.24573
1.24863
1.2507
1.25205
1.25276
1.25297
1.25288
1.25259
1.25212
1.25159
1.25102
1.25041
1.24981
1.24943
1.2495
1.2505
1.25291
1.25653
1.26065
1.26449
1.26743
1.26907
1.26945
1.26745
1.26165
1.25293
1.24127
1.22629
1.20939
1.19249
1.17743
1.22125
1.22125
1.22125
1.22125
1.22125
1.22125
1.22125
1.22125
1.22125
1.22125
1.22125
1.22125
1.22125
1.22125
1.22125
1.22125
1.22125
1.22125
1.22126
1.22139
1.22239
1.22534
1.23007
1.23533
1.24015
1.2441
1.24715
1.24938
1.25087
1.25172
1.25203
1.252
1.25174
1.25127
1.25068
1.25001
1.24925
1.2484
1.2476
1.24714
1.24722
1.24814
1.2501
1.25273
1.25547
1.25771
1.25898
1.2592
1.2574
1.2526
1.24583
1.23739
1.22676
1.21466
1.20239
1.19122
1.22125
1.22125
1.22125
1.22125
1.22125
1.22125
1.22125
1.22125
1.22125
1.22125
1.22125
1.22125
1.22125
1.22125
1.22125
1.22125
1.22125
1.22125
1.22125
1.22131
1.22192
1.22418
1.22834
1.23339
1.23822
1.2423
1.24551
1.24789
1.24955
1.25055
1.25098
1.25103
1.25082
1.25039
1.24978
1.24904
1.24817
1.24715
1.24607
1.24516
1.24464
1.24462
1.24517
1.24635
1.24788
1.24937
1.25031
1.25051
1.24919
1.24547
1.24025
1.23395
1.22644
1.21793
1.20921
1.201
1.22125
1.22125
1.22125
1.22125
1.22125
1.22125
1.22125
1.22125
1.22125
1.22125
1.22125
1.22125
1.22125
1.22125
1.22125
1.22125
1.22125
1.22125
1.22125
1.22127
1.2216
1.22316
1.22664
1.23135
1.23614
1.24033
1.24369
1.24624
1.24807
1.24923
1.24981
1.24996
1.24982
1.24946
1.24887
1.2481
1.24714
1.24601
1.24477
1.2436
1.24265
1.24199
1.24166
1.24167
1.24202
1.24261
1.24311
1.24319
1.24229
1.23978
1.23592
1.23118
1.22575
1.21976
1.21361
1.20771
1.22125
1.22125
1.22125
1.22125
1.22125
1.22125
1.22125
1.22125
1.22125
1.22125
1.22125
1.22125
1.22125
1.22125
1.22125
1.22125
1.22125
1.22125
1.22125
1.22126
1.2214
1.22236
1.22504
1.22925
1.23391
1.23818
1.24169
1.24442
1.24641
1.24775
1.24851
1.24877
1.24874
1.24847
1.24794
1.24718
1.24618
1.24497
1.24363
1.24232
1.24115
1.24014
1.23925
1.2385
1.23795
1.23767
1.23755
1.23734
1.23665
1.23504
1.23239
1.22896
1.22501
1.22072
1.21634
1.2121
1.22125
1.22125
1.22125
1.22125
1.22125
1.22125
1.22125
1.22125
1.22125
1.22125
1.22125
1.22125
1.22125
1.22125
1.22125
1.22125
1.22125
1.22125
1.22125
1.22125
1.2213
1.22179
1.22365
1.22717
1.23156
1.23585
1.23951
1.24241
1.24458
1.24611
1.24704
1.24747
1.24755
1.24738
1.24696
1.24627
1.24529
1.24403
1.24262
1.24122
1.23995
1.23879
1.23766
1.23653
1.23543
1.2345
1.23377
1.23314
1.2324
1.23125
1.22948
1.2271
1.2243
1.2212
1.21804
1.21494
1.22125
1.22125
1.22125
1.22125
1.22125
1.22125
1.22125
1.22125
1.22125
1.22125
1.22125
1.22125
1.22125
1.22125
1.22125
1.22125
1.22125
1.22125
1.22125
1.22125
1.22126
1.22146
1.22255
1.22524
1.22915
1.23335
1.23713
1.24021
1.24258
1.24429
1.24542
1.24603
1.24623
1.24618
1.2459
1.24533
1.24444
1.2432
1.24173
1.24027
1.23893
1.23772
1.23655
1.23532
1.23403
1.23276
1.23162
1.23062
1.22966
1.22862
1.22731
1.22564
1.22366
1.22149
1.21921
1.21694
1.22125
1.22125
1.22125
1.22125
1.22125
1.22125
1.22125
1.22125
1.22125
1.22125
1.22125
1.22125
1.22125
1.22125
1.22125
1.22125
1.22125
1.22125
1.22125
1.22125
1.22125
1.22131
1.22182
1.22359
1.2268
1.23074
1.23456
1.23781
1.24038
1.24229
1.24362
1.24443
1.2448
1.24486
1.24472
1.24432
1.24359
1.24245
1.241
1.23947
1.23806
1.23681
1.23565
1.23449
1.23324
1.23194
1.23066
1.22947
1.22835
1.22726
1.22611
1.22484
1.22342
1.22187
1.22023
1.21856
1.22125
1.22125
1.22125
1.22125
1.22125
1.22125
1.22125
1.22125
1.22125
1.22125
1.22125
1.22125
1.22125
1.22125
1.22125
1.22125
1.22125
1.22125
1.22125
1.22125
1.22125
1.22126
1.22143
1.22237
1.22467
1.22809
1.23182
1.23521
1.23798
1.2401
1.24163
1.24265
1.24322
1.24342
1.2434
1.24318
1.24266
1.24174
1.2404
1.23885
1.23735
1.23602
1.23486
1.23377
1.23266
1.23149
1.2303
1.22913
1.22801
1.22694
1.22589
1.22481
1.22367
1.22248
1.22125
1.22001
1.22125
1.22125
1.22125
1.22125
1.22125
1.22125
1.22125
1.22125
1.22125
1.22125
1.22125
1.22125
1.22125
1.22125
1.22125
1.22125
1.22125
1.22125
1.22125
1.22125
1.22125
1.22125
1.22129
1.22164
1.22298
1.2256
1.22899
1.2324
1.23537
1.23772
1.23947
1.2407
1.24147
1.24186
1.24196
1.24188
1.24159
1.24096
1.23987
1.2384
1.23686
1.23543
1.23419
1.23309
1.23208
1.23107
1.23005
1.22903
1.22804
1.2271
1.22618
1.22526
1.22432
1.22336
1.22239
1.22142
1.22125
1.22125
1.22125
1.22125
1.22125
1.22125
1.22125
1.22125
1.22125
1.22125
1.22125
1.22125
1.22125
1.22125
1.22125
1.22125
1.22125
1.22125
1.22125
1.22125
1.22125
1.22125
1.22126
1.22134
1.2219
1.22352
1.22623
1.22945
1.23253
1.23512
1.23712
1.23857
1.23955
1.24014
1.2404
1.24045
1.24034
1.23999
1.23926
1.23806
1.23658
1.23509
1.23374
1.23255
1.2315
1.23056
1.22969
1.22884
1.22802
1.22723
1.22648
1.22578
1.22508
1.22435
1.22359
1.22283
1.22125
1.22125
1.22125
1.22125
1.22125
1.22125
1.22125
1.22125
1.22125
1.22125
1.22125
1.22125
1.22125
1.22125
1.22125
1.22125
1.22125
1.22125
1.22125
1.22125
1.22125
1.22125
1.22125
1.22126
1.2214
1.22212
1.22387
1.22652
1.22951
1.23227
1.23454
1.23626
1.23747
1.23826
1.23871
1.23889
1.23891
1.23878
1.23841
1.23763
1.2364
1.23499
1.2336
1.23231
1.23116
1.23015
1.22925
1.22846
1.22776
1.22712
1.22653
1.22598
1.22547
1.22498
1.22448
1.22395
1.22125
1.22125
1.22125
1.22125
1.22125
1.22125
1.22125
1.22125
1.22125
1.22125
1.22125
1.22125
1.22125
1.22125
1.22125
1.22125
1.22125
1.22125
1.22125
1.22125
1.22125
1.22125
1.22125
1.22125
1.22127
1.22146
1.22224
1.22397
1.22646
1.22919
1.23169
1.23371
1.2352
1.23623
1.23688
1.23724
1.23737
1.23737
1.23725
1.23688
1.2361
1.23494
1.23365
1.23238
1.23117
1.23006
1.22906
1.2282
1.22747
1.22685
1.22631
1.22586
1.22546
1.22511
1.22478
1.22445
1.22125
1.22125
1.22125
1.22125
1.22125
1.22125
1.22125
1.22125
1.22125
1.22125
1.22125
1.22125
1.22125
1.22125
1.22125
1.22125
1.22125
1.22125
1.22125
1.22125
1.22125
1.22125
1.22125
1.22125
1.22125
1.22127
1.22147
1.22223
1.22383
1.22609
1.22857
1.23084
1.23267
1.23401
1.23491
1.23547
1.23575
1.23585
1.23584
1.23574
1.2354
1.23469
1.23367
1.23255
1.23142
1.2303
1.22924
1.22828
1.22743
1.22671
1.22612
1.22565
1.22526
1.22494
1.22467
1.22444
1.22125
1.22125
1.22125
1.22125
1.22125
1.22125
1.22125
1.22125
1.22125
1.22125
1.22125
1.22125
1.22125