/*--------------------------------*- C++ -*----------------------------------*\
| =========                 |                                                 |
| \\      /  F ield         | OpenFOAM: The Open Source CFD Toolbox           |
|  \\    /   O peration     | Version:  2406                                  |
|   \\  /    A nd           | Website:  www.openfoam.com                      |
|    \\/     M anipulation  |                                                 |
\*---------------------------------------------------------------------------*/
FoamFile
{
    version     2.0;
    format      ascii;
    arch        "LSB;label=32;scalar=64";
    class       volScalarField;
    location    "0.085";
    object      T;
}
// * * * * * * * * * * * * * * * * * * * * * * * * * * * * * * * * * * * * * //

dimensions      [0 0 0 1 0 0 0];

internalField   nonuniform List<scalar> 
14020
(
242.034
242.034
242.034
242.035
242.035
242.036
242.036
242.037
242.039
242.04
242.041
242.042
242.042
242.043
242.043
242.044
242.045
242.046
242.047
242.047
242.048
242.048
242.048
242.048
242.049
242.05
242.051
242.052
242.052
242.052
242.051
242.05
242.051
242.052
242.053
242.053
242.052
242.052
242.051
242.05
242.05
242.05
242.051
242.05
242.05
242.05
242.05
242.049
242.049
242.048
242.047
242.047
242.047
242.048
242.048
242.048
242.047
242.048
242.048
242.048
242.048
242.048
242.047
242.047
242.046
242.045
242.045
242.045
242.044
242.044
242.045
242.045
242.045
242.044
242.045
242.045
242.045
242.045
242.045
242.044
242.043
242.042
242.043
242.043
242.043
242.043
242.042
242.042
242.042
242.041
242.042
242.042
242.042
242.042
242.041
242.041
242.041
242.04
242.041
242.041
242.042
242.042
242.042
242.042
242.042
242.042
242.041
242.041
242.041
242.04
242.039
242.038
242.038
242.038
242.038
242.038
242.038
242.039
242.039
242.04
242.04
242.04
242.04
242.039
242.039
242.04
242.04
242.04
242.04
242.04
242.04
242.039
242.039
242.039
242.04
242.04
242.043
242.046
242.052
242.059
242.072
242.091
242.12
242.16
242.22
242.305
242.427
242.599
242.835
243.167
243.622
244.242
245.071
246.177
247.626
249.503
251.876
254.827
258.484
263.039
268.706
275.701
284.24
294.524
306.717
320.896
336.978
354.602
372.947
390.513
405.157
414.783
418.978
419.936
419.932
419.757
419.407
418.926
418.376
417.812
417.261
416.725
416.197
415.673
415.156
414.654
414.172
413.713
413.274
412.854
412.445
412.043
411.643
411.238
410.824
410.401
409.968
409.53
409.09
408.65
408.213
407.782
407.356
406.933
406.51
406.081
405.645
405.2
404.751
404.302
403.856
403.416
402.982
402.556
402.137
401.723
401.31
400.893
400.463
400.028
399.593
399.158
398.725
398.296
397.873
397.457
397.053
396.659
396.265
395.808
394.925
242.034
242.034
242.034
242.035
242.035
242.036
242.036
242.037
242.039
242.04
242.041
242.042
242.042
242.043
242.043
242.044
242.045
242.046
242.047
242.047
242.048
242.048
242.048
242.048
242.049
242.05
242.051
242.052
242.052
242.052
242.051
242.05
242.051
242.052
242.053
242.053
242.052
242.052
242.051
242.05
242.05
242.05
242.051
242.05
242.05
242.05
242.05
242.049
242.049
242.048
242.047
242.047
242.047
242.048
242.048
242.048
242.047
242.048
242.048
242.048
242.048
242.048
242.047
242.047
242.046
242.045
242.045
242.045
242.044
242.044
242.045
242.045
242.045
242.044
242.045
242.045
242.045
242.045
242.045
242.044
242.043
242.042
242.043
242.043
242.043
242.043
242.042
242.042
242.042
242.041
242.042
242.042
242.042
242.042
242.041
242.041
242.041
242.04
242.041
242.041
242.042
242.042
242.042
242.042
242.042
242.042
242.041
242.041
242.041
242.04
242.039
242.038
242.038
242.038
242.038
242.038
242.038
242.039
242.039
242.04
242.04
242.04
242.04
242.039
242.039
242.04
242.04
242.04
242.04
242.04
242.04
242.039
242.039
242.039
242.04
242.04
242.043
242.046
242.052
242.059
242.072
242.091
242.12
242.16
242.22
242.305
242.427
242.598
242.835
243.166
243.622
244.241
245.07
246.174
247.622
249.497
251.867
254.814
258.466
263.013
268.671
275.656
284.184
294.458
306.644
320.821
336.907
354.541
372.902
390.487
405.148
414.783
418.984
419.936
419.932
419.757
419.407
418.926
418.376
417.812
417.261
416.725
416.197
415.673
415.157
414.654
414.172
413.713
413.275
412.854
412.445
412.043
411.643
411.238
410.824
410.4
409.968
409.53
409.09
408.65
408.213
407.782
407.356
406.933
406.51
406.081
405.645
405.2
404.751
404.302
403.856
403.416
402.982
402.556
402.137
401.723
401.31
400.893
400.463
400.028
399.593
399.158
398.725
398.296
397.873
397.457
397.053
396.659
396.265
395.808
394.926
242.034
242.034
242.034
242.035
242.035
242.036
242.036
242.037
242.039
242.04
242.041
242.042
242.042
242.043
242.043
242.044
242.045
242.046
242.047
242.047
242.048
242.048
242.048
242.048
242.049
242.05
242.051
242.052
242.052
242.052
242.051
242.05
242.051
242.052
242.053
242.053
242.052
242.052
242.051
242.05
242.05
242.05
242.051
242.05
242.05
242.05
242.05
242.049
242.049
242.048
242.047
242.047
242.047
242.048
242.048
242.048
242.047
242.048
242.048
242.048
242.048
242.048
242.047
242.047
242.046
242.045
242.045
242.045
242.044
242.044
242.045
242.045
242.045
242.044
242.045
242.045
242.045
242.045
242.045
242.044
242.043
242.042
242.043
242.043
242.043
242.043
242.042
242.042
242.042
242.041
242.042
242.042
242.042
242.042
242.041
242.041
242.041
242.04
242.041
242.041
242.042
242.042
242.042
242.042
242.042
242.042
242.041
242.041
242.041
242.04
242.039
242.038
242.038
242.038
242.038
242.038
242.038
242.039
242.039
242.04
242.04
242.04
242.04
242.039
242.039
242.04
242.04
242.04
242.04
242.04
242.04
242.039
242.039
242.039
242.04
242.041
242.043
242.046
242.052
242.059
242.072
242.091
242.12
242.16
242.22
242.305
242.427
242.598
242.834
243.166
243.62
244.239
245.065
246.167
247.611
249.48
251.842
254.778
258.414
262.942
268.577
275.539
284.042
294.295
306.471
320.65
336.752
354.413
372.811
390.436
405.125
414.773
418.985
419.935
419.932
419.758
419.408
418.926
418.376
417.812
417.26
416.724
416.197
415.673
415.157
414.654
414.172
413.713
413.275
412.854
412.445
412.043
411.643
411.238
410.824
410.4
409.968
409.53
409.09
408.65
408.213
407.782
407.356
406.933
406.51
406.081
405.645
405.2
404.751
404.302
403.856
403.416
402.982
402.556
402.137
401.722
401.31
400.893
400.463
400.028
399.593
399.158
398.725
398.296
397.873
397.457
397.053
396.659
396.264
395.807
394.927
242.034
242.034
242.034
242.035
242.035
242.036
242.036
242.037
242.039
242.04
242.041
242.042
242.042
242.043
242.043
242.044
242.045
242.046
242.047
242.047
242.048
242.048
242.048
242.048
242.049
242.05
242.051
242.052
242.052
242.052
242.051
242.05
242.051
242.052
242.053
242.053
242.052
242.052
242.051
242.05
242.05
242.05
242.051
242.05
242.05
242.05
242.05
242.049
242.049
242.048
242.048
242.047
242.047
242.048
242.048
242.048
242.047
242.048
242.048
242.048
242.048
242.048
242.047
242.047
242.046
242.045
242.045
242.044
242.044
242.044
242.045
242.045
242.045
242.044
242.045
242.045
242.045
242.045
242.045
242.044
242.043
242.042
242.043
242.043
242.043
242.043
242.042
242.042
242.042
242.041
242.041
242.042
242.042
242.042
242.041
242.041
242.041
242.04
242.041
242.041
242.042
242.042
242.042
242.042
242.042
242.042
242.041
242.041
242.041
242.04
242.039
242.038
242.038
242.038
242.038
242.038
242.038
242.039
242.039
242.04
242.04
242.04
242.04
242.039
242.039
242.04
242.04
242.04
242.04
242.04
242.04
242.039
242.039
242.039
242.04
242.041
242.043
242.046
242.052
242.059
242.072
242.091
242.12
242.16
242.22
242.305
242.427
242.596
242.833
243.165
243.618
244.234
245.057
246.154
247.591
249.45
251.797
254.715
258.327
262.827
268.43
275.361
283.837
294.075
306.247
320.443
336.578
354.286
372.73
390.395
405.109
414.773
418.989
419.934
419.932
419.759
419.409
418.927
418.376
417.811
417.26
416.724
416.196
415.673
415.156
414.654
414.172
413.713
413.275
412.854
412.445
412.043
411.643
411.237
410.824
410.4
409.968
409.53
409.09
408.65
408.213
407.782
407.356
406.933
406.51
406.081
405.645
405.2
404.751
404.302
403.856
403.416
402.982
402.556
402.137
401.722
401.31
400.893
400.463
400.028
399.593
399.158
398.725
398.296
397.873
397.457
397.053
396.66
396.264
395.807
394.929
242.034
242.034
242.034
242.035
242.035
242.036
242.036
242.037
242.039
242.04
242.041
242.042
242.042
242.043
242.043
242.044
242.045
242.046
242.047
242.047
242.048
242.048
242.048
242.048
242.049
242.05
242.051
242.052
242.052
242.052
242.051
242.05
242.051
242.052
242.053
242.053
242.052
242.052
242.051
242.05
242.05
242.05
242.051
242.05
242.05
242.05
242.05
242.049
242.049
242.048
242.048
242.047
242.047
242.048
242.048
242.048
242.047
242.048
242.048
242.048
242.048
242.048
242.047
242.047
242.046
242.045
242.045
242.044
242.044
242.044
242.045
242.045
242.044
242.044
242.045
242.045
242.045
242.045
242.044
242.044
242.043
242.042
242.043
242.043
242.043
242.043
242.042
242.042
242.042
242.041
242.041
242.042
242.042
242.042
242.041
242.041
242.041
242.04
242.041
242.041
242.042
242.042
242.042
242.042
242.042
242.042
242.041
242.041
242.041
242.04
242.039
242.038
242.038
242.038
242.038
242.038
242.038
242.039
242.039
242.04
242.04
242.04
242.04
242.039
242.04
242.04
242.04
242.04
242.04
242.04
242.04
242.039
242.039
242.039
242.04
242.041
242.043
242.046
242.052
242.059
242.072
242.091
242.12
242.16
242.22
242.305
242.426
242.595
242.832
243.163
243.614
244.227
245.046
246.137
247.565
249.411
251.742
254.639
258.225
262.695
268.27
275.176
283.634
293.867
306.053
320.276
336.45
354.197
372.678
390.369
405.095
414.765
418.987
419.934
419.932
419.759
419.409
418.927
418.376
417.811
417.259
416.723
416.196
415.672
415.156
414.654
414.173
413.714
413.276
412.855
412.446
412.044
411.643
411.237
410.824
410.4
409.967
409.53
409.09
408.65
408.213
407.782
407.356
406.933
406.51
406.081
405.645
405.2
404.752
404.302
403.857
403.416
402.982
402.556
402.137
401.722
401.31
400.893
400.463
400.028
399.593
399.158
398.726
398.296
397.873
397.457
397.053
396.66
396.264
395.807
394.931
242.034
242.034
242.034
242.035
242.035
242.036
242.036
242.037
242.039
242.04
242.041
242.042
242.042
242.043
242.043
242.044
242.045
242.046
242.047
242.047
242.048
242.048
242.048
242.048
242.049
242.05
242.051
242.052
242.052
242.052
242.051
242.05
242.051
242.052
242.053
242.053
242.052
242.052
242.051
242.05
242.05
242.051
242.051
242.05
242.05
242.05
242.05
242.049
242.049
242.048
242.048
242.047
242.047
242.048
242.048
242.048
242.047
242.048
242.048
242.048
242.048
242.048
242.047
242.047
242.046
242.045
242.045
242.044
242.044
242.044
242.045
242.045
242.044
242.044
242.045
242.045
242.045
242.045
242.044
242.044
242.043
242.042
242.042
242.043
242.043
242.043
242.042
242.042
242.042
242.041
242.041
242.042
242.042
242.042
242.041
242.041
242.041
242.04
242.041
242.041
242.042
242.042
242.042
242.042
242.042
242.042
242.041
242.041
242.041
242.04
242.039
242.038
242.038
242.038
242.038
242.038
242.038
242.039
242.039
242.04
242.04
242.04
242.04
242.039
242.04
242.04
242.04
242.04
242.04
242.04
242.04
242.039
242.038
242.039
242.04
242.041
242.044
242.046
242.052
242.059
242.072
242.091
242.12
242.16
242.22
242.304
242.425
242.594
242.83
243.16
243.61
244.22
245.035
246.12
247.538
249.373
251.688
254.566
258.131
262.579
268.134
275.025
283.48
293.726
305.933
320.185
336.39
354.166
372.666
390.365
405.093
414.763
418.988
419.935
419.934
419.76
419.41
418.928
418.377
417.811
417.259
416.723
416.195
415.672
415.156
414.654
414.173
413.714
413.276
412.855
412.446
412.044
411.643
411.237
410.823
410.4
409.967
409.53
409.09
408.65
408.213
407.782
407.356
406.933
406.51
406.082
405.645
405.2
404.752
404.302
403.857
403.416
402.982
402.556
402.137
401.722
401.31
400.893
400.463
400.028
399.593
399.158
398.726
398.297
397.873
397.457
397.053
396.66
396.264
395.806
394.932
242.034
242.034
242.034
242.035
242.035
242.036
242.036
242.037
242.039
242.04
242.041
242.042
242.042
242.043
242.043
242.044
242.045
242.046
242.047
242.047
242.048
242.048
242.048
242.048
242.049
242.05
242.051
242.052
242.052
242.052
242.051
242.05
242.051
242.052
242.053
242.053
242.052
242.052
242.051
242.05
242.05
242.051
242.051
242.05
242.05
242.05
242.05
242.049
242.049
242.048
242.048
242.047
242.047
242.048
242.048
242.048
242.047
242.048
242.048
242.048
242.048
242.048
242.047
242.047
242.046
242.045
242.045
242.044
242.044
242.044
242.045
242.045
242.044
242.044
242.045
242.045
242.045
242.045
242.044
242.044
242.043
242.042
242.042
242.043
242.043
242.043
242.042
242.042
242.042
242.041
242.041
242.042
242.042
242.042
242.041
242.041
242.041
242.04
242.041
242.041
242.042
242.042
242.042
242.042
242.042
242.042
242.041
242.041
242.041
242.04
242.039
242.038
242.038
242.038
242.038
242.038
242.038
242.039
242.039
242.04
242.04
242.04
242.04
242.039
242.04
242.041
242.04
242.04
242.04
242.04
242.04
242.039
242.038
242.039
242.04
242.042
242.044
242.046
242.051
242.059
242.072
242.091
242.12
242.16
242.219
242.304
242.425
242.593
242.829
243.158
243.606
244.214
245.025
246.105
247.517
249.343
251.646
254.511
258.062
262.498
268.045
274.928
283.389
293.65
305.873
320.144
336.365
354.156
372.661
390.363
405.091
414.76
418.987
419.935
419.934
419.761
419.411
418.928
418.376
417.811
417.258
416.722
416.194
415.672
415.156
414.654
414.173
413.714
413.277
412.856
412.446
412.044
411.643
411.237
410.823
410.399
409.967
409.53
409.089
408.65
408.213
407.782
407.356
406.933
406.51
406.082
405.645
405.2
404.752
404.303
403.857
403.416
402.983
402.556
402.137
401.722
401.309
400.893
400.463
400.028
399.593
399.158
398.726
398.297
397.873
397.457
397.053
396.66
396.264
395.806
394.934
242.034
242.034
242.034
242.035
242.035
242.036
242.036
242.037
242.039
242.04
242.041
242.042
242.042
242.043
242.043
242.044
242.045
242.046
242.047
242.047
242.048
242.048
242.048
242.048
242.049
242.05
242.051
242.052
242.052
242.052
242.051
242.05
242.051
242.052
242.053
242.053
242.052
242.052
242.051
242.05
242.05
242.051
242.051
242.05
242.05
242.05
242.05
242.049
242.049
242.048
242.048
242.047
242.047
242.048
242.048
242.048
242.047
242.048
242.048
242.048
242.048
242.048
242.047
242.047
242.046
242.045
242.045
242.044
242.044
242.044
242.045
242.045
242.044
242.044
242.045
242.045
242.045
242.045
242.044
242.044
242.043
242.042
242.042
242.043
242.043
242.043
242.042
242.042
242.042
242.041
242.041
242.042
242.042
242.042
242.041
242.041
242.041
242.041
242.041
242.041
242.042
242.042
242.042
242.042
242.042
242.042
242.041
242.041
242.041
242.04
242.039
242.038
242.038
242.038
242.038
242.038
242.038
242.039
242.039
242.04
242.04
242.04
242.04
242.039
242.04
242.041
242.04
242.04
242.04
242.041
242.04
242.039
242.038
242.039
242.041
242.042
242.044
242.046
242.051
242.059
242.072
242.091
242.119
242.16
242.219
242.303
242.424
242.592
242.828
243.156
243.604
244.211
245.02
246.095
247.503
249.325
251.62
254.477
258.02
262.451
267.998
274.876
283.347
293.62
305.852
320.132
336.359
354.155
372.664
390.367
405.091
414.759
418.987
419.936
419.935
419.761
419.411
418.928
418.376
417.81
417.258
416.722
416.194
415.672
415.156
414.654
414.173
413.715
413.277
412.856
412.447
412.044
411.643
411.237
410.823
410.399
409.967
409.529
409.089
408.65
408.213
407.782
407.356
406.933
406.51
406.082
405.645
405.201
404.751
404.303
403.857
403.416
402.983
402.556
402.137
401.722
401.309
400.893
400.463
400.028
399.593
399.158
398.726
398.297
397.873
397.457
397.053
396.66
396.264
395.805
394.935
242.034
242.034
242.034
242.035
242.035
242.036
242.036
242.037
242.039
242.04
242.041
242.042
242.042
242.043
242.043
242.044
242.045
242.046
242.047
242.047
242.048
242.048
242.048
242.048
242.049
242.05
242.051
242.052
242.052
242.052
242.051
242.05
242.051
242.052
242.053
242.053
242.052
242.052
242.051
242.05
242.05
242.051
242.051
242.05
242.05
242.05
242.05
242.049
242.049
242.048
242.048
242.047
242.047
242.048
242.048
242.048
242.047
242.048
242.048
242.048
242.048
242.048
242.047
242.047
242.046
242.045
242.045
242.044
242.044
242.044
242.045
242.045
242.044
242.044
242.045
242.045
242.045
242.045
242.044
242.044
242.043
242.042
242.042
242.043
242.043
242.043
242.042
242.042
242.042
242.041
242.041
242.042
242.042
242.042
242.041
242.041
242.041
242.041
242.041
242.041
242.042
242.042
242.042
242.042
242.043
242.042
242.041
242.041
242.041
242.04
242.039
242.038
242.038
242.038
242.038
242.038
242.038
242.039
242.039
242.04
242.04
242.04
242.04
242.039
242.04
242.041
242.04
242.04
242.04
242.041
242.04
242.039
242.038
242.039
242.041
242.042
242.044
242.046
242.051
242.059
242.072
242.091
242.119
242.16
242.218
242.303
242.424
242.592
242.828
243.157
243.603
244.209
245.019
246.088
247.497
249.32
251.609
254.461
257.997
262.432
267.989
274.849
283.331
293.612
305.843
320.124
336.356
354.157
372.668
390.37
405.093
414.757
418.986
419.936
419.935
419.762
419.411
418.928
418.375
417.809
417.257
416.721
416.193
415.671
415.156
414.654
414.173
413.715
413.277
412.856
412.447
412.044
411.643
411.237
410.823
410.399
409.967
409.529
409.089
408.65
408.213
407.782
407.356
406.933
406.51
406.082
405.645
405.201
404.751
404.303
403.857
403.416
402.983
402.556
402.137
401.722
401.309
400.892
400.462
400.028
399.593
399.158
398.726
398.297
397.873
397.457
397.053
396.66
396.264
395.805
394.936
293
293
293
293
293
293
293
293
293
293
293
293
293
293
293
293.009
293.1
293.421
293.986
294.635
295.229
295.705
296.057
296.3
296.456
296.547
296.597
296.625
296.647
296.672
296.709
296.77
296.88
297.098
297.528
298.306
299.527
301.137
302.942
304.76
306.589
308.601
310.883
313.077
314.656
315.922
318.249
323.531
332.946
338.993
338.933
324.288
309.714
294.058
281.744
281.36
287.978
298.386
307.076
315.119
321.179
325.736
329.124
331.351
332.379
332.857
333.148
333.695
334.277
334.445
334.352
334.402
334.433
334.528
334.803
335.086
335.533
335.797
336.057
336.663
336.841
336.843
336.765
336.717
336.811
336.963
336.882
336.928
336.922
336.91
336.743
336.529
336.385
336.299
336.348
336.378
336.423
335.816
333.94
329.497
293
293
293
293
293
293
293
293
293
293
293
293
293
293
293
293
293.008
293.088
293.389
293.937
294.58
295.175
295.656
296.014
296.264
296.424
296.519
296.571
296.598
296.617
296.637
296.668
296.719
296.813
297.002
297.38
298.076
299.186
300.686
302.405
304.159
305.906
307.785
309.905
311.991
313.529
314.68
316.528
320.602
328.916
335.159
335.712
320.142
304.333
290.823
277.803
277.729
283.562
293.093
301.628
308.596
313.267
316.514
319.133
321.406
322.682
323.742
324.946
325.949
327.643
328.57
329.283
329.824
330.235
330.581
330.876
331.205
331.479
331.501
331.403
331.299
330.576
329.745
329.426
329.499
329.786
330.716
331.423
331.863
332.045
332.131
332.235
332.365
332.112
331.632
330.527
328.704
325.956
321.767
316.13
293
293
293
293
293
293
293
293
293
293
293
293
293
293
293
293
293.006
293.076
293.355
293.883
294.519
295.114
295.601
295.966
296.222
296.389
296.488
296.541
296.568
296.584
296.6
296.624
296.665
296.742
296.9
297.226
297.837
298.832
300.206
301.822
303.501
305.164
306.908
308.843
310.781
312.256
313.287
314.626
317.258
323.915
330.465
332.406
318.108
302.462
290.509
277.069
276.642
282.795
291.6
300.251
305.402
308.787
310.396
310.975
311.558
311.932
312.581
313.605
314.966
316.718
318.469
319.756
320.907
321.85
322.43
322.674
322.7
322.641
322.235
321.65
320.914
319.916
319.176
318.878
319.091
319.662
320.668
321.429
321.864
321.923
321.898
293
293
293
293
293
293
293
293
293
293
293
293
293
293
293
293
293
293.005
293.064
293.319
293.824
294.45
295.046
295.538
295.911
296.174
296.348
296.452
296.508
296.534
296.548
296.559
296.577
296.607
296.667
296.795
297.066
297.591
298.468
299.706
301.199
302.785
304.361
305.973
307.714
309.47
310.857
311.774
312.644
313.844
318.173
324.494
327.738
318.116
304.045
294.035
281.598
280.889
288.401
293
293
293
293
293
293
293
293
293
293
293
293
293
293
293
293
293
293.003
293.053
293.281
293.76
294.374
294.97
295.467
295.848
296.12
296.302
296.412
296.471
296.497
296.508
296.515
296.525
296.546
296.589
296.686
296.904
297.343
298.097
299.193
300.547
302.019
303.496
304.979
306.528
308.083
309.359
310.174
310.634
310.683
312.334
317.121
320.26
316.891
305.522
297.06
286.359
293
293
293
293
293
293
293
293
293
293
293
293
293
293
293
293
293
293.002
293.042
293.242
293.692
294.29
294.885
295.388
295.777
296.059
296.249
296.366
296.429
296.457
296.465
296.467
296.47
296.48
296.508
296.577
296.743
297.095
297.727
298.674
299.877
301.216
302.579
303.931
305.297
306.645
307.775
308.442
308.628
307.947
307.367
309.369
313.023
310.703
303.928
298.353
293
293
293
293
293
293
293
293
293
293
293
293
293
293
293
293
293
293.002
293.032
293.203
293.619
294.199
294.79
295.299
295.697
295.989
296.189
296.314
296.383
296.412
296.418
296.415
296.41
296.411
296.424
296.468
296.586
296.854
297.361
298.156
299.203
300.396
301.626
302.84
304.032
305.176
306.13
306.66
306.718
305.636
303.61
302.546
303.392
304.24
301.129
296.192
293
293
293
293
293
293
293
293
293
293
293
293
293
293
293
293
293
293.001
293.023
293.165
293.543
294.1
294.686
295.2
295.608
295.91
296.12
296.255
296.331
296.362
296.367
296.359
296.347
296.338
296.339
296.361
296.436
296.624
297.008
297.648
298.533
299.574
300.663
301.73
302.752
303.7
304.474
304.889
304.878
303.763
301.181
298.322
296.218
294.82
293.172
292.489
293
293
293
293
293
293
293
293
293
293
293
293
293
293
293
293
293
293.001
293.015
293.129
293.464
293.993
294.571
295.09
295.507
295.821
296.043
296.188
296.271
296.307
296.311
296.3
296.281
296.262
296.251
296.255
296.293
296.41
296.677
297.162
297.881
298.767
299.711
300.63
301.485
302.25
302.854
303.169
303.113
302.126
299.75
296.524
293.083
289.838
286.5
284.353
293
293
293
293
293
293
293
293
293
293
293
293
293
293
293
293
293
293
293.01
293.096
293.385
293.879
294.446
294.968
295.395
295.72
295.955
296.112
296.204
296.244
296.251
296.237
296.212
296.185
296.162
296.151
296.159
296.215
296.376
296.712
297.262
297.987
298.789
299.567
300.268
300.866
301.316
301.541
301.447
300.603
298.685
295.96
292.655
289.005
285.375
282.494
293
293
293
293
293
293
293
293
293
293
293
293
293
293
293
293
293
293
293.006
293.067
293.307
293.76
294.31
294.833
295.27
295.608
295.855
296.025
296.127
296.175
296.184
296.17
296.142
296.106
296.073
296.046
296.031
296.039
296.111
296.312
296.695
297.254
297.911
298.559
299.128
299.585
299.901
300.046
299.913
299.192
297.736
295.651
292.966
289.808
286.586
283.625
293
293
293
293
293
293
293
293
293
293
293
293
293
293
293
293
293
293
293.003
293.044
293.233
293.637
294.164
294.686
295.132
295.482
295.743
295.926
296.04
296.097
296.111
296.099
296.069
296.028
295.985
295.943
295.905
295.88
295.887
295.972
296.201
296.591
297.094
297.616
298.077
298.428
298.643
298.723
298.552
297.927
296.845
295.323
293.33
290.982
288.519
286.175
293
293
293
293
293
293
293
293
293
293
293
293
293
293
293
293
293
293
293.001
293.026
293.166
293.514
294.009
294.525
294.979
295.342
295.617
295.814
295.942
296.009
296.03
296.021
295.993
295.949
295.898
295.844
295.787
295.73
295.693
295.7
295.795
296.024
296.366
296.756
297.118
297.394
297.549
297.585
297.397
296.854
296.036
294.942
293.514
291.861
290.139
288.523
293
293
293
293
293
293
293
293
293
293
293
293
293
293
293
293
293
293
293
293.013
293.109
293.393
293.847
294.351
294.81
295.187
295.477
295.688
295.83
295.911
295.94
295.937
295.912
295.868
295.812
295.749
295.676
295.596
295.52
295.476
295.483
295.571
295.757
296.007
296.266
296.478
296.598
296.619
296.45
295.996
295.355
294.556
293.547
292.387
291.194
290.082
293
293
293
293
293
293
293
293
293
293
293
293
293
293
293
293
293
293
293
293.006
293.065
293.282
293.681
294.165
294.627
295.016
295.321
295.548
295.705
295.799
295.84
295.845
295.825
295.784
295.726
295.656
295.573
295.477
295.374
295.287
295.238
295.236
295.289
295.4
295.547
295.688
295.777
295.796
295.671
295.319
294.822
294.221
293.504
292.689
291.852
291.061
293
293
293
293
293
293
293
293
293
293
293
293
293
293
293
293
293
293
293
293.002
293.033
293.184
293.518
293.969
294.428
294.828
295.148
295.391
295.564
295.674
295.729
295.743
295.731
295.696
295.64
295.567
295.476
295.368
295.251
295.139
295.049
294.986
294.954
294.955
294.989
295.045
295.093
295.1
295.015
294.776
294.409
293.955
293.434
292.859
292.268
291.701
293
293
293
293
293
293
293
293
293
293
293
293
293
293
293
293
293
293
293
293.001
293.014
293.106
293.365
293.768
294.215
294.622
294.958
295.217
295.407
295.534
295.606
295.631
295.628
295.602
295.552
295.48
295.385
295.269
295.142
295.017
294.906
294.809
294.725
294.653
294.601
294.574
294.563
294.543
294.477
294.324
294.07
293.741
293.362
292.95
292.528
292.119
293
293
293
293
293
293
293
293
293
293
293
293
293
293
293
293
293
293
293
293
293.005
293.052
293.231
293.569
293.99
294.4
294.749
295.026
295.233
295.378
295.467
295.508
295.515
295.499
295.459
295.393
295.3
295.18
295.045
294.913
294.791
294.68
294.573
294.465
294.36
294.271
294.201
294.142
294.07
293.96
293.791
293.563
293.294
292.996
292.691
292.392
293
293
293
293
293
293
293
293
293
293
293
293
293
293
293
293
293
293
293
293
293.001
293.02
293.125
293.383
293.759
294.161
294.522
294.816
295.042
295.205
295.312
295.371
295.39
295.384
295.358
295.304
295.219
295.101
294.962
294.822
294.694
294.579
294.467
294.349
294.226
294.105
293.996
293.899
293.808
293.708
293.583
293.423
293.232
293.024
292.804
292.585
293
293
293
293
293
293
293
293
293
293
293
293
293
293
293
293
293
293
293
293
293
293.006
293.055
293.225
293.534
293.911
294.276
294.587
294.832
295.014
295.141
295.218
295.253
295.259
295.245
295.207
295.138
295.03
294.891
294.745
294.611
294.491
294.381
294.27
294.151
294.026
293.904
293.789
293.682
293.578
293.468
293.346
293.209
293.06
292.902
292.742
293
293
293
293
293
293
293
293
293
293
293
293
293
293
293
293
293
293
293
293
293
293.001
293.018
293.107
293.329
293.657
294.014
294.339
294.603
294.806
294.952
295.049
295.103
295.122
295.12
295.099
295.05
294.962
294.834
294.686
294.543
294.416
294.305
294.201
294.095
293.983
293.869
293.757
293.65
293.547
293.446
293.343
293.233
293.118
293
292.881
293
293
293
293
293
293
293
293
293
293
293
293
293
293
293
293
293
293
293
293
293
293
293.004
293.038
293.166
293.418
293.743
294.07
294.354
294.578
294.746
294.863
294.936
294.973
294.983
294.975
294.948
294.887
294.783
294.644
294.496
294.36
294.241
294.137
294.039
293.943
293.845
293.748
293.653
293.562
293.474
293.386
293.296
293.203
293.11
293.017
293
293
293
293
293
293
293
293
293
293
293
293
293
293
293
293
293
293
293
293
293
293
293
293.008
293.062
293.218
293.479
293.788
294.083
294.33
294.521
294.66
294.753
294.809
294.835
294.839
294.828
294.795
294.725
294.611
294.47
294.328
294.198
294.085
293.984
293.894
293.81
293.73
293.651
293.575
293.503
293.435
293.368
293.298
293.226
293.152
293
293
293
293
293
293
293
293
293
293
293
293
293
293
293
293
293
293
293
293
293
293
293
293.001
293.015
293.083
293.252
293.507
293.793
294.058
294.275
294.439
294.554
294.63
294.673
294.691
294.692
294.68
294.644
294.57
294.453
294.318
294.185
294.062
293.952
293.855
293.769
293.693
293.626
293.564
293.507
293.455
293.406
293.359
293.311
293.26
293
293
293
293
293
293
293
293
293
293
293
293
293
293
293
293
293
293
293
293
293
293
293
293
293.002
293.02
293.095
293.262
293.501
293.763
294.002
294.195
294.338
294.436
294.499
294.532
294.545
294.545
294.533
294.498
294.424
294.313
294.19
294.068
293.953
293.846
293.751
293.668
293.598
293.538
293.487
293.443
293.405
293.372
293.34
293.308
293
293
293
293
293
293
293
293
293
293
293
293
293
293
293
293
293
293
293
293
293
293
293
293
293
293.002
293.021
293.094
293.248
293.465
293.703
293.92
294.096
294.224
294.31
294.363
294.39
294.4
294.399
294.389
294.357
294.289
294.192
294.084
293.976
293.869
293.768
293.675
293.594
293.525
293.468
293.423
293.386
293.355
293.329
293.307
293
293
293
293
293
293
293
293
293
293
293
293
293
293
293
293
293
293
293
293
293
293
293
293
293
293
293.002
293.019
293.082
293.214
293.404
293.618
293.817
293.98
294.1
294.18
294.228
294.251
294.259
294.258
294.249
294.221
294.163
294.084
293.995
293.903
293.81
293.718
293.629
293.548
293.478
293.419
293.373
293.337
293.31
293.288
293
293
293
293
293
293
293
293
293
293
293
293
293
293
293
293
293
293
293
293
293
293
293
293
293
293
293
293.002
293.014
293.062
293.166
293.325
293.513
293.696
293.851
293.968
294.047
294.094
294.117
294.124
294.123
294.115
294.09
294.046
293.985
293.915
293.84
293.763
293.686
293.609
293.533
293.464
293.402
293.351
293.31
293.278
293
293
293
293
293
293
293
293
293
293
293
293
293
293
293
293
293
293
293
293
293
293
293
293
293
293
293
293
293.001
293.008
293.039
293.114
293.238
293.395
293.56
293.709
293.827
293.909
293.961
293.988
293.997
293.997
293.989
293.968
293.935
293.891
293.837
293.779
293.719
293.657
293.595
293.533
293.473
293.416
293.364
293.319
293
293
293
293
293
293
293
293
293
293
293
293
293
293
293
293
293
293
293
293
293
293
293
293
293
293
293
293
293
293
293.004
293.021
293.067
293.153
293.276
293.417
293.556
293.674
293.764
293.825
293.86
293.876
293.879
293.873
293.857
293.831
293.799
293.76
293.715
293.669
293.622
293.574
293.526
293.479
293.433
293.389
293
293
293
293
293
293
293
293
293
293
293
293
293
293
293
293
293
293
293
293
293
293
293
293
293
293
293
293
293
293
293
293.001
293.009
293.032
293.083
293.167
293.277
293.397
293.512
293.608
293.68
293.728
293.755
293.766
293.766
293.756
293.738
293.713
293.684
293.65
293.614
293.577
293.541
293.505
293.469
293.434
293
293
293
293
293
293
293
293
293
293
293
293
293
293
293
293
293
293
293
293
293
293
293
293
293
293
293
293
293
293
293
293
293
293.003
293.012
293.036
293.084
293.157
293.248
293.348
293.443
293.523
293.585
293.627
293.651
293.661
293.661
293.652
293.635
293.613
293.588
293.56
293.531
293.502
293.472
293.444
293
293
293
293
293
293
293
293
293
293
293
293
293
293
293
293
293
293
293
293
293
293
293
293
293
293
293
293
293
293
293
293
293
293
293.001
293.003
293.012
293.033
293.071
293.128
293.2
293.28
293.359
293.428
293.483
293.523
293.549
293.562
293.564
293.56
293.548