/*--------------------------------*- C++ -*----------------------------------*\
| =========                 |                                                 |
| \\      /  F ield         | OpenFOAM: The Open Source CFD Toolbox           |
|  \\    /   O peration     | Version:  2406                                  |
|   \\  /    A nd           | Website:  www.openfoam.com                      |
|    \\/     M anipulation  |                                                 |
\*---------------------------------------------------------------------------*/
FoamFile
{
    version     2.0;
    format      ascii;
    arch        "LSB;label=32;scalar=64";
    class       volVectorField;
    location    "0.085";
    object      U;
}
// * * * * * * * * * * * * * * * * * * * * * * * * * * * * * * * * * * * * * //

dimensions      [0 1 -1 0 0 0 0];

internalField   nonuniform List<vector> 
14020
(
(318.375 4.81923e-06 5.55772e-05)
(318.375 4.13126e-06 5.4657e-05)
(318.376 1.93768e-06 5.2797e-05)
(318.375 1.10381e-07 5.04391e-05)
(318.375 -4.23975e-07 4.82745e-05)
(318.375 -5.5183e-06 4.46368e-05)
(318.374 -1.01209e-05 3.95159e-05)
(318.373 -4.3005e-06 3.48866e-05)
(318.371 -3.52934e-07 3.00522e-05)
(318.368 -3.78246e-06 2.46888e-05)
(318.366 -1.28617e-06 2.03115e-05)
(318.364 1.36545e-06 1.68902e-05)
(318.362 9.53204e-07 1.02202e-05)
(318.361 2.11555e-06 3.59345e-06)
(318.359 7.931e-06 -3.85336e-06)
(318.357 4.44873e-06 -1.01841e-05)
(318.353 -4.82765e-06 -1.89796e-05)
(318.349 2.56726e-06 -2.4257e-05)
(318.345 6.44194e-06 -2.82786e-05)
(318.341 -6.02129e-06 -3.35435e-05)
(318.338 -1.24236e-05 -3.69436e-05)
(318.336 -1.02513e-05 -3.70868e-05)
(318.335 -1.25321e-05 -3.52342e-05)
(318.335 -1.34574e-05 -3.42173e-05)
(318.333 -1.30278e-05 -3.15853e-05)
(318.33 -1.74828e-05 -2.64016e-05)
(318.327 -1.16196e-05 -2.04199e-05)
(318.326 2.70656e-06 -1.5113e-05)
(318.327 -1.07729e-06 -8.38425e-06)
(318.33 -5.58271e-06 -5.79738e-07)
(318.334 -8.82526e-06 1.14741e-05)
(318.337 4.78492e-06 1.19131e-05)
(318.338 1.67233e-05 1.4262e-05)
(318.335 -4.69283e-06 2.09144e-05)
(318.333 -6.07982e-06 2.1629e-05)
(318.331 5.5655e-06 1.93656e-05)
(318.331 -1.22524e-06 1.87157e-05)
(318.331 -1.20311e-05 1.77448e-05)
(318.332 1.81029e-06 1.22445e-05)
(318.334 2.92977e-05 6.60458e-06)
(318.333 1.87473e-05 2.9805e-06)
(318.332 -2.2419e-05 -3.19661e-06)
(318.33 -5.13725e-06 -1.29121e-05)
(318.329 2.66931e-05 -2.16601e-05)
(318.329 1.99053e-05 -2.9544e-05)
(318.33 6.79673e-06 -3.70817e-05)
(318.331 5.14173e-06 -4.40617e-05)
(318.333 6.68127e-06 -4.84481e-05)
(318.336 4.16174e-06 -5.28415e-05)
(318.338 -8.87432e-06 -5.87585e-05)
(318.341 -1.77646e-05 -6.41496e-05)
(318.343 5.50266e-06 -6.81847e-05)
(318.343 2.32265e-05 -7.08796e-05)
(318.343 5.00755e-06 -7.06094e-05)
(318.345 -2.32004e-06 -6.87595e-05)
(318.347 1.45766e-06 -6.81947e-05)
(318.349 5.24616e-06 -6.71494e-05)
(318.348 1.20004e-06 -6.42382e-05)
(318.347 -4.35229e-06 -6.06036e-05)
(318.347 -6.1133e-06 -5.78793e-05)
(318.347 3.88901e-06 -5.48346e-05)
(318.347 1.50968e-05 -5.1009e-05)
(318.346 -6.32759e-06 -4.46101e-05)
(318.346 -3.16835e-05 -3.9429e-05)
(318.348 -1.38847e-05 -3.65929e-05)
(318.349 2.6249e-05 -3.34569e-05)
(318.349 9.10469e-06 -2.95449e-05)
(318.349 -4.74749e-06 -2.67665e-05)
(318.35 4.00038e-06 -2.54552e-05)
(318.35 7.60917e-06 -2.45562e-05)
(318.35 -8.79625e-06 -2.19324e-05)
(318.35 -2.29785e-05 -1.92755e-05)
(318.351 7.9472e-06 -1.89838e-05)
(318.352 2.02844e-05 -1.82777e-05)
(318.352 -7.29381e-06 -1.63386e-05)
(318.353 -1.99663e-05 -1.51501e-05)
(318.354 -1.44082e-05 -1.48281e-05)
(318.356 -1.72914e-05 -1.42298e-05)
(318.357 -1.09971e-05 -1.4056e-05)
(318.36 -9.79747e-06 -1.37e-05)
(318.363 -1.31006e-05 -1.30197e-05)
(318.364 -8.51941e-06 -1.28146e-05)
(318.363 5.18908e-05 -1.48405e-05)
(318.362 3.94009e-05 -1.41959e-05)
(318.361 -4.62459e-05 -1.01994e-05)
(318.36 -6.64784e-05 -8.60654e-06)
(318.359 1.04791e-05 -1.1125e-05)
(318.358 4.77965e-05 -1.20599e-05)
(318.358 1.3418e-05 -8.87954e-06)
(318.359 5.83283e-06 -7.43142e-06)
(318.359 1.66342e-05 -7.34398e-06)
(318.358 3.33555e-05 -7.19e-06)
(318.358 1.14328e-05 -5.72693e-06)
(318.359 -5.22528e-05 -1.98467e-06)
(318.362 -3.04997e-05 -3.3395e-06)
(318.364 3.09652e-05 -5.02871e-06)
(318.367 7.11677e-06 -4.13214e-06)
(318.37 -3.88843e-05 -2.82023e-06)
(318.372 8.93777e-07 -3.54615e-06)
(318.371 3.04643e-05 -4.43483e-06)
(318.369 8.17737e-06 -3.91121e-06)
(318.369 8.9262e-06 -4.75979e-06)
(318.369 3.00263e-05 -6.21468e-06)
(318.368 3.55159e-05 -7.56573e-06)
(318.368 -8.34719e-05 -4.87134e-06)
(318.368 -0.000138972 -8.58122e-07)
(318.368 -3.17766e-05 -4.30253e-06)
(318.367 2.31182e-05 -5.79553e-06)
(318.365 3.92412e-05 -4.84335e-06)
(318.366 3.14219e-05 1.54776e-06)
(318.367 9.34489e-06 4.83024e-07)
(318.369 9.23023e-06 3.34654e-06)
(318.369 2.1427e-05 7.34142e-06)
(318.369 2.40073e-05 1.19625e-05)
(318.37 -7.87408e-06 2.92144e-05)
(318.371 -4.59054e-05 4.75975e-05)
(318.37 -5.22247e-05 5.92216e-05)
(318.369 -1.94513e-05 3.32319e-05)
(318.37 1.15662e-05 9.6256e-08)
(318.371 -4.8279e-05 -1.39069e-05)
(318.374 -3.5502e-05 -4.18916e-05)
(318.374 6.13304e-05 -3.48094e-06)
(318.376 8.04184e-05 2.89548e-05)
(318.378 5.4639e-05 7.93478e-05)
(318.378 1.9685e-05 0.00013381)
(318.377 7.73298e-06 0.00015449)
(318.377 9.63113e-05 0.000114923)
(318.376 3.92995e-05 1.82153e-05)
(318.376 9.2888e-05 -8.84928e-05)
(318.375 7.74943e-05 -0.000192593)
(318.375 -0.000110389 -0.000134252)
(318.377 -0.000151233 -0.000106875)
(318.376 -5.46565e-05 4.54836e-06)
(318.377 -0.00015412 0.000115422)
(318.376 -0.000277901 0.000154522)
(318.379 -0.000331391 0.000142135)
(318.377 -0.00014056 2.31958e-05)
(318.378 -0.00016562 -8.1658e-05)
(318.376 -9.92698e-05 -0.000147437)
(318.38 0.000210467 -0.000228743)
(318.38 0.00010786 0.000131526)
(318.381 -0.000836031 0.000992164)
(318.378 -0.00160662 0.00183957)
(318.381 -0.0035295 0.0027784)
(318.381 -0.00620473 0.00337821)
(318.386 -0.0127826 0.00379846)
(318.39 -0.0184368 0.002233)
(318.398 -0.029686 0.000286902)
(318.418 -0.0435584 -0.00281219)
(318.433 -0.0611305 -0.00619878)
(318.449 -0.082572 -0.00934662)
(318.459 -0.106269 -0.0111465)
(318.479 -0.137806 -0.00935315)
(318.486 -0.169191 -0.00546878)
(318.506 -0.195993 -3.58068e-06)
(318.553 -0.227945 0.0093918)
(318.751 -0.257014 0.0194809)
(319.225 -0.264467 0.0251351)
(320.016 -0.253286 0.026185)
(321.021 -0.231996 0.0241217)
(322.126 -0.185608 0.0159853)
(323.262 -0.0995161 -0.00305882)
(324.4 0.0149601 -0.0288259)
(325.53 0.135412 -0.0521775)
(326.647 0.248096 -0.0716128)
(327.749 0.351977 -0.0910612)
(328.827 0.448407 -0.11207)
(329.883 0.500491 -0.12762)
(330.929 0.487984 -0.131951)
(331.93 0.417702 -0.121596)
(332.975 0.295982 -0.0888598)
(334.093 0.16518 -0.0480334)
(335.106 0.0729695 -0.022329)
(336.245 0.0436002 -0.0156226)
(337.372 0.0423679 -0.0153729)
(338.503 0.0397668 -0.0126335)
(339.629 0.0365993 -0.0109209)
(340.755 0.0332221 -0.0154962)
(341.88 0.0277976 -0.015135)
(343.005 0.0203887 -0.00431672)
(344.125 0.0161724 -0.000225311)
(345.233 0.01488 -0.00856183)
(346.326 0.0110749 -0.00937599)
(347.404 0.00546149 0.00262834)
(348.469 0.0042132 0.00723285)
(349.525 0.00538243 -0.00297125)
(350.58 0.00350709 -0.0080053)
(351.639 0.000255797 0.00267832)
(352.71 -0.00027166 0.0108678)
(353.793 0.00112268 0.00153083)
(354.89 0.00190941 -0.00962817)
(355.997 -0.000980759 -0.00143855)
(357.106 -0.00206604 0.0130636)
(358.206 2.6339e-05 0.00727457)
(359.288 0.00202594 -0.00902839)
(360.349 -0.000462418 -0.00730853)
(361.396 -0.00120685 0.00836307)
(362.438 -0.000105303 0.0122081)
(363.482 0.000724538 -0.00226031)
(364.537 0.00114912 -0.0138297)
(365.606 0.000212928 -0.00140051)
(366.693 -0.0012731 0.0178244)
(367.798 -0.000211953 0.0106009)
(368.914 0.00169346 -0.0148853)
(370.032 0.000853755 -0.01614)
(371.135 -0.00142704 0.00855066)
(372.221 -0.000898961 0.0193385)
(373.281 0.000447418 0.00058914)
(374.331 0.000729937 -0.014491)
(375.377 -7.13502e-05 -0.00799596)
(376.426 -0.000306865 0.0100465)
(377.485 -0.000196508 0.0141305)
(378.555 -0.000562272 -0.00406801)
(379.642 -0.000249175 -0.0134333)
(380.744 0.00068296 -0.00619114)
(381.854 0.000680886 0.00896456)
(382.968 -0.000695858 0.00732895)
(384.069 -0.000523387 -0.00202579)
(385.135 0.000377584 -0.00485296)
(386.186 0.00110154 -0.00312118)
(387.234 0.000929089 0.00318271)
(388.279 1.6018e-05 0.00440287)
(389.326 -0.000167145 5.42263e-05)
(390.373 0.000642172 -0.0036421)
(391.421 0.00168907 -0.00346977)
(392.472 0.00213413 0.00040185)
(393.525 0.00128737 0.00253295)
(394.578 0.000873343 0.000936054)
(395.634 0.00058456 -0.00146892)
(396.79 0.00244281 -0.00139472)
(398.989 -0.00451343 -0.000574198)
(318.375 5.4941e-06 5.5465e-05)
(318.375 4.39883e-06 5.45358e-05)
(318.376 2.14149e-06 5.26767e-05)
(318.375 6.39069e-07 5.04316e-05)
(318.375 2.18449e-07 4.83791e-05)
(318.375 -6.32565e-06 4.51158e-05)
(318.374 -1.21585e-05 3.99027e-05)
(318.373 -8.57601e-07 3.48802e-05)
(318.371 3.76582e-06 2.99423e-05)
(318.368 -6.40037e-06 2.4694e-05)
(318.366 -4.13134e-06 2.03477e-05)
(318.364 7.95665e-07 1.67386e-05)
(318.362 3.58285e-06 9.99196e-06)
(318.361 4.47159e-06 3.41225e-06)
(318.359 7.94237e-06 -3.79341e-06)
(318.357 1.67586e-06 -1.01129e-05)
(318.353 -5.69091e-06 -1.89053e-05)
(318.349 9.63475e-06 -2.4518e-05)
(318.345 1.32367e-05 -2.83376e-05)
(318.341 -1.35904e-05 -3.31811e-05)
(318.338 -1.73255e-05 -3.68131e-05)
(318.336 -6.48976e-06 -3.71106e-05)
(318.335 -1.23013e-05 -3.49168e-05)
(318.335 -1.50413e-05 -3.38898e-05)
(318.333 -1.25249e-05 -3.12533e-05)
(318.33 -1.35493e-05 -2.62874e-05)
(318.327 -9.17378e-06 -2.03489e-05)
(318.326 4.1742e-06 -1.50977e-05)
(318.327 -3.99999e-06 -8.42259e-06)
(318.33 -1.59462e-05 -7.30028e-08)
(318.334 -1.53256e-05 1.17238e-05)
(318.337 2.26029e-05 1.16161e-05)
(318.338 3.89063e-05 1.38635e-05)
(318.335 -1.75363e-05 2.1294e-05)
(318.333 -3.54279e-05 2.23579e-05)
(318.331 4.7659e-06 1.92449e-05)
(318.331 1.3583e-05 1.7936e-05)
(318.331 4.20777e-06 1.69846e-05)
(318.332 1.25806e-05 1.16792e-05)
(318.334 2.28327e-05 6.65477e-06)
(318.333 4.99592e-07 3.07324e-06)
(318.332 -5.45191e-05 -2.27757e-06)
(318.33 -4.84607e-06 -1.31122e-05)
(318.329 5.51553e-05 -2.30233e-05)
(318.329 3.81229e-05 -3.02805e-05)
(318.33 7.34671e-06 -3.69394e-05)
(318.331 -3.11878e-06 -4.34768e-05)
(318.333 -1.01522e-06 -4.78695e-05)
(318.336 -2.64474e-07 -5.22058e-05)
(318.338 -1.67264e-05 -5.86302e-05)
(318.341 -1.80828e-05 -6.28464e-05)
(318.343 2.22397e-05 -6.7178e-05)
(318.343 4.22289e-05 -7.03848e-05)
(318.343 -1.00418e-05 -6.91039e-05)
(318.345 -1.90751e-05 -6.77848e-05)
(318.347 -2.69142e-06 -6.77728e-05)
(318.349 1.14589e-05 -6.73e-05)
(318.348 4.91278e-06 -6.43293e-05)
(318.347 -1.3212e-06 -6.03946e-05)
(318.347 -2.37993e-06 -5.76658e-05)
(318.347 9.81089e-06 -5.46486e-05)
(318.347 6.7675e-06 -5.02113e-05)
(318.346 -2.29767e-05 -4.40329e-05)
(318.346 -5.92757e-05 -3.8342e-05)
(318.348 -1.3497e-05 -3.63192e-05)
(318.349 7.33735e-05 -3.52283e-05)
(318.349 3.95507e-05 -3.05772e-05)
(318.349 -2.5791e-05 -2.60299e-05)
(318.35 -2.68709e-05 -2.42645e-05)
(318.35 -1.05894e-05 -2.39624e-05)
(318.35 -2.94935e-06 -2.15747e-05)
(318.35 -5.34996e-06 -1.96049e-05)
(318.351 2.79998e-05 -1.9908e-05)
(318.352 2.34412e-05 -1.85808e-05)
(318.352 -2.71319e-05 -1.56628e-05)
(318.353 -3.67617e-05 -1.46161e-05)
(318.354 -2.84984e-06 -1.47534e-05)
(318.356 -8.14062e-06 -1.42916e-05)
(318.357 -1.35893e-05 -1.35778e-05)
(318.36 -1.09435e-05 -1.32945e-05)
(318.363 3.01982e-06 -1.31019e-05)
(318.364 6.77648e-06 -1.31549e-05)
(318.363 5.12617e-05 -1.46917e-05)
(318.362 -2.71276e-06 -1.30629e-05)
(318.361 -9.93577e-05 -7.98002e-06)
(318.36 -7.03142e-05 -8.1408e-06)
(318.359 7.505e-05 -1.35277e-05)
(318.358 8.69613e-05 -1.37659e-05)
(318.358 1.87455e-05 -9.10485e-06)
(318.359 -8.868e-06 -6.78125e-06)
(318.359 -1.0048e-05 -6.19437e-06)
(318.358 5.50296e-06 -5.92314e-06)
(318.358 -6.81054e-06 -5.0447e-06)
(318.359 -5.15207e-05 -1.5423e-06)
(318.362 1.50082e-06 -4.57961e-06)
(318.364 6.53953e-05 -6.45255e-06)
(318.367 -7.99832e-06 -3.79794e-06)
(318.37 -6.27351e-05 -1.86307e-06)
(318.371 6.96132e-05 -5.71956e-06)
(318.371 8.4121e-05 -6.40806e-06)
(318.369 1.09018e-05 -4.02953e-06)
(318.369 -4.57094e-05 -2.88764e-06)
(318.369 -6.55158e-05 -3.26772e-06)
(318.368 -3.04035e-05 -5.35488e-06)
(318.368 -0.000111856 -3.50779e-06)
(318.368 -7.94189e-05 -2.57743e-06)
(318.368 4.15093e-05 -6.93176e-06)
(318.367 6.57478e-05 -7.80572e-06)
(318.365 4.65568e-05 -6.02693e-06)
(318.366 5.8516e-05 2.27706e-07)
(318.367 1.24788e-05 -1.97297e-07)
(318.369 -2.99522e-05 4.12101e-06)
(318.369 -1.8354e-06 7.19676e-06)
(318.369 2.75349e-05 1.08011e-05)
(318.37 5.93872e-06 2.80013e-05)
(318.371 -3.27991e-05 4.67162e-05)
(318.37 -5.42498e-05 5.76457e-05)
(318.369 -3.48169e-05 3.21957e-05)
(318.37 -3.8938e-05 5.40949e-07)
(318.371 -0.000154926 -8.33933e-06)
(318.374 -9.75074e-05 -4.25705e-05)
(318.374 9.95653e-05 -4.36713e-06)
(318.376 0.00011201 2.93245e-05)
(318.378 6.07312e-05 8.04758e-05)
(318.378 3.70184e-05 0.000131593)
(318.377 8.11187e-05 0.000147739)
(318.377 0.000258352 0.000107374)
(318.376 0.000174896 1.0952e-05)
(318.376 0.000186849 -9.20664e-05)
(318.375 3.99442e-06 -0.000191194)
(318.375 -0.000183479 -0.000132698)
(318.377 -0.000142713 -0.000104786)
(318.376 -4.34301e-05 1.95441e-06)
(318.377 -0.000329721 0.000119443)
(318.376 -0.000486678 0.000162281)
(318.379 -0.000441204 0.000145601)
(318.377 -9.86077e-05 2.22602e-05)
(318.378 -0.000118331 -8.2064e-05)
(318.376 -4.11331e-05 -0.000140422)
(318.38 0.000118924 -0.000219814)
(318.38 1.90386e-05 0.000145367)
(318.381 -0.000912874 0.00101237)
(318.379 -0.00143325 0.00184641)
(318.382 -0.00344672 0.00273722)
(318.382 -0.00546433 0.00331202)
(318.387 -0.0119893 0.00372799)
(318.391 -0.0168522 0.00207654)
(318.401 -0.0274094 0.000119609)
(318.422 -0.0420098 -0.00299014)
(318.439 -0.0582424 -0.00620154)
(318.458 -0.0779593 -0.00916978)
(318.472 -0.100667 -0.0107671)
(318.499 -0.131848 -0.00884829)
(318.514 -0.16444 -0.00496897)
(318.543 -0.194814 0.000109093)
(318.601 -0.228545 0.00879303)
(318.814 -0.258679 0.0181948)
(319.304 -0.26878 0.0232348)
(320.113 -0.260127 0.0240051)
(321.139 -0.240184 0.0219821)
(322.268 -0.196489 0.0141211)
(323.428 -0.116422 -0.00419315)
(324.589 -0.00637909 -0.0289897)
(325.737 0.115872 -0.0520534)
(326.865 0.235757 -0.0726694)
(327.97 0.342367 -0.0930149)
(329.041 0.432563 -0.113036)
(330.075 0.489495 -0.127113)
(331.079 0.481229 -0.130622)
(332.037 0.398113 -0.119453)
(333.045 0.268458 -0.0860181)
(334.137 0.161154 -0.0466609)
(335.138 0.0792973 -0.0224397)
(336.254 0.0421049 -0.0153933)
(337.377 0.0407689 -0.0150731)
(338.506 0.0385031 -0.0125491)
(339.631 0.0349773 -0.0110263)
(340.754 0.0314372 -0.0149437)
(341.879 0.0262896 -0.0141322)
(343.004 0.019089 -0.00403268)
(344.124 0.0150783 -0.00100374)
(345.232 0.0141033 -0.00821885)
(346.326 0.0111303 -0.00823045)
(347.404 0.00601134 0.00294698)
(348.469 0.004731 0.00649746)
(349.525 0.00554597 -0.00318857)
(350.579 0.00365957 -0.00704474)
(351.639 0.00058955 0.0032122)
(352.709 -0.000380464 0.010205)
(353.793 0.000326059 0.000855308)
(354.89 0.000761168 -0.00911912)
(355.996 -0.00170249 -0.000665419)
(357.105 -0.00305419 0.012772)
(358.205 -0.000973403 0.00657903)
(359.287 0.00117433 -0.00896061)
(360.348 -0.000932753 -0.00660682)
(361.395 -0.00125135 0.00857159)
(362.438 -0.000164795 0.0116317)
(363.482 0.000561389 -0.00271008)
(364.536 0.00121938 -0.0133541)
(365.605 0.000365014 -0.000771838)
(366.693 -0.00112059 0.0176288)
(367.798 0.000244078 0.00976442)
(368.914 0.00172553 -0.0151017)
(370.031 0.000580755 -0.015176)
(371.134 -0.000903591 0.00919663)
(372.221 -0.000772468 0.0188475)
(373.28 0.000388369 -0.000206807)
(374.331 0.000830095 -0.0144244)
(375.376 -0.000130009 -0.00740068)
(376.425 -0.000466824 0.0105258)
(377.484 -0.000116643 0.0135051)
(378.555 -0.000652998 -0.00479753)
(379.642 -0.00071129 -0.0132969)
(380.743 0.000449746 -0.0056385)
(381.853 0.000553661 0.00936262)
(382.967 -0.000657387 0.00708617)
(384.068 -0.000418952 -0.00220073)
(385.135 0.000453712 -0.00483659)
(386.186 0.00120717 -0.00297812)
(387.234 0.000986724 0.00326281)
(388.279 8.75636e-05 0.00431163)
(389.325 -5.97951e-05 -0.000156954)
(390.373 0.000706296 -0.00379087)
(391.421 0.00164029 -0.00341114)
(392.471 0.00203677 0.000529312)
(393.525 0.00116299 0.00259414)
(394.578 0.000630161 0.000942242)
(395.634 0.000510335 -0.00147458)
(396.791 0.00156089 -0.00136369)
(398.988 -0.00433369 -0.000542671)
(318.375 5.12889e-06 5.48654e-05)
(318.375 4.05559e-06 5.40484e-05)
(318.376 1.90032e-06 5.23756e-05)
(318.375 5.73612e-07 5.02492e-05)
(318.375 1.13817e-07 4.82968e-05)
(318.375 -7.28725e-06 4.51682e-05)
(318.374 -1.40549e-05 3.97505e-05)
(318.373 2.7788e-06 3.48316e-05)
(318.371 8.40254e-06 2.97238e-05)
(318.368 -9.87379e-06 2.45946e-05)
(318.366 -6.27165e-06 2.01486e-05)
(318.364 2.58558e-06 1.65586e-05)
(318.362 6.30802e-06 9.81315e-06)
(318.361 3.55845e-06 3.59598e-06)
(318.359 6.74073e-06 -3.46962e-06)
(318.357 -1.07995e-06 -9.72268e-06)
(318.353 -6.32046e-06 -1.85865e-05)
(318.349 1.56945e-05 -2.37993e-05)
(318.345 1.59226e-05 -2.78584e-05)
(318.341 -2.33844e-05 -3.2233e-05)
(318.338 -1.98081e-05 -3.56448e-05)
(318.336 -1.89094e-06 -3.60321e-05)
(318.335 -1.34883e-05 -3.38829e-05)
(318.335 -1.71031e-05 -3.27814e-05)
(318.333 -1.03595e-05 -3.02428e-05)
(318.33 -1.06432e-05 -2.51884e-05)
(318.327 -9.56546e-06 -1.93925e-05)
(318.326 2.24018e-06 -1.37089e-05)
(318.327 -4.06845e-06 -6.8878e-06)
(318.33 -2.83636e-05 1.47654e-06)
(318.334 -1.54858e-05 1.18827e-05)
(318.337 4.25657e-05 1.17417e-05)
(318.338 5.47714e-05 1.36345e-05)
(318.335 -3.78805e-05 2.15473e-05)
(318.333 -6.26591e-05 2.24216e-05)
(318.331 1.94658e-05 1.82532e-05)
(318.331 3.59801e-05 1.67353e-05)
(318.331 1.57333e-05 1.59549e-05)
(318.332 5.48629e-06 1.12151e-05)
(318.334 9.80627e-06 7.06309e-06)
(318.333 -1.0332e-05 2.58144e-06)
(318.332 -8.15712e-05 -5.08007e-07)
(318.33 1.98196e-06 -1.33404e-05)
(318.329 8.65933e-05 -2.47298e-05)
(318.329 4.8676e-05 -2.98483e-05)
(318.33 -6.80523e-06 -3.58828e-05)
(318.331 -1.39972e-05 -4.19981e-05)
(318.333 -7.05635e-06 -4.59661e-05)
(318.336 -6.52948e-07 -5.02283e-05)
(318.338 -1.84903e-05 -5.51468e-05)
(318.341 -1.72984e-05 -6.02737e-05)
(318.343 3.9719e-05 -6.42772e-05)
(318.343 4.97746e-05 -6.69312e-05)
(318.343 -2.9079e-05 -6.60192e-05)
(318.345 -3.87604e-05 -6.45628e-05)
(318.347 8.05344e-06 -6.70963e-05)
(318.349 1.92002e-05 -6.5733e-05)
(318.348 7.67198e-06 -6.23557e-05)
(318.347 1.46035e-06 -5.83834e-05)
(318.347 -2.08694e-07 -5.56232e-05)
(318.347 8.9132e-06 -5.19895e-05)
(318.347 5.75832e-07 -4.79618e-05)
(318.346 -3.22202e-05 -4.12439e-05)
(318.346 -8.26024e-05 -3.49203e-05)
(318.348 2.0954e-06 -3.4874e-05)
(318.349 0.00011896 -3.56035e-05)
(318.349 5.73205e-05 -3.07608e-05)
(318.349 -6.56555e-05 -2.36361e-05)
(318.35 -5.16312e-05 -2.24277e-05)
(318.35 -1.49888e-05 -2.22959e-05)
(318.35 1.25343e-05 -2.09888e-05)
(318.35 3.96014e-06 -1.96698e-05)
(318.351 3.87529e-05 -2.01808e-05)
(318.352 1.70039e-05 -1.81955e-05)
(318.352 -5.16813e-05 -1.42464e-05)
(318.353 -4.72559e-05 -1.32665e-05)
(318.354 1.75984e-05 -1.40666e-05)
(318.356 -2.06523e-06 -1.34516e-05)
(318.357 -1.79594e-05 -1.2492e-05)
(318.36 -3.16413e-06 -1.25658e-05)
(318.363 1.76153e-05 -1.21503e-05)
(318.364 1.19057e-05 -1.23967e-05)
(318.363 4.08889e-05 -1.37133e-05)
(318.362 -2.70604e-05 -1.17838e-05)
(318.361 -0.000148197 -4.04904e-06)
(318.36 -3.40268e-05 -9.22856e-06)
(318.359 0.000138983 -1.65109e-05)
(318.358 0.000119565 -1.5535e-05)
(318.358 -8.46565e-08 -7.90007e-06)
(318.359 -4.35819e-05 -5.03339e-06)
(318.359 -4.31426e-05 -4.53447e-06)
(318.358 -1.15947e-05 -4.8327e-06)
(318.358 4.64835e-07 -4.94199e-06)
(318.359 -3.88889e-05 -1.27314e-06)
(318.362 2.55981e-05 -6.69142e-06)
(318.365 8.0636e-05 -7.99658e-06)
(318.367 -3.04633e-05 -3.02152e-06)
(318.37 -6.84257e-05 -1.01187e-06)
(318.371 0.000130243 -7.74594e-06)
(318.371 0.000123307 -7.91711e-06)
(318.369 -6.61408e-06 -2.89882e-06)
(318.369 -0.000129739 6.24508e-07)
(318.369 -0.000130777 -1.20865e-06)
(318.368 -6.408e-05 -3.24474e-06)
(318.367 -6.58575e-05 -4.48585e-06)
(318.368 -2.5943e-05 -4.16858e-06)
(318.368 0.000125463 -1.05033e-05)
(318.367 8.41164e-05 -9.07499e-06)
(318.365 3.47898e-05 -6.71559e-06)
(318.366 8.29787e-05 -4.29917e-06)
(318.367 -2.38095e-05 -1.7466e-06)
(318.369 -6.96648e-05 3.26999e-06)
(318.369 -2.38637e-05 4.18689e-06)
(318.369 4.24849e-05 8.75381e-06)
(318.37 1.56678e-05 2.22635e-05)
(318.371 -2.58285e-05 3.8224e-05)
(318.37 -6.97266e-05 5.19033e-05)
(318.369 -4.48936e-05 2.25691e-05)
(318.37 -7.49843e-05 -2.10312e-07)
(318.371 -0.000233318 3.51454e-06)
(318.373 -8.64486e-05 -4.43746e-05)
(318.374 0.000170306 -5.42802e-06)
(318.376 0.000150448 2.54378e-05)
(318.378 7.25734e-05 8.13191e-05)
(318.378 6.63005e-05 0.000126505)
(318.376 0.00017786 0.000136547)
(318.377 0.000362751 9.92516e-05)
(318.376 0.00026676 -3.44162e-06)
(318.376 0.000153816 -9.59854e-05)
(318.375 -0.00010719 -0.000189408)
(318.375 -0.00026987 -0.000123315)
(318.377 -0.000132413 -9.87594e-05)
(318.377 -8.03557e-05 6.497e-07)
(318.377 -0.000520543 0.000123158)
(318.376 -0.000693815 0.000163695)
(318.379 -0.000453392 0.000141002)
(318.377 7.03542e-05 1.53882e-05)
(318.378 2.12251e-05 -8.23382e-05)
(318.377 6.55902e-06 -0.000136526)
(318.38 2.97918e-05 -0.000172923)
(318.38 -9.39812e-05 0.000195716)
(318.381 -0.000809777 0.00104305)
(318.379 -0.00123433 0.00184123)
(318.381 -0.00286594 0.00260284)
(318.382 -0.00483027 0.00290748)
(318.387 -0.0107616 0.00311673)
(318.391 -0.014928 0.00141795)
(318.404 -0.0258339 -0.000269542)
(318.427 -0.0403741 -0.00295002)
(318.444 -0.0541436 -0.0058133)
(318.466 -0.0720568 -0.00846357)
(318.486 -0.0942241 -0.00988617)
(318.519 -0.124116 -0.00802378)
(318.542 -0.154928 -0.00452659)
(318.58 -0.182168 -0.000415589)
(318.651 -0.212145 0.00682857)
(318.877 -0.237723 0.0148847)
(319.384 -0.243033 0.0185893)
(320.211 -0.229036 0.0186037)
(321.256 -0.204203 0.0168405)
(322.402 -0.156155 0.0102034)
(323.578 -0.071659 -0.00636219)
(324.751 0.0365692 -0.02943)
(325.901 0.148354 -0.0511442)
(327.018 0.254435 -0.0711674)
(328.1 0.351784 -0.0895721)
(329.145 0.426011 -0.104654)
(330.148 0.453305 -0.115001)
(331.119 0.414701 -0.118495)
(332.053 0.31981 -0.108006)
(333.053 0.210569 -0.0767707)
(334.142 0.127058 -0.0415296)
(335.158 0.0611613 -0.0198829)
(336.267 0.0374351 -0.0145663)
(337.388 0.0370663 -0.0144189)
(338.514 0.0359234 -0.0123868)
(339.636 0.0328705 -0.0110792)
(340.758 0.0295021 -0.0141963)
(341.881 0.0244003 -0.012563)
(343.005 0.0172217 -0.00359836)
(344.124 0.0136365 -0.00162128)
(345.232 0.0127592 -0.00785799)
(346.325 0.0101027 -0.00649978)
(347.403 0.0060107 0.0034082)
(348.468 0.00475279 0.00517312)
(349.524 0.00545444 -0.00349045)
(350.579 0.00374626 -0.00561428)
(351.638 0.000837697 0.00397672)
(352.709 -1.25306e-05 0.00908286)
(353.793 -7.31582e-07 -0.000140953)
(354.889 0.000211561 -0.00807297)
(355.996 -0.00179016 0.000693762)
(357.105 -0.00314538 0.0120751)
(358.205 -0.00122902 0.00498728)
(359.286 0.000663724 -0.00880209)
(360.348 -0.00112419 -0.00526731)
(361.395 -0.00124487 0.00882467)
(362.437 -0.000253757 0.0104727)
(363.481 0.00036547 -0.00352185)
(364.536 0.00098985 -0.0124101)
(365.605 0.000265548 0.000575161)
(366.693 -0.00117581 0.0171253)
(367.798 0.000326682 0.00773148)
(368.914 0.00152282 -0.0154527)
(370.031 0.000524371 -0.0134335)
(371.134 -0.000465771 0.0104197)
(372.221 -0.000654971 0.017729)
(373.28 0.000347466 -0.001854)
(374.331 0.000965816 -0.014231)
(375.376 -2.15343e-05 -0.00612393)
(376.425 -0.000590677 0.0113989)
(377.484 -6.52322e-05 0.0122761)
(378.555 -0.000741305 -0.0059686)
(379.642 -0.000962436 -0.0129621)
(380.743 0.000537323 -0.00456487)
(381.853 0.000606914 0.0100734)
(382.967 -0.000645153 0.00647712)
(384.068 -0.000361066 -0.00261599)
(385.135 0.000418086 -0.00481456)
(386.186 0.0011478 -0.00259715)
(387.234 0.000909609 0.00348507)
(388.279 7.7189e-05 0.00411071)
(389.325 -9.10216e-06 -0.000645629)
(390.373 0.00074022 -0.00402422)
(391.42 0.00164302 -0.00323092)
(392.471 0.00205287 0.000839083)
(393.525 0.00119459 0.002688)
(394.578 0.000634222 0.000840235)
(395.634 0.000460512 -0.00158352)
(396.792 0.00111515 -0.0013023)
(398.986 -0.00404499 -0.000516697)
(318.375 4.71328e-06 5.38964e-05)
(318.375 3.99588e-06 5.31248e-05)
(318.376 1.77971e-06 5.15779e-05)
(318.375 3.96635e-07 4.96787e-05)
(318.375 1.04767e-06 4.79924e-05)
(318.375 -7.53979e-06 4.494e-05)
(318.374 -1.64202e-05 4.00138e-05)
(318.373 5.86513e-06 3.48984e-05)
(318.371 1.06926e-05 2.94577e-05)
(318.368 -1.26596e-05 2.43783e-05)
(318.366 -7.87526e-06 1.99117e-05)
(318.364 4.60331e-06 1.62936e-05)
(318.362 7.66409e-06 9.6909e-06)
(318.361 1.24992e-06 4.0049e-06)
(318.359 6.44062e-06 -2.85421e-06)
(318.357 -1.9735e-06 -8.53268e-06)
(318.353 -8.259e-06 -1.7168e-05)
(318.349 2.05714e-05 -2.22994e-05)
(318.345 1.81356e-05 -2.57753e-05)
(318.341 -3.1828e-05 -2.89465e-05)
(318.338 -2.01357e-05 -3.335e-05)
(318.336 1.6599e-06 -3.37466e-05)
(318.335 -1.48156e-05 -3.15266e-05)
(318.335 -1.83631e-05 -3.04089e-05)
(318.333 -7.93045e-06 -2.78854e-05)
(318.33 -8.63687e-06 -2.29774e-05)
(318.327 -1.3278e-05 -1.71389e-05)
(318.326 2.3256e-06 -1.22747e-05)
(318.327 -3.37444e-06 -5.87038e-06)
(318.33 -3.6956e-05 3.09607e-06)
(318.334 -1.61528e-05 1.17635e-05)
(318.337 6.11461e-05 1.19382e-05)
(318.338 5.88313e-05 1.35907e-05)
(318.335 -5.89716e-05 2.11293e-05)
(318.333 -7.88783e-05 2.11779e-05)
(318.331 3.54758e-05 1.61502e-05)
(318.331 5.38397e-05 1.4815e-05)
(318.331 2.21332e-05 1.36552e-05)
(318.332 -6.42265e-06 1.08028e-05)
(318.334 9.99955e-06 6.54214e-06)
(318.333 -1.80799e-05 3.28198e-06)
(318.332 -0.000101095 1.20259e-06)
(318.33 5.23452e-06 -1.35833e-05)
(318.329 0.000114532 -2.45477e-05)
(318.329 5.18477e-05 -2.81896e-05)
(318.33 -2.11692e-05 -3.29867e-05)
(318.331 -2.16481e-05 -3.78912e-05)
(318.333 -9.24123e-06 -4.1957e-05)
(318.336 2.09207e-06 -4.62271e-05)
(318.338 -1.65341e-05 -5.00631e-05)
(318.341 -2.09426e-05 -5.55252e-05)
(318.343 5.5257e-05 -6.01317e-05)
(318.343 5.65447e-05 -6.27621e-05)
(318.344 -4.81941e-05 -6.04419e-05)
(318.345 -5.01857e-05 -5.9079e-05)
(318.347 1.73042e-05 -6.16859e-05)
(318.349 2.21209e-05 -6.0888e-05)
(318.348 8.92481e-06 -5.74194e-05)
(318.347 4.09075e-06 -5.36087e-05)
(318.347 8.08604e-07 -5.09999e-05)
(318.347 7.45736e-06 -4.72744e-05)
(318.347 -1.00066e-06 -4.39831e-05)
(318.346 -3.98422e-05 -3.66731e-05)
(318.346 -9.98318e-05 -2.9326e-05)
(318.348 1.59466e-05 -3.02049e-05)
(318.349 0.000154949 -3.25152e-05)
(318.349 6.08809e-05 -2.80022e-05)
(318.349 -9.57578e-05 -1.87439e-05)
(318.35 -7.12866e-05 -1.82508e-05)
(318.35 -1.01483e-05 -1.93367e-05)
(318.349 2.46814e-05 -1.80011e-05)
(318.35 7.80928e-06 -1.70063e-05)
(318.351 4.56427e-05 -1.82231e-05)
(318.352 1.70356e-05 -1.55981e-05)
(318.352 -7.28743e-05 -1.00683e-05)
(318.353 -5.17288e-05 -1.06917e-05)
(318.354 3.52613e-05 -1.23709e-05)
(318.356 2.49417e-06 -1.08749e-05)
(318.358 -1.91065e-05 -9.78006e-06)
(318.36 6.11907e-06 -1.0002e-05)
(318.363 2.72797e-05 -1.0517e-05)
(318.364 8.49251e-06 -1.06702e-05)
(318.363 4.18814e-05 -1.21417e-05)
(318.362 -4.02421e-05 -1.07511e-05)
(318.36 -0.000180757 -8.15514e-07)
(318.36 -1.67547e-05 -8.82737e-06)
(318.359 0.000179405 -1.84439e-05)
(318.358 0.000141096 -1.51948e-05)
(318.359 -7.79067e-06 -4.87277e-06)
(318.359 -7.35387e-05 -2.07888e-06)
(318.359 -6.96463e-05 -1.72014e-06)
(318.358 -2.29358e-05 -3.22836e-06)
(318.357 1.09498e-05 -4.23438e-06)
(318.359 -3.95857e-05 -1.18683e-06)
(318.362 4.39961e-05 -9.01725e-06)
(318.365 9.49169e-05 -9.95134e-06)
(318.367 -4.94177e-05 -3.62397e-06)
(318.37 -7.16006e-05 3.47462e-07)
(318.371 0.000162074 -7.50139e-06)
(318.371 0.000152325 -8.54006e-06)
(318.369 -2.59209e-05 -5.03231e-07)
(318.369 -0.00019165 4.80353e-06)
(318.369 -0.000169752 5.90956e-06)
(318.368 -6.11029e-05 -8.53969e-07)
(318.367 -3.32661e-05 -4.72585e-06)
(318.368 1.29673e-05 -4.44683e-06)
(318.368 0.00016649 -1.07154e-05)
(318.367 9.01576e-05 -9.95478e-06)
(318.365 2.82205e-05 -1.07461e-05)
(318.366 8.61649e-05 -8.682e-06)
(318.367 -5.94986e-05 -6.33606e-06)
(318.369 -9.75845e-05 -2.41625e-06)
(318.369 -3.44059e-05 -3.74723e-06)
(318.369 5.51175e-05 1.37396e-06)
(318.37 1.83942e-05 1.10879e-05)
(318.371 -2.67385e-05 2.51399e-05)
(318.37 -8.15269e-05 3.35582e-05)
(318.369 -4.52876e-05 6.08165e-06)
(318.37 -0.000100303 -6.50923e-06)
(318.371 -0.000302241 6.14423e-06)
(318.373 -6.36118e-05 -3.69624e-05)
(318.374 0.000219355 -7.8513e-06)
(318.376 0.000180787 1.12065e-05)
(318.378 6.69568e-05 7.00244e-05)
(318.378 8.07711e-05 9.84406e-05)
(318.376 0.000250934 9.60771e-05)
(318.377 0.000410356 6.35094e-05)
(318.376 0.000301957 -1.91801e-05)
(318.376 0.000112984 -9.53893e-05)
(318.375 -0.000204702 -0.000158736)
(318.375 -0.000257731 -9.46085e-05)
(318.376 -9.5376e-05 -7.74321e-05)
(318.377 -7.874e-05 1.68395e-06)
(318.378 -0.000736567 0.000103974)
(318.376 -0.000886733 0.000136569)
(318.378 -0.000385681 0.000105535)
(318.377 0.000256095 -1.32705e-06)
(318.378 0.00021272 -6.396e-05)
(318.377 -4.22353e-05 -8.28612e-05)
(318.381 -0.000130491 -8.3702e-05)
(318.38 -0.000210602 0.000279197)
(318.381 -0.000694796 0.00100413)
(318.379 -0.000975648 0.00168227)
(318.381 -0.00222849 0.00238354)
(318.382 -0.00426794 0.00266976)
(318.387 -0.00901813 0.00286082)
(318.392 -0.0131612 0.00119931)
(318.407 -0.0232336 -0.000430012)
(318.43 -0.0356724 -0.00292185)
(318.447 -0.0468589 -0.00562302)
(318.472 -0.0633118 -0.00792668)
(318.498 -0.0841611 -0.00897442)
(318.536 -0.110234 -0.00730755)
(318.567 -0.138893 -0.0046469)
(318.614 -0.164133 -0.0014507)
(318.695 -0.193143 0.00466806)
(318.935 -0.216348 0.0115365)
(319.453 -0.220867 0.0142393)
(320.293 -0.207243 0.0136133)
(321.35 -0.18106 0.0118703)
(322.503 -0.131227 0.00662186)
(323.676 -0.0494103 -0.006863)
(324.841 0.0435504 -0.0253738)
(325.975 0.13996 -0.043984)
(327.066 0.235405 -0.0632648)