/*--------------------------------*- C++ -*----------------------------------*\
| =========                 |                                                 |
| \\      /  F ield         | OpenFOAM: The Open Source CFD Toolbox           |
|  \\    /   O peration     | Version:  2406                                  |
|   \\  /    A nd           | Website:  www.openfoam.com                      |
|    \\/     M anipulation  |                                                 |
\*---------------------------------------------------------------------------*/
FoamFile
{
    version     2.0;
    format      ascii;
    arch        "LSB;label=32;scalar=64";
    class       volVectorField;
    location    "0.035";
    object      U;
}
// * * * * * * * * * * * * * * * * * * * * * * * * * * * * * * * * * * * * * //

dimensions      [0 1 -1 0 0 0 0];

internalField   nonuniform List<vector> 
13988
(
(-3.60726e-14 -4.46939e-12 4.00275e-12)
(1.66175e-12 -3.13329e-12 -2.43737e-12)
(3.843e-12 -4.46224e-12 -5.77874e-12)
(2.66461e-12 -4.02031e-12 -2.99829e-12)
(1.55765e-12 -3.67283e-12 -3.9643e-12)
(-2.34196e-13 -3.08516e-12 -8.07732e-12)
(-3.13621e-13 -5.25039e-12 -1.22174e-11)
(-1.68832e-13 -2.00686e-12 -1.13623e-11)
(-8.94623e-13 -8.92457e-13 -1.20731e-11)
(6.07136e-13 -3.8727e-13 -1.12131e-11)
(-2.27042e-12 -2.83833e-12 -6.37618e-12)
(-4.49279e-12 -2.25877e-12 5.76393e-13)
(-3.00697e-12 -1.05158e-12 1.29908e-12)
(-2.4455e-12 -3.78277e-12 4.29967e-12)
(-1.64698e-12 -4.9644e-12 7.04513e-12)
(-2.70911e-12 -3.35737e-12 2.80247e-12)
(-8.45962e-13 -2.84146e-12 -4.24737e-12)
(2.96356e-13 -9.59926e-13 -8.27468e-12)
(1.2869e-12 -4.12486e-12 -8.49965e-12)
(3.85748e-12 -3.69564e-12 -9.77118e-12)
(4.33361e-12 -3.83634e-12 -1.12791e-11)
(3.069e-12 -5.31126e-12 -1.36037e-11)
(3.06782e-12 -7.60443e-12 -9.27846e-12)
(2.39408e-12 -5.54159e-12 -5.42337e-12)
(2.51502e-12 -3.78393e-12 -3.50244e-12)
(1.15074e-12 -3.67034e-12 -6.43493e-12)
(2.8573e-13 -2.64906e-12 -1.00939e-11)
(1.35518e-12 -3.90255e-12 -7.85485e-12)
(-6.55215e-13 -5.6249e-12 -6.79583e-12)
(-2.74567e-12 -4.84671e-12 -7.38115e-12)
(-2.18057e-12 -5.14772e-12 -4.01102e-12)
(-1.3501e-12 -5.13976e-13 2.98377e-12)
(9.2545e-13 -2.68429e-12 1.22059e-11)
(1.6306e-13 -4.93706e-12 2.10783e-11)
(2.04908e-12 -4.18106e-12 2.98808e-11)
(1.96149e-12 -2.00846e-12 3.41068e-11)
(2.60196e-12 -3.11693e-12 3.79992e-11)
(4.14933e-12 -5.23387e-13 3.25317e-11)
(2.58825e-12 -1.52032e-12 2.2345e-11)
(7.75377e-13 -4.68307e-12 1.30034e-11)
(2.65588e-12 -4.9819e-12 7.52621e-12)
(2.60574e-12 -3.03388e-12 2.57358e-12)
(2.68121e-12 -3.56726e-12 1.0829e-12)
(4.05615e-12 -4.70255e-12 1.00675e-12)
(9.26548e-13 -7.26275e-12 2.73853e-12)
(-1.52801e-12 -8.25947e-12 6.3548e-12)
(-1.08575e-12 -8.50358e-12 9.21567e-12)
(-4.5905e-13 -8.42947e-12 7.01784e-12)
(-1.2721e-12 -8.37492e-12 8.10963e-12)
(-1.81944e-12 -5.97159e-12 7.3783e-12)
(-4.49695e-13 -4.91587e-12 6.32785e-12)
(-3.10751e-12 -4.28263e-12 5.65018e-12)
(-2.45285e-12 -3.89674e-12 3.30565e-12)
(-1.38433e-13 -2.31169e-12 1.8936e-12)
(7.56206e-13 -2.1455e-12 -1.04129e-12)
(2.19497e-12 -4.31744e-12 -3.22161e-12)
(-5.05458e-13 -6.45068e-12 -6.82116e-12)
(7.20554e-13 -4.37483e-12 -1.22081e-11)
(-1.65829e-12 -4.37714e-12 -1.52579e-11)
(-4.26389e-12 -3.55257e-12 -1.32883e-11)
(-4.02776e-12 -5.78016e-13 -1.02078e-11)
(-7.65619e-13 -7.4879e-13 -5.27635e-12)
(3.68656e-12 -2.33399e-12 -1.70861e-12)
(4.06196e-12 -1.98807e-12 -3.78754e-12)
(4.72231e-12 -3.37311e-12 -7.28226e-12)
(8.21513e-12 -4.07363e-12 -1.24357e-11)
(6.56979e-12 -3.8514e-12 -1.47584e-11)
(4.72488e-12 -2.42611e-12 -1.32425e-11)
(5.04815e-12 -4.40884e-12 -1.03619e-11)
(2.69159e-12 -5.00173e-12 -1.04626e-11)
(1.56401e-12 -5.39017e-12 -1.42979e-11)
(1.97298e-12 -6.56727e-12 -1.54953e-11)
(-8.18784e-13 -5.63261e-12 -1.47329e-11)
(-1.38299e-12 -4.30323e-12 -1.13925e-11)
(1.21915e-12 -4.4827e-12 -8.39309e-12)
(1.74609e-12 -2.14697e-12 -6.52474e-12)
(1.05991e-12 -2.98573e-12 -6.31672e-12)
(2.97685e-13 -4.41896e-12 -3.84756e-12)
(-1.53356e-12 -3.38224e-12 -4.69754e-12)
(-6.89572e-13 -3.91804e-12 -8.99239e-12)
(-1.84871e-12 -6.00265e-12 -1.0501e-11)
(-4.347e-12 -4.77604e-12 -1.20662e-11)
(-4.27322e-12 -1.09602e-12 -1.11148e-11)
(-2.91276e-12 -6.51466e-13 -9.75413e-12)
(-2.45107e-12 1.14882e-14 -1.04008e-11)
(-2.51255e-12 -8.19525e-13 -6.5734e-12)
(-3.459e-12 -2.01753e-12 -4.7369e-12)
(-2.29247e-12 -3.69657e-12 -7.14261e-12)
(4.22454e-13 -3.32036e-12 -1.19731e-11)
(-1.30375e-12 -4.00298e-12 -1.49706e-11)
(1.29373e-13 -2.8158e-12 -1.5206e-11)
(-1.10948e-12 -4.8074e-12 -1.3813e-11)
(-2.14229e-12 -4.28072e-12 -1.3882e-11)
(2.18638e-13 -5.31093e-12 -1.15865e-11)
(-2.11852e-12 -6.12868e-12 -8.84905e-12)
(-2.35335e-12 -7.68388e-12 -7.14037e-12)
(-1.77813e-12 -6.35428e-12 -6.66853e-12)
(-4.89703e-12 -6.9869e-12 -6.89665e-12)
(-4.96287e-12 -7.15231e-12 -6.37271e-12)
(-2.39351e-12 -7.33213e-12 -4.33217e-12)
(-3.72634e-12 -6.02698e-12 2.76765e-12)
(8.47302e-13 -2.98253e-12 6.53242e-13)
(2.09721e-12 -4.9169e-12 -1.96649e-12)
(2.65724e-12 -3.76824e-12 -4.29832e-12)
(1.73027e-12 -4.12743e-12 -3.22189e-12)
(1.08852e-12 -3.14052e-12 -3.41531e-12)
(7.73907e-13 -1.84243e-12 -6.70654e-12)
(-3.49592e-13 -3.43276e-12 -9.61088e-12)
(-1.63257e-12 -5.03256e-13 -1.03133e-11)
(-1.39938e-12 -2.00353e-12 -1.28306e-11)
(1.273e-12 -3.76844e-14 -1.36411e-11)
(-8.50263e-13 -1.19669e-12 -7.93048e-12)
(-5.20583e-12 -2.7126e-12 -1.9159e-12)
(-1.87061e-12 -2.49934e-12 -8.75823e-13)
(-9.0836e-13 -4.57436e-12 2.11961e-12)
(-2.40028e-12 -3.02303e-12 4.73751e-12)
(-2.53393e-12 -3.48099e-12 -4.11755e-13)
(-7.09565e-13 -4.65847e-12 -7.5522e-12)
(1.00418e-12 -4.31945e-12 -1.13537e-11)
(2.16568e-12 -4.61638e-12 -9.45739e-12)
(2.19264e-12 -4.74541e-12 -1.17715e-11)
(4.40831e-12 -2.97522e-12 -1.40882e-11)
(5.69467e-12 -5.87442e-12 -1.49889e-11)
(2.28468e-12 -5.301e-12 -9.35989e-12)
(5.83432e-14 -4.83468e-12 -4.86658e-12)
(1.5886e-12 -4.35435e-12 -4.41179e-12)
(1.84789e-12 -2.53679e-12 -5.27669e-12)
(1.24069e-12 -5.50267e-12 -6.88578e-12)
(2.41268e-12 -4.72079e-12 -7.0311e-12)
(-3.40545e-14 -5.01097e-12 -6.74403e-12)
(-2.62416e-12 -4.33627e-12 -7.36742e-12)
(-2.59486e-12 -2.04232e-12 -4.22691e-12)
(-1.64847e-12 -3.49075e-12 2.89262e-12)
(7.65111e-13 -3.13677e-12 1.34932e-11)
(-1.24779e-12 -4.98973e-12 2.39966e-11)
(2.09518e-12 -6.19028e-12 3.62738e-11)
(1.8525e-12 -5.75563e-12 4.262e-11)
(1.20446e-12 -4.64061e-12 4.49022e-11)
(2.26035e-12 -2.19353e-12 3.7708e-11)
(3.10918e-12 -1.75459e-12 2.44645e-11)
(2.54003e-12 -6.43703e-12 1.33579e-11)
(2.36857e-12 -3.12189e-12 9.33501e-12)
(3.35216e-12 -3.65624e-12 6.48267e-12)
(3.97503e-12 -5.92879e-12 4.72223e-12)
(5.02647e-12 -3.77861e-12 4.20077e-12)
(2.64048e-12 -5.11247e-12 5.06212e-12)
(-2.09535e-13 -6.75755e-12 7.36423e-12)
(-4.91985e-13 -7.04513e-12 8.28246e-12)
(-5.96931e-13 -7.50925e-12 7.49031e-12)
(-1.94515e-12 -5.34391e-12 9.30515e-12)
(-2.69553e-12 -6.14579e-12 7.68212e-12)
(-1.7104e-12 -4.6335e-12 6.40327e-12)
(-3.02371e-12 -5.02591e-12 4.78445e-12)
(-2.6303e-12 -5.91255e-12 5.97476e-12)
(-1.0626e-12 -4.30529e-12 3.87794e-12)
(1.46727e-12 -3.75133e-12 -1.3052e-12)
(3.14615e-12 -2.98653e-12 -3.45972e-12)
(-3.24843e-13 -4.46786e-12 -6.87437e-12)
(-1.49125e-12 -2.49389e-12 -1.36454e-11)
(-2.22715e-12 -3.30874e-12 -1.67969e-11)
(-3.94483e-12 -2.24365e-12 -1.30696e-11)
(-3.94998e-12 -3.98408e-12 -9.18414e-12)
(7.2485e-14 -2.49336e-12 -4.89528e-12)
(3.42301e-12 -2.34673e-12 -1.12187e-12)
(4.38805e-12 -1.75779e-12 -3.70695e-12)
(5.67816e-12 -4.22526e-12 -6.38699e-12)
(7.03973e-12 -4.11383e-12 -1.52166e-11)
(6.26777e-12 -3.03708e-12 -1.87136e-11)
(5.28462e-12 -2.12976e-12 -1.57419e-11)
(5.16863e-12 -1.71438e-13 -1.12456e-11)
(2.10795e-12 -9.36142e-13 -1.07283e-11)
(2.21035e-12 -2.61057e-12 -1.60179e-11)
(2.0093e-12 -3.65107e-12 -1.62865e-11)
(-1.1503e-12 -2.93104e-12 -1.29528e-11)
(-1.25516e-12 -3.42532e-12 -9.14024e-12)
(-3.73481e-13 -1.49452e-12 -7.80326e-12)
(3.22691e-13 -2.10201e-12 -6.64437e-12)
(2.17048e-12 -1.00308e-12 -6.53193e-12)
(1.65187e-12 -2.99975e-12 -2.21503e-12)
(-9.83202e-13 -2.91971e-12 -4.50964e-12)
(5.44631e-13 -3.13753e-12 -8.11362e-12)
(-1.01758e-12 -2.32031e-12 -1.06466e-11)
(-5.9095e-12 -2.38874e-12 -1.13132e-11)
(-5.39727e-12 -9.97522e-13 -1.2075e-11)
(-3.36361e-12 -8.46624e-13 -9.46824e-12)
(-3.03155e-12 -4.80022e-14 -1.03179e-11)
(-2.38427e-12 -2.57648e-12 -6.25234e-12)
(-1.87945e-12 -2.54986e-12 -3.25806e-12)
(-1.46598e-12 -5.20145e-12 -4.7323e-12)
(2.37539e-13 -3.71479e-12 -1.2423e-11)
(-1.09568e-12 -3.01414e-12 -1.74669e-11)
(1.12221e-13 -3.92882e-12 -1.81243e-11)
(-7.44224e-13 -3.75904e-12 -1.42898e-11)
(-2.47026e-12 -5.62565e-12 -1.34251e-11)
(-7.06311e-13 -6.61766e-12 -1.1448e-11)
(-2.85011e-13 -4.3745e-12 -8.80556e-12)
(-1.91744e-12 -5.54276e-12 -5.50972e-12)
(-3.30915e-12 -3.82122e-12 -6.46737e-12)
(-3.96037e-12 -5.13274e-12 -6.60195e-12)
(-4.14954e-12 -7.56618e-12 -6.44083e-12)
(-2.92944e-12 -6.6206e-12 -4.04055e-12)
(1.64135e-12 -3.30757e-12 -1.78141e-12)
(2.20879e-12 -6.2247e-12 -2.29192e-13)
(2.7311e-12 -6.11281e-12 -6.5846e-13)
(2.13336e-12 -6.82457e-12 -6.36259e-13)
(-1.65307e-13 -5.85494e-12 -2.32085e-12)
(4.02214e-13 -3.84179e-12 -6.27039e-12)
(-1.40599e-12 -4.35629e-12 -6.79945e-12)
(-1.14153e-12 -2.97213e-12 -7.64819e-12)
(-9.78695e-13 -3.48472e-12 -8.83399e-12)
(-4.11594e-13 -3.64209e-12 -1.08969e-11)
(-1.9583e-13 -3.11316e-13 -6.70873e-12)
(-3.08166e-12 -4.62119e-12 -3.97081e-13)
(-2.04369e-12 -7.35425e-12 -1.42571e-12)
(-2.06168e-12 -6.88992e-12 -3.25769e-13)
(-2.54876e-12 -8.1468e-12 -4.23286e-13)
(-1.88607e-12 -9.0477e-12 -4.33013e-12)
(-9.51348e-14 -9.73661e-12 -7.98208e-12)
(1.08066e-12 -1.04747e-11 -9.30747e-12)
(1.67828e-12 -8.79246e-12 -8.53297e-12)
(2.00237e-12 -9.31627e-12 -1.11056e-11)
(4.73245e-12 -8.17827e-12 -1.16988e-11)
(5.11036e-12 -6.45435e-12 -1.12118e-11)
(1.71223e-12 -5.35522e-12 -8.56199e-12)
(1.75117e-12 -5.26478e-12 -3.21052e-12)
(1.0862e-12 -6.08295e-12 -4.08598e-12)
(2.20036e-12 -5.38314e-12 -4.31614e-12)
(2.32461e-12 -8.07335e-12 -5.30509e-12)
(1.62889e-12 -8.72612e-12 -7.44363e-12)
(3.65508e-14 -7.80562e-12 -4.79073e-12)
(-4.85048e-12 -7.92608e-12 -3.32071e-12)
(-3.14406e-12 -4.07079e-12 -1.54296e-12)
(1.38707e-13 -6.09371e-12 2.84168e-12)
(5.09941e-13 -3.42114e-12 1.07423e-11)
(3.22989e-13 -9.06526e-12 2.40035e-11)
(3.25135e-12 -9.46344e-12 4.04406e-11)
(1.12933e-12 -8.72176e-12 4.76158e-11)
(-4.55734e-13 -7.52095e-12 4.56483e-11)
(8.81726e-13 -7.68259e-12 3.56132e-11)
(4.75969e-12 -6.84754e-12 2.10717e-11)
(2.66737e-12 -1.02673e-11 1.18694e-11)
(1.85719e-12 -7.10583e-12 9.57188e-12)
(3.70428e-12 -8.49776e-12 9.42564e-12)
(2.46981e-12 -6.43674e-12 9.06491e-12)
(3.25916e-12 -4.99306e-12 6.65293e-12)
(2.83459e-12 -4.1274e-12 7.14452e-12)
(5.02245e-13 -6.40886e-12 9.35716e-12)
(1.39782e-13 -8.0237e-12 7.03408e-12)
(-1.44718e-12 -7.61722e-12 5.15824e-12)
(-1.86043e-12 -5.89157e-12 6.56184e-12)
(-1.59696e-12 -9.20865e-12 6.81484e-12)
(-1.29575e-12 -7.51192e-12 3.98611e-12)
(-2.12576e-12 -9.71844e-12 5.53872e-12)
(-2.4036e-12 -8.05217e-12 7.71075e-12)
(-2.13879e-12 -7.69742e-12 4.41365e-12)
(-7.44254e-14 -7.00582e-12 -3.59863e-13)
(1.88117e-12 -4.82867e-12 -3.43213e-12)
(-1.09625e-12 -5.21593e-12 -6.92079e-12)
(-7.99567e-13 -3.4474e-12 -1.10687e-11)
(-1.90472e-12 -4.64933e-12 -1.22542e-11)
(-3.26749e-12 -4.04542e-12 -1.22393e-11)
(-2.95989e-12 -4.69816e-12 -9.60498e-12)
(-1.6947e-12 -5.61696e-12 -5.36892e-12)
(2.64598e-12 -4.13889e-12 -3.65173e-12)
(4.73046e-12 -6.39826e-12 -4.95174e-12)
(6.10056e-12 -4.84835e-12 -9.33935e-12)
(6.83704e-12 -5.74533e-12 -1.60047e-11)
(6.07115e-12 -3.16421e-12 -1.56514e-11)
(2.93265e-12 -1.25614e-12 -1.45066e-11)
(3.91675e-12 2.36497e-12 -1.31687e-11)
(4.33152e-12 5.82249e-13 -1.04736e-11)
(3.12793e-12 1.1334e-14 -1.36253e-11)
(1.77733e-12 1.58606e-13 -1.34017e-11)
(-9.58979e-14 -1.75147e-12 -1.21572e-11)
(-1.84117e-12 -3.46635e-12 -9.05561e-12)
(-7.39698e-14 -2.62707e-12 -6.88825e-12)
(4.98582e-13 -2.66144e-12 -5.78026e-12)
(1.59587e-12 -1.0466e-12 -5.11124e-12)
(1.52286e-12 -1.00745e-12 -4.73161e-12)
(-1.35888e-12 -5.29249e-15 -6.96807e-12)
(-6.63582e-13 -9.03873e-13 -9.22903e-12)
(-2.24884e-12 -4.24699e-13 -1.21721e-11)
(-4.6875e-12 7.3948e-13 -1.08025e-11)
(-4.6268e-12 -2.61784e-12 -1.228e-11)
(-3.26831e-12 -1.70021e-12 -1.15789e-11)
(-1.1341e-12 -3.67154e-12 -6.10455e-12)
(-1.38399e-12 -4.03948e-12 6.37923e-13)
(-1.53891e-12 -6.2334e-12 7.89764e-13)
(-1.83237e-12 -9.42858e-12 -4.05133e-12)
(-1.99481e-12 -7.86034e-12 -1.11837e-11)
(-1.28602e-12 -5.6515e-12 -1.35882e-11)
(5.98017e-13 -7.1468e-12 -1.46875e-11)
(-1.89824e-13 -5.42909e-12 -1.32518e-11)
(-5.5962e-13 -6.42788e-12 -1.37042e-11)
(-4.93433e-13 -7.8937e-12 -1.15197e-11)
(-1.99498e-12 -6.51563e-12 -9.92714e-12)
(-2.33118e-12 -5.36323e-12 -7.36766e-12)
(-2.8507e-12 -7.79685e-12 -6.65465e-12)
(-2.73973e-12 -9.28231e-12 -5.75307e-12)
(-4.03475e-12 -1.05699e-11 -6.17715e-12)
(-3.58194e-12 -7.96729e-12 -6.03155e-12)
(3.82802e-12 -4.77508e-12 2.48764e-12)
(3.22642e-12 -5.11924e-12 3.75652e-12)
(2.03527e-12 -3.64874e-12 2.66427e-12)
(-1.16986e-12 -2.35022e-12 -2.35776e-13)
(-2.91638e-13 -2.61537e-12 -3.27653e-12)
(-1.19659e-12 -2.1255e-12 -4.60345e-12)
(-2.61211e-12 -2.34007e-12 -4.80343e-12)
(-1.25253e-12 -9.25433e-13 -6.50679e-12)
(-1.07846e-12 -2.61693e-12 -6.91792e-12)
(3.16033e-13 -1.37029e-12 -4.77662e-12)
(4.3672e-14 -3.46023e-12 -2.14317e-12)
(-1.5052e-12 -4.5634e-12 -3.23365e-12)
(-3.11194e-13 -5.67951e-12 -4.33168e-12)
(4.60912e-13 -7.91288e-12 -5.40867e-12)
(-6.52473e-13 -8.71452e-12 -7.07814e-12)
(-4.0189e-14 -9.12122e-12 -5.77073e-12)
(-2.34515e-13 -1.06124e-11 -5.19999e-12)
(7.6259e-13 -1.08454e-11 -5.01781e-12)
(1.29084e-12 -1.06249e-11 -5.7396e-12)
(1.72453e-12 -8.90954e-12 -7.70733e-12)
(2.73523e-12 -6.59094e-12 -9.47387e-12)
(1.08247e-12 -7.07651e-12 -9.69281e-12)
(1.17615e-12 -5.58485e-12 -5.70287e-12)
(2.02573e-12 -4.74351e-12 -3.36338e-12)
(3.67256e-12 -6.48213e-12 -3.20095e-12)
(3.47985e-12 -6.29538e-12 -4.11425e-12)
(2.48929e-12 -7.4173e-12 -4.70943e-12)
(-2.2261e-13 -5.26614e-12 -2.57072e-12)
(-5.69948e-12 -5.42931e-12 1.09246e-12)
(-4.22516e-12 -6.32605e-12 1.04788e-12)
(-1.88733e-13 -5.36151e-12 4.43624e-12)
(2.18483e-12 -5.63574e-12 1.40192e-11)
(1.48368e-12 -6.94676e-12 2.64021e-11)
(8.39229e-13 -8.24644e-12 3.66667e-11)
(1.0175e-12 -6.37493e-12 4.05498e-11)
(6.7379e-13 -8.85183e-12 3.75188e-11)
(1.86958e-12 -9.6137e-12 2.53085e-11)
(5.74975e-12 -8.31695e-12 1.33164e-11)
(2.31457e-12 -7.6738e-12 8.46964e-12)
(4.80103e-13 -8.91181e-12 8.14257e-12)
(1.89812e-12 -7.64252e-12 1.0799e-11)
(5.09771e-13 -5.84256e-12 1.08207e-11)
(2.42031e-12 -6.65285e-12 7.06351e-12)
(3.12652e-12 -3.91444e-12 4.40125e-12)
(3.16212e-12 -6.31745e-12 6.06253e-12)
(5.71801e-13 -7.32253e-12 4.76683e-12)
(-2.30062e-12 -8.06257e-12 4.46644e-12)
(-1.99945e-13 -7.85399e-12 4.83547e-12)
(-1.26318e-12 -8.57734e-12 4.47079e-12)
(-1.32287e-12 -7.70755e-12 1.95339e-12)
(-2.18685e-12 -8.21758e-12 3.35048e-12)
(-3.87586e-12 -8.58064e-12 4.15193e-12)
(-1.91902e-12 -7.25135e-12 2.89291e-12)
(-6.9884e-13 -6.05525e-12 -5.51033e-13)
(1.40491e-12 -5.15456e-12 -4.49707e-12)
(-2.00828e-12 -4.1777e-12 -7.68137e-12)
(-2.47348e-12 -5.15817e-12 -1.09228e-11)
(-2.021e-12 -2.0262e-12 -1.13671e-11)
(-3.36086e-12 -4.04717e-12 -1.32267e-11)
(-1.5441e-12 -4.28498e-12 -8.94521e-12)
(-6.67473e-15 -9.02009e-12 -6.10098e-12)
(2.94487e-12 -7.86556e-12 -5.11227e-12)
(4.8368e-12 -7.92449e-12 -6.7017e-12)
(4.58759e-12 -5.9648e-12 -1.04982e-11)
(4.40971e-12 -4.74285e-12 -1.61585e-11)
(3.79976e-12 -1.66152e-12 -1.56108e-11)
(2.18127e-12 -1.54756e-12 -1.43472e-11)
(4.28746e-12 -9.80012e-13 -1.25012e-11)
(3.81531e-12 1.07897e-12 -1.23089e-11)
(2.32303e-12 2.31163e-12 -1.50843e-11)
(3.05099e-12 2.71031e-12 -1.33333e-11)
(2.3757e-12 2.59158e-13 -1.35428e-11)
(-1.04012e-12 -6.25606e-13 -9.07728e-12)
(-9.31188e-13 -1.62682e-12 -3.11085e-12)
(-8.91101e-13 -4.91706e-13 -4.75449e-12)
(1.24942e-12 -7.66177e-13 -5.39491e-12)
(1.39155e-12 1.17656e-12 -6.9635e-12)
(-7.4675e-13 1.74113e-12 -1.10718e-11)
(1.12231e-12 1.31188e-12 -9.68463e-12)
(-2.26398e-12 -1.26387e-14 -9.8846e-12)
(-4.18671e-12 -2.76448e-13 -9.55598e-12)
(-3.00557e-12 -1.39463e-12 -1.01401e-11)
(-2.60978e-12 -2.57121e-12 -6.38292e-12)
(1.4845e-13 -4.59118e-12 1.2184e-12)
(2.96205e-13 -4.73813e-12 6.59679e-12)
(1.9057e-12 -5.75823e-12 3.418e-12)
(-1.42543e-12 -6.12581e-12 -2.07288e-12)
(-3.35805e-12 -7.85239e-12 -8.38763e-12)
(-9.97231e-13 -8.02653e-12 -1.16288e-11)
(-2.10522e-13 -7.59329e-12 -1.17707e-11)
(-1.3327e-12 -6.45096e-12 -1.20046e-11)
(-4.16739e-13 -8.08372e-12 -1.19907e-11)
(-6.82204e-13 -6.04837e-12 -1.14516e-11)
(-1.4586e-12 -6.88352e-12 -1.21687e-11)
(-8.25318e-13 -6.56402e-12 -8.05718e-12)
(-8.48899e-13 -9.64044e-12 -6.02755e-12)
(-2.24777e-12 -8.75368e-12 -3.07434e-12)
(-5.15899e-12 -7.80342e-12 -9.33454e-13)
(2.44021e-12 -5.88172e-12 5.77873e-12)
(1.49388e-12 -4.73839e-12 7.99561e-12)
(-2.59921e-13 -3.78054e-12 5.37548e-12)
(-1.29396e-12 -1.98507e-12 1.76588e-12)
(-1.15932e-13 -3.79325e-12 -2.34457e-13)
(-1.7038e-12 -2.16654e-12 -1.53343e-12)
(-2.34483e-12 -3.63313e-12 -3.34912e-12)
(-3.40477e-13 -3.01895e-12 -4.64904e-12)
(8.58683e-13 -4.64469e-12 -5.7545e-12)
(5.37225e-13 -4.59271e-12 -3.74719e-12)
(-3.59192e-14 -4.9618e-12 -5.24896e-12)
(-3.9293e-13 -4.60529e-12 -5.45296e-12)
(4.99193e-13 -3.99126e-12 -6.26207e-12)
(4.84239e-13 -4.17391e-12 -7.12897e-12)
(3.61934e-13 -6.58263e-12 -7.76183e-12)
(9.32507e-13 -7.2338e-12 -4.81449e-12)
(1.58089e-12 -9.42368e-12 -2.63392e-12)
(1.29382e-12 -9.93259e-12 -7.52206e-13)
(1.12324e-12 -9.96237e-12 -9.92161e-13)
(1.75196e-12 -9.98711e-12 -2.73652e-12)
(2.9221e-12 -8.58715e-12 -3.85402e-12)
(1.35708e-12 -8.45699e-12 -4.73083e-12)
(-2.89753e-14 -7.92931e-12 -3.01597e-12)
(2.01502e-12 -6.77183e-12 -1.24999e-12)
(3.46896e-12 -8.15574e-12 -2.87398e-12)
(2.79202e-12 -6.79576e-12 -4.89621e-12)
(1.05236e-12 -6.66431e-12 -4.09231e-12)
(-7.75894e-13 -4.29065e-12 -2.49978e-12)
(-3.69567e-12 -5.32823e-12 -1.08135e-12)
(-2.53677e-12 -7.2879e-12 1.1734e-12)
(1.47933e-12 -7.65205e-12 6.81901e-12)
(9.23837e-13 -7.04925e-12 1.68196e-11)
(2.85148e-12 -5.00944e-12 2.4166e-11)
(3.26565e-12 -7.84003e-12 2.91193e-11)
(2.12552e-12 -8.1933e-12 2.90831e-11)
(2.2132e-12 -1.06743e-11 2.63294e-11)
(-4.49717e-13 -1.08934e-11 1.51494e-11)
(1.59293e-12 -1.01725e-11 5.84795e-12)
(2.3467e-12 -7.72243e-12 3.29185e-12)
(1.30153e-12 -9.25158e-12 4.39893e-12)
(1.26479e-12 -8.73742e-12 6.23624e-12)
(9.79454e-13 -7.33315e-12 6.97831e-12)
(1.16284e-12 -7.80494e-12 5.14834e-12)
(1.9834e-12 -6.55493e-12 4.64092e-12)
(1.86102e-12 -7.05569e-12 3.91494e-12)
(6.66304e-13 -5.62798e-12 3.26925e-12)
(-8.1384e-13 -7.23573e-12 3.33789e-12)
(-2.79566e-13 -7.19098e-12 2.66939e-12)
(-7.59612e-13 -5.88129e-12 2.47801e-12)
(-7.7273e-13 -6.42326e-12 8.95761e-13)
(-4.57328e-13 -6.10244e-12 1.43794e-12)
(-3.21162e-12 -8.32824e-12 1.70041e-12)
(-4.36144e-12 -8.84483e-12 7.92185e-13)
(-2.89142e-12 -6.84195e-12 -1.71534e-12)
(-1.22299e-12 -4.78256e-12 -5.70578e-12)
(-1.08842e-12 -2.0777e-12 -8.13234e-12)
(-2.91615e-12 -5.11502e-12 -1.11038e-11)
(-2.68596e-12 -3.81626e-12 -1.29124e-11)
(-1.11191e-12 -7.15424e-12 -1.27328e-11)
(9.63276e-13 -8.04705e-12 -8.67873e-12)
(1.38396e-12 -1.06426e-11 -6.50512e-12)
(6.60138e-13 -1.06551e-11 -5.52211e-12)
(2.57417e-12 -9.48525e-12 -6.14264e-12)
(2.96476e-12 -7.63934e-12 -8.07085e-12)
(2.63678e-12 -5.59139e-12 -1.07445e-11)
(3.52919e-12 -3.85214e-12 -1.11173e-11)
(2.28322e-12 -4.0154e-12 -1.03907e-11)
(1.79741e-12 -3.47601e-12 -8.87175e-12)
(2.11718e-12 -1.20776e-12 -9.13978e-12)
(1.97155e-12 -6.74594e-13 -1.00664e-11)
(3.08984e-12 7.60786e-14 -9.31862e-12)
(1.27482e-12 -4.36612e-13 -9.12227e-12)
(-6.45541e-13 -2.34851e-13 -6.76215e-12)
(5.34345e-13 -1.84028e-12 -3.82038e-12)
(1.09282e-12 -1.84745e-12 -3.71541e-12)
(1.66312e-12 -4.07855e-12 -4.84168e-12)
(-3.55403e-14 -9.54739e-13 -5.91597e-12)
(-2.09113e-12 -1.38607e-12 -8.14879e-12)
(-2.73234e-13 -6.00627e-14 -8.95883e-12)
(-1.60817e-12 2.24247e-12 -8.68064e-12)
(-2.99393e-12 -7.37098e-14 -7.15725e-12)
(-1.10117e-12 -4.32727e-13 -4.03674e-12)
(4.75267e-14 -3.73155e-12 1.87481e-12)
(2.20542e-12 -5.36112e-12 7.37904e-12)
(1.41461e-12 -6.14734e-12 1.14279e-11)
(-1.31982e-13 -7.0864e-12 7.0753e-12)
(-1.03677e-12 -3.83813e-12 -3.33489e-13)
(-1.77466e-12 -8.32586e-12 -7.41678e-12)
(-1.48308e-12 -7.19438e-12 -1.17594e-11)
(-2.76903e-14 -5.97044e-12 -1.25383e-11)
(1.00807e-13 -6.50141e-12 -1.21323e-11)
(-9.53816e-13 -9.23755e-12 -1.10014e-11)
(-1.86334e-12 -8.56716e-12 -9.8455e-12)
(-1.3286e-12 -1.00811e-11 -9.17118e-12)
(-1.01212e-12 -7.94788e-12 -5.78192e-12)
(-1.76518e-12 -9.36014e-12 -3.77351e-12)
(-3.61303e-12 -6.15092e-12 -1.69695e-12)
(-4.64412e-12 -6.25255e-12 5.11897e-13)
(2.12761e-12 -1.09689e-11 6.4638e-12)
(9.60829e-13 -9.34581e-12 8.12253e-12)
(-6.95149e-13 -9.72852e-12 5.84181e-12)
(-8.82997e-13 -6.83521e-12 2.28394e-12)
(-1.02656e-12 -9.08196e-12 3.39857e-13)
(-2.00808e-12 -7.2072e-12 -1.22048e-12)
(-1.8801e-12 -9.28669e-12 -2.9164e-12)
(-1.88287e-13 -8.65885e-12 -3.89359e-12)
(3.93123e-13 -9.82416e-12 -4.81863e-12)
(7.40121e-13 -9.51377e-12 -4.71844e-12)
(1.15045e-12 -1.0547e-11 -5.38885e-12)
(-1.19566e-12 -8.91773e-12 -6.04455e-12)
(-2.03384e-13 -6.17403e-12 -7.11509e-12)
(2.34795e-12 -7.33885e-12 -7.53138e-12)
(1.70617e-12 -9.86006e-12 -7.48287e-12)
(1.15651e-12 -8.99609e-12 -5.42235e-12)
(2.21632e-12 -1.34936e-11 -1.93094e-12)
(1.53967e-12 -1.41342e-11 1.90104e-12)
(1.26569e-12 -1.55963e-11 9.54614e-13)
(1.54932e-12 -1.45495e-11 -1.11571e-12)
(2.66494e-12 -1.35001e-11 -2.19122e-12)
(1.55447e-12 -1.28999e-11 -2.51944e-12)
(9.97682e-14 -1.28994e-11 7.81035e-13)
(1.83267e-12 -1.27405e-11 1.87847e-12)
(3.10558e-12 -1.20995e-11 -1.59586e-12)
(2.08741e-12 -1.02541e-11 -2.9105e-12)
(6.84388e-13 -1.13783e-11 -3.22152e-12)
(-3.32677e-13 -1.00518e-11 -3.07537e-12)
(-2.53174e-12 -1.13967e-11 -2.56418e-12)
(-2.30977e-12 -8.8433e-12 1.23825e-12)
(8.94757e-13 -1.12076e-11 8.01374e-12)
(9.69917e-13 -9.25357e-12 1.65629e-11)
(3.20379e-12 -8.18632e-12 2.04326e-11)
(4.20696e-12 -1.1422e-11 2.24617e-11)
(3.73804e-12 -1.53611e-11 2.33968e-11)
(3.5431e-12 -1.47846e-11 1.74588e-11)
(-1.67832e-13 -1.74899e-11 9.51182e-12)
(6.51156e-13 -1.58699e-11 2.98583e-12)
(1.70971e-12 -1.3544e-11 1.22382e-12)
(2.14025e-12 -1.35964e-11 1.31566e-12)
(6.27511e-13 -1.39071e-11 2.8064e-12)
(-3.55668e-13 -1.23093e-11 4.37528e-12)
(8.18327e-13 -1.20092e-11 4.4061e-12)
(2.15263e-12 -1.04256e-11 4.19803e-12)
(1.48745e-12 -1.0966e-11 3.79705e-12)
(4.88813e-13 -9.8124e-12 3.24853e-12)
(-2.25876e-13 -8.91529e-12 3.07253e-12)
(-3.66667e-13 -9.98653e-12 1.78e-12)
(-7.18792e-13 -8.86167e-12 -7.91904e-13)
(-4.13982e-13 -7.21074e-12 -9.64564e-13)
(-3.30737e-14 -9.27028e-12 -5.6949e-14)
(-1.85053e-12 -1.05548e-11 6.99586e-13)
(-3.50934e-12 -1.28503e-11 6.13455e-13)
(-4.06628e-12 -1.11606e-11 -2.47497e-12)
(-3.15855e-12 -8.86586e-12 -7.78852e-12)
(-1.31229e-12 -4.89071e-12 -1.06308e-11)
(-1.35954e-12 -7.40659e-12 -1.38167e-11)
(-1.28801e-12 -9.62705e-12 -1.58431e-11)
(1.06707e-13 -1.02615e-11 -1.32541e-11)
(1.93729e-13 -1.17445e-11 -8.88696e-12)
(9.73693e-13 -1.43342e-11 -6.49865e-12)
(1.542e-12 -1.53415e-11 -5.54425e-12)
(1.94811e-12 -1.52935e-11 -5.90726e-12)
(2.7461e-12 -1.32634e-11 -6.99096e-12)
(2.03312e-12 -1.05066e-11 -8.50193e-12)
(1.60122e-12 -8.01022e-12 -8.42522e-12)
(1.98766e-12 -9.16086e-12 -8.82757e-12)
(2.06987e-12 -8.1336e-12 -7.57396e-12)
(2.01091e-12 -6.86595e-12 -6.93026e-12)
(1.09257e-12 -7.10772e-12 -6.82808e-12)
(2.52315e-12 -6.11458e-12 -6.93403e-12)
(1.83949e-12 -5.67991e-12 -7.05243e-12)
(4.06058e-13 -7.05455e-12 -6.20168e-12)
(6.6273e-13 -8.13284e-12 -4.568e-12)
(1.36139e-12 -7.19914e-12 -4.29949e-12)
(9.47184e-13 -8.12964e-12 -4.57426e-12)
(-8.46232e-13 -7.12202e-12 -5.30667e-12)
(-1.11403e-12 -8.36338e-12 -6.52188e-12)
(-1.95439e-12 -5.66056e-12 -7.78056e-12)
(-2.0593e-12 -2.88497e-12 -8.63174e-12)
(-1.8437e-12 -4.57303e-12 -5.81819e-12)
(7.71136e-13 -6.88995e-12 -1.20482e-12)
(1.75734e-12 -9.23369e-12 5.32497e-12)
(1.65773e-12 -1.10261e-11 8.51005e-12)
(2.08539e-12 -9.33292e-12 1.20779e-11)
(-8.53236e-14 -1.30101e-11 8.71524e-12)
(-9.95198e-13 -9.43901e-12 4.18185e-13)
(-1.47678e-12 -1.18109e-11 -7.79922e-12)
(-1.94772e-12 -9.66822e-12 -1.40026e-11)
(-1.07673e-12 -1.12833e-11 -1.35916e-11)
(5.95501e-14 -1.03997e-11 -1.33183e-11)
(6.02006e-13 -1.17638e-11 -1.1212e-11)
(-3.74935e-13 -1.41314e-11 -9.05327e-12)
(-1.97491e-12 -1.5284e-11 -7.31458e-12)
(-1.46422e-12 -1.30545e-11 -5.37532e-12)
(-2.03069e-12 -1.33044e-11 -2.86876e-12)
(-3.99342e-12 -1.17124e-11 -6.04873e-13)
(-4.00734e-12 -1.21199e-11 2.00106e-12)
(1.85727e-12 -9.96923e-12 3.73136e-12)
(9.03763e-13 -9.85057e-12 1.02264e-11)
(-2.51891e-12 -1.00134e-11 7.17512e-12)
(-1.48574e-12 -9.63649e-12 3.02984e-12)
(-1.88274e-13 -8.06284e-12 9.17255e-13)
(-2.28265e-12 -7.19109e-12 2.03906e-13)
(-2.12784e-12 -6.16497e-12 -1.99477e-12)
(-3.29377e-13 -6.66154e-12 -3.58147e-12)
(1.21246e-12 -5.93775e-12 -4.5841e-12)
(1.73057e-12 -7.08477e-12 -5.37529e-12)
(8.5565e-13 -9.15387e-12 -6.86135e-12)
(-3.3034e-12 -7.7946e-12 -8.03924e-12)
(-1.0176e-12 -9.95265e-12 -7.69899e-12)
(4.28969e-12 -1.03485e-11 -7.71172e-12)
(1.54755e-12 -1.00563e-11 -8.27764e-12)
(3.25555e-12 -9.99172e-12 -4.87927e-12)
(4.24712e-12 -1.22905e-11 1.3251e-12)
(2.41914e-12 -1.29127e-11 7.48356e-12)
(1.6253e-12 -1.42778e-11 3.46545e-12)
(-2.31463e-13 -1.34816e-11 3.82733e-13)
(1.73129e-12 -1.11487e-11 -4.75036e-13)
(2.09128e-12 -1.0831e-11 7.41102e-13)
(1.11378e-12 -1.01355e-11 4.50442e-12)
(1.71568e-12 -9.87566e-12 5.11545e-12)
(1.19966e-12 -7.47159e-12 1.10368e-12)
(2.30402e-12 -6.92539e-12 -2.08294e-12)
(3.66839e-13 -9.54078e-12 -3.67501e-12)
(-1.17219e-12 -8.07488e-12 -4.91447e-12)
(-4.26726e-12 -1.03991e-11 -2.91659e-12)
(-3.66453e-12 -1.05449e-11 1.97963e-12)
(2.03065e-12 -1.11455e-11 8.82401e-12)
(6.24348e-13 -9.3334e-12 1.82727e-11)
(4.80914e-12 -8.99115e-12 1.86524e-11)
(7.45151e-12 -1.1745e-11 2.24971e-11)
(4.23496e-12 -1.30946e-11 1.9416e-11)
(3.23035e-12 -1.42566e-11 1.08514e-11)
(1.6487e-12 -1.5177e-11 3.87455e-12)
(-9.07221e-13 -1.44285e-11 9.02517e-13)
(1.1108e-12 -1.21479e-11 -6.25463e-13)
(2.81647e-12 -1.05457e-11 -1.08676e-12)
(1.01906e-12 -1.015e-11 1.34981e-13)
(-1.01831e-13 -9.15338e-12 2.42522e-12)
(-8.47477e-13 -8.63687e-12 3.75026e-12)
(7.83744e-13 -8.53586e-12 3.90006e-12)
(1.74629e-12 -7.2373e-12 3.51414e-12)
(-3.07029e-13 -7.94508e-12 3.2664e-12)
(-1.50662e-13 -6.32217e-12 2.61898e-12)
(-4.57904e-13 -9.54445e-12 7.1325e-13)
(-3.57392e-12 -9.20355e-12 -3.1208e-12)
(6.23693e-14 -9.42442e-12 -1.46923e-12)
(2.3028e-12 -9.25976e-12 -2.11853e-12)
(-8.28637e-13 -1.01168e-11 -2.1259e-12)
(-3.13898e-12 -1.16307e-11 -9.69115e-13)
(-5.32509e-12 -9.73616e-12 -3.50193e-12)
(-5.9029e-12 -7.38815e-12 -9.20394e-12)
(-1.80182e-12 -9.55909e-12 -1.23391e-11)
(5.14508e-13 -9.06588e-12 -1.73436e-11)
(-3.59519e-13 -1.06954e-11 -2.03291e-11)
(4.16252e-13 -8.43112e-12 -1.4398e-11)
(2.27943e-12 -1.09821e-11 -9.34029e-12)
(3.11639e-12 -1.17139e-11 -6.71939e-12)
(2.24255e-12 -1.38161e-11 -6.28782e-12)
(2.20155e-12 -1.18438e-11 -6.41625e-12)
(1.98358e-13 -1.0994e-11 -6.60418e-12)
(-6.42058e-13 -7.55012e-12 -7.37444e-12)
(2.20869e-12 -6.6601e-12 -8.08228e-12)
(2.76258e-12 -7.03758e-12 -6.69176e-12)
(9.45343e-13 -5.23769e-12 -5.69753e-12)
(2.06681e-12 -4.04846e-12 -4.12153e-12)
(9.77134e-13 -3.74597e-12 -4.88042e-12)
(2.27971e-12 -3.27797e-12 -5.39994e-12)
(2.85845e-12 -3.04688e-12 -6.17762e-12)
(1.96239e-12 -4.55714e-12 -6.43977e-12)
(1.80433e-13 -5.92103e-12 -5.3576e-12)
(4.41498e-13 -7.34015e-12 -4.50111e-12)
(2.21221e-12 -5.42815e-12 -4.41751e-12)
(4.66038e-13 -6.12442e-12 -4.80589e-12)
(-2.71477e-12 -6.14955e-12 -5.93116e-12)
(-4.22028e-12 -4.72475e-12 -7.42267e-12)
(-1.74021e-12 -3.86599e-12 -8.90485e-12)
(-6.25776e-13 -3.73864e-12 -4.47096e-12)
(9.95925e-13 -5.77641e-12 4.95138e-13)
(3.00569e-12 -6.60114e-12 7.17903e-12)
(8.89584e-13 -7.9917e-12 1.10241e-11)
(2.76979e-12 -7.38831e-12 1.45946e-11)
(9.61175e-13 -1.17986e-11 9.35144e-12)
(-3.74363e-12 -1.00787e-11 7.83987e-13)
(-2.45124e-12 -1.06476e-11 -9.14489e-12)
(-5.26957e-13 -1.10709e-11 -1.73869e-11)
(7.50099e-13 -1.29808e-11 -1.49728e-11)
(4.75482e-14 -1.06873e-11 -1.53779e-11)
(1.56393e-12 -8.55063e-12 -1.24886e-11)
(6.13744e-13 -1.06163e-11 -9.45477e-12)
(-2.1629e-12 -9.97149e-12 -7.18477e-12)
(-2.23363e-12 -1.0967e-11 -4.34401e-12)
(-8.15451e-13 -1.13114e-11 -1.89895e-12)
(-2.48225e-12 -1.04109e-11 1.01174e-12)
(-6.52444e-12 -1.16298e-11 3.69378e-12)
(1.84334e-12 -6.80663e-12 -5.53742e-13)
(1.15447e-12 -7.81875e-12 4.27794e-12)
(-4.93664e-13 -6.47235e-12 3.97524e-12)
(-1.59069e-12 -7.72411e-12 2.1003e-12)
(-2.86212e-12 -5.36819e-12 1.25275e-12)
(-4.04113e-12 -5.746e-12 2.01463e-12)
(-3.64412e-12 -3.4073e-12 -1.45992e-12)
(-8.95109e-13 -3.55945e-12 -3.50826e-12)
(1.32207e-12 -2.59188e-12 -5.38072e-12)
(3.76554e-12 -3.67793e-12 -5.95354e-12)
(2.11123e-12 -4.63546e-12 -7.80736e-12)
(-5.81851e-13 -5.82781e-12 -9.93482e-12)
(1.77686e-12 -8.52565e-12 -8.10073e-12)
(2.30407e-12 -7.64689e-12 -5.96844e-12)
(1.2305e-12 -6.31546e-12 -5.08632e-12)
(1.81924e-12 -8.0032e-12 -3.81182e-12)
(2.31383e-12 -6.5388e-12 2.49653e-13)
(2.16555e-12 -7.90524e-12 2.73625e-12)
(1.66657e-12 -7.00849e-12 1.93857e-12)
(-1.67285e-12 -8.44174e-12 1.28001e-12)
(-2.91964e-13 -8.30327e-12 6.70828e-13)
(6.96565e-13 -7.84287e-12 1.12315e-12)
(-1.59234e-13 -6.71003e-12 2.13962e-12)
(8.9802e-13 -5.67314e-12 2.09996e-12)
(8.99033e-13 -3.23986e-12 -3.55039e-13)
(4.09168e-12 -3.11358e-12 -1.84604e-12)
(7.17659e-13 -4.02134e-12 -3.06354e-12)
(3.009e-13 -3.73797e-12 -5.64011e-12)
(-2.73935e-14 -5.91673e-12 -2.04446e-12)
(-2.49068e-12 -1.05784e-11 1.31811e-12)
(-1.06949e-12 -9.14038e-12 6.00384e-12)
(-1.25302e-12 -8.96772e-12 1.07653e-11)
(5.01603e-12 -9.65547e-12 1.17403e-11)
(6.85211e-12 -7.79083e-12 1.40644e-11)
(4.92899e-12 -6.70709e-12 1.26779e-11)
(4.98657e-12 -9.1597e-12 9.48356e-12)
(1.57906e-12 -8.12244e-12 4.43804e-12)