/*--------------------------------*- C++ -*----------------------------------*\
| =========                 |                                                 |
| \\      /  F ield         | OpenFOAM: The Open Source CFD Toolbox           |
|  \\    /   O peration     | Version:  2406                                  |
|   \\  /    A nd           | Website:  www.openfoam.com                      |
|    \\/     M anipulation  |                                                 |
\*---------------------------------------------------------------------------*/
FoamFile
{
    version     2.0;
    format      ascii;
    arch        "LSB;label=32;scalar=64";
    class       volScalarField;
    location    "0.06";
    object      Ma;
}
// * * * * * * * * * * * * * * * * * * * * * * * * * * * * * * * * * * * * * //

dimensions      [0 0 0 0 0 0 0];

internalField   nonuniform List<scalar> 
13948
(
0.03058
0.0142901
0.0107601
0.0110971
0.013379
0.015242
0.0134244
0.00958574
0.00406723
0.0006896
2.98786e-05
2.14236e-07
1.74699e-10
1.47005e-13
1.62716e-13
1.59359e-13
1.52916e-13
1.09676e-13
8.65151e-14
8.40127e-14
7.24362e-14
7.5319e-14
5.2591e-14
2.55059e-14
1.7852e-14
4.42399e-14
5.69488e-14
6.35186e-14
7.17641e-14
5.40134e-14
5.83319e-14
1.15825e-13
1.13135e-13
8.21237e-14
6.16524e-14
2.99893e-14
5.65969e-14
8.47116e-14
6.65042e-14
5.15609e-14
8.53016e-14
9.12718e-14
6.26117e-14
8.69956e-14
1.05617e-13
6.05401e-14
4.25205e-14
6.72652e-14
6.54514e-14
7.91211e-14
1.01605e-13
1.09817e-13
9.90936e-14
9.64871e-14
1.04282e-13
8.55625e-14
6.00651e-14
7.73422e-14
1.00195e-13
1.13652e-13
8.64532e-14
1.02534e-13
6.75519e-14
9.16709e-14
8.11958e-14
4.98044e-14
7.51188e-14
4.72906e-14
6.40941e-14
5.71284e-14
2.71635e-14
3.78382e-14
5.91251e-14
4.6931e-14
5.03027e-14
6.93911e-14
9.40428e-14
9.20307e-14
8.45272e-14
7.82799e-14
8.41996e-14
8.65682e-14
1.16452e-13
1.03461e-13
8.85443e-14
6.04133e-14
3.20987e-14
2.94339e-14
3.33165e-14
1.33896e-14
2.10695e-14
5.57401e-14
8.20303e-14
9.62381e-14
1.08929e-13
9.70603e-14
1.59058e-13
2.0533e-13
1.96267e-13
0.0455192
0.0278089
0.0141139
0.0105709
0.0109144
0.013547
0.015421
0.0135174
0.00951722
0.00393873
0.000647898
2.71522e-05
1.88037e-07
1.4813e-10
1.37927e-13
1.54256e-13
1.48539e-13
1.49436e-13
1.08324e-13
8.61098e-14
8.14449e-14
7.04971e-14
6.90811e-14
4.52192e-14
3.08494e-14
1.92032e-14
3.30912e-14
4.30545e-14
5.16841e-14
7.70331e-14
5.01079e-14
5.21782e-14
1.04342e-13
1.09508e-13
8.02584e-14
5.66879e-14
2.52681e-14
5.25422e-14
8.85838e-14
6.9452e-14
5.92833e-14
9.30423e-14
8.73103e-14
6.80477e-14
8.53236e-14
9.14784e-14
6.06999e-14
5.45656e-14
6.38592e-14
6.8518e-14
8.26275e-14
1.0005e-13
1.12906e-13
1.00527e-13
9.90072e-14
1.0729e-13
8.98001e-14
6.44827e-14
8.3688e-14
8.79202e-14
8.84531e-14
8.44072e-14
8.61258e-14
7.06801e-14
6.43003e-14
6.68688e-14
3.90941e-14
6.41002e-14
3.22659e-14
5.29686e-14
4.93876e-14
2.52337e-14
3.90166e-14
5.7246e-14
5.08111e-14
5.06036e-14
7.54362e-14
9.82733e-14
9.19457e-14
7.55614e-14
7.88214e-14
8.9902e-14
8.75498e-14
1.19559e-13
1.05308e-13
9.0942e-14
6.15486e-14
3.81922e-14
3.04952e-14
3.8092e-14
1.51725e-14
1.09832e-14
4.12928e-14
6.53484e-14
8.72027e-14
1.04703e-13
1.04659e-13
1.48678e-13
1.83844e-13
1.8186e-13
0.0957158
0.0708409
0.0478678
0.0360047
0.0355339
0.0408489
0.0456332
0.047263
0.0443566
0.0368861
0.025712
0.0152594
0.0115554
0.0114211
0.0136844
0.0150608
0.0129806
0.00892601
0.00356252
0.000557986
2.20028e-05
1.42052e-07
1.0372e-10
1.38601e-13
1.42436e-13
1.3694e-13
1.46168e-13
1.16204e-13
9.54269e-14
8.66312e-14
8.59455e-14
6.95713e-14
5.58236e-14
3.93169e-14
2.61785e-14
2.16399e-14
3.32386e-14
5.59245e-14
7.31817e-14
5.49239e-14
6.06583e-14
9.57608e-14
9.75375e-14
8.08502e-14
6.46699e-14
3.80611e-14
5.68157e-14
8.09446e-14
8.37184e-14
7.90326e-14
8.9676e-14
9.21608e-14
8.91529e-14
8.42143e-14
8.13512e-14
6.26646e-14
6.75437e-14
6.7288e-14
7.44744e-14
7.3191e-14
8.79386e-14
1.04899e-13
1.03728e-13
9.76999e-14
1.07347e-13
9.07734e-14
8.14316e-14
9.03381e-14
7.56462e-14
8.77045e-14
8.3478e-14
8.61191e-14
6.5942e-14
3.92601e-14
4.56458e-14
3.44408e-14
3.67335e-14
2.33543e-14
3.27378e-14
4.1442e-14
2.48455e-14
3.25598e-14
5.93333e-14
5.84079e-14
5.55106e-14
7.83503e-14
1.04567e-13
9.47822e-14
8.32363e-14
7.69596e-14
8.82407e-14
9.62806e-14
1.26088e-13
1.11891e-13
9.1877e-14
7.24147e-14
4.8511e-14
3.81331e-14
4.78248e-14
3.4597e-14
1.57955e-14
2.20576e-14
5.42764e-14
8.76464e-14
1.01315e-13
1.0496e-13
1.39787e-13
1.67672e-13
1.72525e-13
4.66752e-14
4.84601e-14
4.87599e-14
4.11872e-14
3.87538e-14
4.16101e-14
4.2586e-14
4.60968e-14
4.40496e-14
5.59338e-14
7.19296e-14
7.75415e-14
7.1698e-14
6.74327e-14
5.00071e-14
1.69586e-13
1.17798e-09
9.06711e-07
9.78136e-05
0.00210466
0.0133758
0.0369183
0.061835
0.0801809
0.092906
0.10298
0.113401
0.122744
0.128367
0.128755
0.12249
0.111808
0.0980765
0.0807676
0.0631935
0.0476311
0.0384089
0.0348584
0.036179
0.037848
0.0383578
0.0357943
0.0306721
0.0236437
0.0157618
0.0121253
0.0118472
0.0137205
0.0146061
0.0124164
0.00828781
0.00313546
0.00045481
1.62635e-05
9.3661e-08
6.03495e-11
1.38438e-13
1.31755e-13
1.41281e-13
1.46155e-13
1.24146e-13
1.00789e-13
9.18602e-14
9.03001e-14
7.7308e-14
6.29456e-14
5.39673e-14
4.20882e-14
3.38537e-14
4.51945e-14
6.28659e-14
6.43523e-14
6.08824e-14
6.43024e-14
8.15575e-14
9.08383e-14
8.22621e-14
6.25527e-14
4.77208e-14
6.16107e-14
7.56112e-14
8.68351e-14
8.06156e-14
8.29124e-14
8.58668e-14
9.29183e-14
8.39453e-14
7.97158e-14
6.20321e-14
6.772e-14
7.47954e-14
7.83374e-14
7.16221e-14
8.10215e-14
9.75427e-14
8.96448e-14
9.22813e-14
9.54189e-14
8.84822e-14
8.70043e-14
8.0939e-14
6.8801e-14
7.58276e-14
6.42997e-14
7.26529e-14
5.69337e-14
3.55675e-14
3.70181e-14
3.62342e-14
2.46539e-14
1.23711e-14
2.43603e-14
3.58695e-14
2.94308e-14
3.45854e-14
5.50003e-14
5.8276e-14
6.17474e-14
7.13695e-14
9.34909e-14
9.952e-14
8.4224e-14
8.5189e-14
9.43932e-14
1.00589e-13
1.23077e-13
1.13594e-13
9.79441e-14
7.83472e-14
6.23471e-14
5.41216e-14
4.82488e-14
4.74099e-14
3.26146e-14
2.27039e-14
5.30182e-14
8.95929e-14
1.02271e-13
1.02199e-13
1.38757e-13
1.61143e-13
1.71596e-13
3.90026e-14
4.11852e-14
4.27031e-14
3.84946e-14
2.57465e-14
1.96237e-14
2.08819e-14
2.61071e-14
2.98691e-14
4.03255e-14
3.47073e-14
4.13019e-14
5.253e-14
5.98557e-14
5.959e-14
4.95412e-14
3.52201e-14
3.15579e-14
7.88183e-11
1.20022e-07
2.3519e-05
0.000820203
0.00747222
0.026255
0.0504801
0.0696211
0.0819573
0.0902103
0.0975575
0.102281
0.10417
0.103543
0.0989071
0.0908646
0.0804795
0.0687896
0.0560763
0.0455105
0.0378982
0.0336951
0.032739
0.0324699
0.0317823
0.0294299
0.0259823
0.0214449
0.0156171
0.0122761
0.0120427
0.0135713
0.014031
0.0117902
0.00755055
0.00265923
0.000347093
1.08241e-05
5.30547e-08
2.86317e-11
1.28722e-13
1.35394e-13
1.38961e-13
1.27126e-13
1.21927e-13
1.01737e-13
9.70956e-14
8.47913e-14
7.83633e-14
6.31899e-14
5.01891e-14
4.38992e-14
3.49006e-14
4.82973e-14
6.02812e-14
5.63792e-14
5.36833e-14
6.20265e-14
7.2652e-14
8.77993e-14
7.00189e-14
6.36695e-14
6.18649e-14
6.20628e-14
6.75454e-14
7.99246e-14
7.52916e-14
8.83085e-14
9.13112e-14
8.9183e-14
8.16252e-14
7.14913e-14
6.87741e-14
5.89413e-14
7.05045e-14
8.11969e-14
8.67392e-14
8.59328e-14
9.19376e-14
7.41488e-14
8.11385e-14
7.32833e-14
8.06634e-14
7.1882e-14
6.26671e-14
5.8506e-14
6.57255e-14
5.45725e-14
7.25751e-14
5.34301e-14
3.80575e-14
3.90335e-14
3.7097e-14
3.04792e-14
1.74266e-14
2.53814e-14
4.54352e-14
3.44746e-14
4.04597e-14
5.22446e-14
5.331e-14
5.56338e-14
7.89675e-14
8.31648e-14
8.75542e-14
7.6585e-14
7.97744e-14
9.18397e-14
1.06543e-13
1.03544e-13
1.04837e-13
9.09271e-14
6.92132e-14
5.86226e-14
5.52003e-14
4.72373e-14
4.49011e-14
2.91733e-14
3.10289e-14
4.69122e-14
8.72335e-14
1.11296e-13
1.19377e-13
1.33654e-13
1.43236e-13
1.47496e-13
4.07093e-14
5.09061e-14
5.87385e-14
4.6363e-14
2.90311e-14
1.46295e-14
3.55152e-14
2.5069e-14
1.55863e-14
1.93706e-14
2.9486e-14
2.49274e-14
3.31107e-14
4.21576e-14
4.96646e-14
4.25646e-14
3.17747e-14
2.49301e-14
2.46625e-14
2.73585e-12
9.08806e-09
3.6291e-06
0.00023068
0.00333771
0.0162383
0.0381954
0.05845
0.0716249
0.0793562
0.0849938
0.0869131
0.0858429
0.0841622
0.0806177
0.0747718
0.067234
0.0588068
0.0500435
0.0420809
0.0359907
0.0323758
0.0301905
0.0285577
0.027156
0.0249557
0.0224283
0.0191964
0.0147232
0.011938
0.0120937
0.0136045
0.0135856
0.011198
0.00673878
0.00215008
0.00024345
6.32943e-06
2.50699e-08
1.07065e-11
1.28056e-13
1.36856e-13
1.20482e-13
1.16758e-13
1.16697e-13
9.49615e-14
9.4491e-14
8.79709e-14
8.19529e-14
6.00777e-14
4.69432e-14
4.53652e-14
3.49627e-14
4.54326e-14
6.12838e-14
5.02534e-14
4.74264e-14
5.98761e-14
5.89833e-14
7.16677e-14
5.41906e-14
6.16798e-14
6.16812e-14
5.24742e-14
5.66919e-14
7.39435e-14
7.50622e-14
9.69583e-14
9.31895e-14
7.47111e-14
6.89613e-14
7.31066e-14
6.9018e-14
6.39571e-14
7.42683e-14
6.9312e-14
7.66611e-14
8.16397e-14
9.36591e-14
8.08589e-14
7.68536e-14
7.33863e-14
6.66554e-14
7.21186e-14
5.48392e-14
6.11102e-14
7.15826e-14
4.8202e-14
7.03306e-14
4.98738e-14
3.59764e-14
4.32817e-14
4.44969e-14
3.68911e-14
3.24647e-14
3.49506e-14
4.25119e-14
3.87363e-14
4.01594e-14
6.23148e-14
5.51699e-14
4.60642e-14
7.04861e-14
8.00432e-14
7.90598e-14
6.71485e-14
5.84918e-14
7.72122e-14
9.00812e-14
8.8746e-14
9.12585e-14
8.11763e-14
5.89839e-14
5.57757e-14
5.04253e-14
5.56796e-14
5.44496e-14
3.76879e-14
3.62902e-14
4.96015e-14
8.43295e-14
1.1216e-13
1.30811e-13
1.28724e-13
1.25253e-13
1.24531e-13
4.57027e-14
5.14253e-14
6.29439e-14
4.85433e-14
2.41557e-14
1.69203e-14
4.25951e-14
2.39983e-14
9.34329e-15
2.18963e-14
3.27599e-14
2.67372e-14
2.80599e-14
3.5306e-14
4.0237e-14
3.31389e-14
2.37092e-14
2.27595e-14
2.41867e-14
5.14098e-14
3.41618e-10
3.09852e-07
4.10514e-05
0.00107524
0.00809546
0.0254585
0.0460913
0.0611748
0.0696718
0.0747451
0.0758551
0.0725122
0.0693048
0.0663872
0.0620871
0.0566339
0.0504795
0.0443089
0.0383494
0.0335059
0.0301337
0.0278532
0.0258413
0.0237896
0.0217872
0.0197072
0.0170999
0.0136277
0.0115152
0.012088
0.0135861
0.013079
0.010467
0.00581082
0.00162577
0.000152922
3.14531e-06
9.48099e-09
3.01036e-12
1.30638e-13
1.25382e-13
1.17126e-13
1.13113e-13
1.0403e-13
9.02657e-14
9.57504e-14
9.79126e-14
9.08716e-14
7.33441e-14
5.67841e-14
4.62605e-14
4.08471e-14
4.29955e-14
6.51181e-14
6.30385e-14
6.16473e-14
5.89325e-14
5.65145e-14
6.47177e-14
6.72927e-14
6.01613e-14
6.11234e-14
6.50912e-14
6.47852e-14
6.90251e-14
8.15359e-14
9.45736e-14
8.63125e-14
7.53574e-14
8.51683e-14
8.68188e-14
7.68073e-14
7.87758e-14
6.81609e-14
6.89078e-14
7.43997e-14
8.32427e-14
7.71755e-14
7.92221e-14
7.77211e-14
7.29251e-14
7.02623e-14
6.52798e-14
5.13474e-14
6.28481e-14
6.46301e-14
4.34438e-14
6.40774e-14
4.49365e-14
3.08918e-14
4.46457e-14
4.05532e-14
3.85421e-14
4.59861e-14
5.46632e-14
6.09996e-14
5.44405e-14
4.98767e-14
6.91867e-14
5.24678e-14
5.54957e-14
5.65118e-14
7.11029e-14
6.73022e-14
6.91302e-14
6.55179e-14
7.47851e-14
7.12797e-14
7.90347e-14
8.12251e-14
8.22069e-14
7.33866e-14
7.14932e-14
6.13375e-14
6.09838e-14
6.22363e-14
5.67247e-14
4.83546e-14
4.8733e-14
7.90841e-14
1.11072e-13
1.24856e-13
1.17622e-13
1.1088e-13
1.01263e-13
5.40452e-14
4.99699e-14
5.49666e-14
4.93167e-14
3.13525e-14
2.17837e-14
2.49081e-14
2.32812e-14
2.57934e-14
3.33208e-14
3.50646e-14
3.79963e-14
3.91467e-14
4.57714e-14
4.4448e-14
4.03925e-14
3.81499e-14
3.23274e-14
3.21911e-14
3.97901e-14
5.6919e-12
1.24328e-08
3.89219e-06
0.000215375
0.00289849
0.0137463
0.0323283
0.049563
0.0602636
0.0657404
0.0678038
0.0640557
0.0592936
0.0557147
0.0521287
0.0481308
0.0436173
0.0391819
0.0348127
0.0308275
0.0279794
0.0257032
0.0237498
0.0215515
0.019722
0.0178767
0.01551
0.0126345
0.0113478
0.0123015
0.0136381
0.0125614
0.00956832
0.00476379
0.00112068
8.30635e-05
1.26909e-06
2.70889e-09
6.30431e-13
1.40971e-13
1.23118e-13
1.24145e-13
1.05977e-13
1.00624e-13
1.06587e-13
1.07987e-13
1.08091e-13
9.78747e-14
8.50136e-14
7.52815e-14
6.11068e-14
6.38767e-14
5.72197e-14
6.39819e-14
7.10736e-14
7.71321e-14
7.82883e-14
7.7412e-14
8.21468e-14
8.09628e-14
6.76144e-14
7.42143e-14
8.48173e-14
7.85229e-14
7.6399e-14
8.70177e-14
9.00025e-14
8.32303e-14
9.11455e-14
9.82743e-14
9.12148e-14
9.41224e-14
8.32666e-14
6.61109e-14
8.17327e-14
8.78459e-14
8.87611e-14
6.85377e-14
8.05764e-14
8.68163e-14
8.86922e-14
9.05335e-14
6.77716e-14
6.45449e-14
7.08322e-14
5.82313e-14
5.1046e-14
4.58691e-14
3.77053e-14
3.40431e-14
4.8035e-14
5.19523e-14
5.98791e-14
6.50833e-14
7.07764e-14
7.31674e-14
7.10104e-14
6.49113e-14
6.56166e-14
5.74906e-14
7.18388e-14
5.9937e-14
6.16437e-14
6.37841e-14
8.09412e-14
8.80377e-14
9.37066e-14
9.2756e-14
8.99051e-14
9.88511e-14
8.98376e-14
9.45275e-14
9.46814e-14
8.30454e-14
7.65707e-14
8.22066e-14
7.47375e-14
6.33503e-14
7.1671e-14
9.38466e-14
1.12901e-13
1.15275e-13
1.12392e-13
1.01975e-13
8.79807e-14
5.53675e-14
6.08475e-14
5.94092e-14
5.9614e-14
4.76518e-14
4.88437e-14
4.04943e-14
4.59313e-14
4.76193e-14
4.8897e-14
4.93106e-14
5.65519e-14
5.69347e-14
6.61572e-14
5.58079e-14
5.45833e-14
5.0494e-14
5.04709e-14
4.75398e-14
5.11906e-14
8.51675e-14
2.08533e-10
1.63483e-07
2.20246e-05
0.000630004
0.00527235
0.0183319
0.0358323
0.0496162
0.0571738
0.0606928
0.0588945
0.0529484
0.0481324
0.0443406
0.0408962
0.0374211
0.0343152
0.0310978
0.028072
0.0257969
0.0236539
0.0218656
0.0198372
0.0181502
0.0164132
0.0141738
0.0119038
0.0114868
0.0127199
0.0135371
0.0119114
0.00841288
0.00361412
0.000678342
3.71101e-05
3.89486e-07
5.38362e-10
1.84465e-13
1.42603e-13
1.37215e-13
1.31819e-13
1.14295e-13
1.13412e-13
1.19417e-13
1.18347e-13
1.20682e-13
1.04839e-13
1.01066e-13
9.47873e-14
8.30027e-14
8.80163e-14
8.23653e-14
8.47178e-14
8.13199e-14
8.6418e-14
9.02298e-14
8.95664e-14
1.03126e-13
1.01713e-13
8.90749e-14
9.22437e-14
9.23095e-14
9.03456e-14
9.79558e-14
1.02525e-13
1.00348e-13
9.97947e-14
1.07385e-13
1.08674e-13
9.97692e-14
1.09889e-13
9.77097e-14
8.3909e-14
9.81453e-14
1.0232e-13
1.02182e-13
8.72389e-14
1.01208e-13
1.03502e-13
1.07233e-13
1.0203e-13
8.08171e-14
8.61159e-14
8.53637e-14
7.16826e-14
6.35225e-14
5.95368e-14
4.61345e-14
5.02034e-14
5.56727e-14
6.57421e-14
8.38933e-14
8.23598e-14
8.79194e-14
9.33956e-14
8.41406e-14
7.90385e-14
8.03035e-14
7.01242e-14
8.51525e-14
7.29474e-14
6.88841e-14
8.20136e-14
9.79123e-14
9.7084e-14
9.80501e-14
1.04188e-13
1.04637e-13
1.19142e-13
1.07504e-13
1.07062e-13
1.11429e-13
1.02656e-13
1.01509e-13
9.48651e-14
9.50343e-14
8.18505e-14
8.67329e-14
1.01841e-13
1.15287e-13
1.12505e-13
1.0151e-13
9.71844e-14
8.51165e-14
5.87038e-14
6.46982e-14
6.81339e-14
6.22614e-14
5.40837e-14
5.03111e-14
4.9544e-14
4.38191e-14
4.55249e-14
4.23159e-14
5.28501e-14
5.1053e-14
5.54276e-14
5.69149e-14
5.48036e-14
5.35836e-14
5.64753e-14
5.7881e-14
5.65736e-14
4.76358e-14
4.2753e-14
1.57068e-12
2.71222e-09
9.37132e-07
6.64945e-05
0.00118555
0.00721731
0.0206614
0.0362184
0.0473617
0.0529616
0.0545315
0.0505581
0.0443462
0.0392679
0.0354632
0.0321557
0.0295533
0.0269554
0.0247227
0.0229984
0.0211991
0.0196443
0.0179424
0.0164192
0.0148612
0.0130205
0.011583
0.0118782
0.0133212
0.0133237
0.0111041
0.00693074
0.00243657
0.000341346
1.26714e-05
8.27377e-08
6.63999e-11
1.13791e-13
1.25201e-13
1.37697e-13
1.1969e-13
1.01359e-13
9.38066e-14
1.03857e-13
1.08005e-13
1.04583e-13
9.30722e-14
1.00316e-13
9.61894e-14
8.83466e-14
8.77054e-14
7.68937e-14
7.54858e-14
7.89588e-14
8.56289e-14
8.72358e-14
8.80349e-14
9.54214e-14
9.13005e-14
9.53226e-14
8.57669e-14
8.57089e-14
8.31314e-14
9.29529e-14
8.38785e-14
8.37438e-14
9.00237e-14
9.91202e-14
9.70273e-14
1.06676e-13
9.78855e-14
8.94506e-14
9.21032e-14
9.63579e-14
8.94429e-14
8.71529e-14
9.24017e-14
9.58771e-14
9.25363e-14
8.90375e-14
8.06005e-14
6.02972e-14
7.88205e-14
8.45798e-14
7.61115e-14
6.22327e-14
7.08451e-14
5.84137e-14
6.52325e-14
6.8753e-14
7.36812e-14
9.60309e-14
9.52285e-14
9.75687e-14
9.45373e-14
9.00784e-14
7.9791e-14
8.63312e-14
7.16493e-14
8.07091e-14
7.49069e-14
7.15776e-14
7.61471e-14
9.07435e-14
9.03543e-14
8.37682e-14
9.418e-14
1.0043e-13
1.18215e-13
1.08488e-13
1.10688e-13
1.04898e-13
1.07853e-13
1.05705e-13
8.68335e-14
9.28241e-14
8.64074e-14
8.97213e-14
9.81278e-14
1.07858e-13
1.02715e-13
8.81569e-14
8.17238e-14
7.7265e-14
5.71271e-14
5.45589e-14
5.7017e-14
5.15506e-14
4.94521e-14
3.77403e-14
4.02969e-14
3.22792e-14
3.36223e-14
3.46312e-14
4.47257e-14
4.47616e-14
5.05692e-14
5.8347e-14
5.61334e-14
5.26218e-14
5.21736e-14
5.04585e-14
4.91342e-14
4.26436e-14
4.10198e-14
4.46877e-14
1.98737e-11
1.49603e-08
2.7333e-06
0.000121775
0.00158352
0.00794767
0.0204789
0.0341047
0.0435773
0.048074
0.0480249
0.0441876
0.0387464
0.0338219
0.0295752
0.0264603
0.0238501
0.0219029
0.0204009
0.0188659
0.017527
0.0161648
0.0148318
0.0135936
0.0123345
0.0118944
0.012741
0.013938
0.0128122
0.00982203
0.00513917
0.00137668
0.000131535
2.96915e-06
1.06615e-08
4.43579e-12
9.97947e-14
1.12138e-13
1.16495e-13
9.6327e-14
8.57166e-14
6.95124e-14
7.87857e-14
7.85869e-14
7.84051e-14
7.82694e-14
7.7223e-14
8.07918e-14
8.02202e-14
7.6387e-14
7.11588e-14
6.86701e-14
6.99757e-14
7.25088e-14
7.00207e-14
7.41427e-14
7.79476e-14
7.65583e-14
8.01675e-14
7.30833e-14
6.46336e-14
6.9704e-14
7.19217e-14
7.23448e-14
7.08049e-14
8.49326e-14
8.12431e-14
8.2295e-14
9.36075e-14
8.40611e-14
7.60863e-14
8.32892e-14
7.19488e-14
5.8558e-14
5.8336e-14
7.01371e-14
6.26065e-14
6.43866e-14
5.80897e-14
4.95563e-14
6.39239e-14
8.37795e-14
9.36458e-14
7.24871e-14
4.88616e-14
5.97377e-14
5.09384e-14
6.88145e-14
6.69159e-14
7.34253e-14
9.37866e-14
9.34252e-14
9.67504e-14
9.07153e-14
8.55333e-14
8.13467e-14
8.69297e-14
6.81318e-14
5.97214e-14
5.82991e-14
5.7468e-14
5.68208e-14
6.25099e-14
6.56342e-14
6.95026e-14
8.22869e-14
9.36954e-14
1.11722e-13
1.06828e-13
1.17834e-13
1.06311e-13
1.0739e-13
9.92468e-14
9.33802e-14
8.18284e-14
8.16202e-14
9.10121e-14
8.5835e-14
9.20549e-14
9.8902e-14
7.89324e-14
6.171e-14
5.82996e-14
4.72437e-14
4.67835e-14
4.46192e-14
4.29466e-14
3.79005e-14
4.00219e-14
3.53369e-14
3.50333e-14
3.43704e-14
3.80262e-14
4.42066e-14
4.52636e-14
4.71215e-14
5.71213e-14
5.34544e-14
5.52626e-14
4.91175e-14
4.85794e-14
5.29484e-14
4.8274e-14
3.49322e-14
2.91367e-14
9.8712e-14
1.0629e-10
4.04869e-08
4.55214e-06
0.000147271
0.00158704
0.00725627
0.0180704
0.0299809
0.0385372
0.0424088
0.0419961
0.0392543
0.0351864
0.0309179
0.0272326
0.023945
0.0213722
0.0193646
0.0176846
0.0164147
0.0152606
0.0141666
0.0133416
0.0127149
0.0130705
0.0142434
0.0140972
0.0118668
0.00785736
0.00320464
0.000594916
3.43778e-05
4.10973e-07
7.10309e-10
1.84408e-13
9.42065e-14
1.09937e-13
1.13267e-13
1.04854e-13
9.24689e-14
7.43326e-14
8.3783e-14
7.52717e-14
7.94723e-14
8.70661e-14
7.76538e-14
7.89359e-14
7.7855e-14
7.22693e-14
8.08161e-14
7.58009e-14
7.27005e-14
7.53651e-14
7.07538e-14
7.37954e-14
7.42561e-14
6.85129e-14
6.93644e-14
7.93501e-14
7.15224e-14
7.39517e-14
6.54287e-14
7.92508e-14
7.93825e-14
8.99543e-14
7.17692e-14
8.40908e-14
8.31498e-14
8.90241e-14
8.13607e-14
6.96063e-14
5.85421e-14
4.31072e-14
4.0049e-14
4.64546e-14
4.65918e-14
4.90095e-14
5.24299e-14
3.6598e-14
8.28228e-14
1.11105e-13
1.04111e-13
8.02998e-14
5.17186e-14
5.21229e-14
4.14135e-14
6.73381e-14
7.77874e-14
7.36893e-14
8.41245e-14
9.88913e-14
1.08297e-13
1.00307e-13
9.09156e-14
8.47453e-14
7.47389e-14
5.60195e-14
4.9572e-14
4.45557e-14
5.18824e-14
4.21022e-14
3.85643e-14
3.98311e-14
4.9832e-14
5.41533e-14
8.01547e-14
8.62952e-14
9.78177e-14
1.10927e-13
1.19351e-13
1.1858e-13
1.0524e-13
9.67228e-14
8.59749e-14
7.32313e-14
8.2886e-14
8.53457e-14
7.80514e-14
8.77418e-14
7.4405e-14
6.12252e-14
5.95524e-14
4.9679e-14
4.4323e-14
4.18637e-14
3.64521e-14
3.33672e-14
3.25119e-14
2.49212e-14
2.55974e-14
2.08844e-14
2.64779e-14
3.29085e-14
3.30284e-14
3.89282e-14
5.08207e-14
5.40294e-14
5.62358e-14
5.60029e-14
5.89999e-14
6.43683e-14
5.93243e-14
4.1886e-14
2.38749e-14
1.0548e-14
4.89134e-13
2.75457e-10
6.01327e-08
4.67813e-06
0.000123069
0.00121489
0.00548263
0.0140042
0.0241608
0.0321738
0.0360537
0.0362198
0.0345248
0.0322082
0.0292312
0.0261318
0.0234614
0.0211813
0.0192409
0.0177536
0.0164998
0.0155438
0.0148283
0.014626
0.0150983
0.015068
0.0132084
0.00994911
0.00524817
0.0015123
0.000171129
5.13444e-06
2.80382e-08
2.12764e-11
7.97995e-14
7.70059e-14
9.00817e-14
9.27355e-14
1.0283e-13
7.79452e-14
6.69733e-14
6.36938e-14
5.95862e-14
6.74143e-14
7.23318e-14
6.5609e-14
6.3677e-14
6.37175e-14
5.74544e-14
6.17279e-14
5.70109e-14
5.79016e-14
6.3696e-14
6.29416e-14
6.75496e-14
5.95357e-14
6.07879e-14
6.94958e-14
6.93678e-14
7.11676e-14
6.71635e-14
5.99691e-14
6.3841e-14
6.59729e-14
6.21098e-14
5.68283e-14
7.82148e-14
7.91082e-14
7.76318e-14
7.39837e-14
5.50095e-14
5.29094e-14
5.13213e-14
4.49179e-14
4.18511e-14
3.77612e-14
4.75247e-14
4.96149e-14
3.36953e-14
7.89393e-14
1.18035e-13
1.03455e-13
7.44828e-14
4.95038e-14
5.79469e-14
4.31859e-14
6.89175e-14
7.81802e-14
6.93271e-14
8.08204e-14
1.04552e-13
1.2548e-13
1.07964e-13
8.61607e-14
7.01571e-14
5.40511e-14
5.20446e-14
3.28295e-14
2.26384e-14
2.42142e-14
1.77303e-14
1.58518e-14
3.14057e-14
2.87739e-14
1.84334e-14
5.37873e-14
6.76966e-14
7.26102e-14
8.57333e-14
9.65572e-14
1.06405e-13
8.29094e-14
8.04199e-14
8.73404e-14
7.81984e-14
7.5693e-14
7.59284e-14
6.98222e-14
8.48094e-14
7.81688e-14
6.05475e-14
5.63696e-14
5.52529e-14
5.227e-14
4.82898e-14
4.2051e-14
3.69422e-14
3.15655e-14
2.53226e-14
2.7881e-14
2.37928e-14
3.29916e-14
3.41885e-14
3.93577e-14
3.99619e-14
5.47878e-14
5.79948e-14
6.39276e-14
6.4696e-14
6.73954e-14
6.32007e-14
5.93356e-14
4.36615e-14
2.41628e-14
8.13022e-15
1.2073e-14
1.27881e-12
3.88208e-10
5.3257e-08
3.10798e-06
7.19435e-05
0.000699989
0.00332108
0.00915747
0.0171178
0.0244064
0.0288888
0.0301991
0.0295446
0.0282818
0.0268299
0.0250863
0.0232244
0.0214974
0.020039
0.0187998
0.0179222
0.0171323
0.0167262
0.0158838
0.0140481
0.0111955
0.00682786
0.00258418
0.000459654
2.69151e-05
3.57591e-07
8.17678e-10
3.27078e-13
8.6912e-14
7.67758e-14
7.41034e-14
7.00188e-14
8.61769e-14
6.20516e-14
5.37259e-14
4.90347e-14
3.66382e-14
6.92316e-14
7.48467e-14
5.54749e-14
5.65588e-14
4.67712e-14
5.10941e-14
4.53849e-14
4.79224e-14
5.3912e-14
4.80423e-14
4.62549e-14
5.19393e-14
4.96921e-14
6.31869e-14
6.4272e-14
6.12061e-14
6.34482e-14
7.8076e-14
6.70901e-14
5.57437e-14
5.82663e-14
4.44865e-14
5.97645e-14
7.7308e-14
6.9653e-14
6.66199e-14
7.39401e-14
5.36593e-14
5.39602e-14
5.88907e-14
5.96872e-14
4.94494e-14
5.37022e-14
5.3651e-14
5.5766e-14
5.88476e-14
5.55462e-14
8.7435e-14
7.86874e-14
6.08476e-14
4.87805e-14
4.70647e-14
3.8606e-14
5.09596e-14
5.76524e-14
5.6226e-14
7.507e-14
1.05841e-13
1.30371e-13
1.09045e-13
8.05708e-14
6.54935e-14
5.05295e-14
4.96048e-14
3.02097e-14
1.08216e-14
8.53386e-15
6.31438e-15
1.57643e-14
1.9901e-14
6.10638e-15
1.16008e-14
4.38047e-14
6.40605e-14
5.90934e-14
7.30302e-14
7.28493e-14
7.8399e-14
6.64855e-14
6.09838e-14
7.15872e-14
8.66725e-14
8.3914e-14
7.59777e-14
7.537e-14
8.79881e-14
8.28237e-14
6.54742e-14
4.92964e-14
7.47488e-14
7.187e-14
6.89742e-14
6.62602e-14
6.2075e-14
5.02788e-14
4.63072e-14
5.03819e-14
4.14176e-14
4.65865e-14
3.61958e-14
3.7845e-14
3.99849e-14
5.36803e-14
6.2064e-14
7.15734e-14
7.25826e-14
7.37781e-14
6.67684e-14
5.83876e-14
4.65401e-14
3.04957e-14
2.86432e-14
3.15797e-14
3.3397e-14
1.85306e-12
3.25352e-10
2.99129e-08
1.36749e-06
2.90793e-05
0.000291436
0.0015206
0.00472416
0.00995366
0.0157664
0.0203873
0.0230174
0.0238438
0.0235296
0.0227571
0.0218462
0.0208714
0.0198882
0.0189233
0.0180582
0.0171613
0.0160755
0.0142439
0.011512
0.00747424
0.00328744
0.000775352
7.18865e-05
1.85084e-06
1.01076e-08
1.04617e-11
1.00751e-13
1.00645e-13
1.01629e-13
8.97195e-14
8.67235e-14
8.36196e-14
7.13401e-14
6.60417e-14
6.88696e-14
6.65454e-14
7.5681e-14
7.40923e-14
8.01804e-14
8.25745e-14
6.74266e-14
7.4218e-14
7.11346e-14
7.21069e-14
8.10471e-14
7.02786e-14
6.83812e-14
6.7151e-14
5.93953e-14
6.9715e-14
7.39275e-14
7.12666e-14
8.28024e-14
1.05622e-13
9.22712e-14
7.88764e-14
7.51611e-14
7.44852e-14
8.16424e-14
8.84365e-14
8.60624e-14
8.92176e-14
9.16492e-14
8.2785e-14
7.09398e-14
6.44179e-14
7.24717e-14
7.8907e-14
7.97335e-14
7.40406e-14
6.86814e-14
7.56085e-14
7.31352e-14
8.00025e-14
6.43206e-14
6.09846e-14
5.42629e-14
4.72654e-14
5.28877e-14
5.95929e-14
5.8183e-14
5.92519e-14
7.75235e-14
1.07725e-13
1.28416e-13
1.07326e-13
8.38512e-14
6.57675e-14
5.88835e-14
5.02243e-14
4.86799e-14
3.35722e-14
2.3009e-14
2.80704e-14
2.09956e-14
3.20714e-14
2.78516e-14
3.41896e-14
4.99418e-14
7.58242e-14
8.01608e-14
7.52255e-14
7.77798e-14
8.03197e-14
7.05176e-14
7.25986e-14
7.82486e-14
8.64001e-14
8.69528e-14
8.57617e-14
8.83156e-14
9.2451e-14
9.52742e-14
8.48089e-14
7.06145e-14
8.34296e-14
8.48359e-14
7.9678e-14
8.55815e-14
7.98216e-14
6.61061e-14
5.1684e-14
4.58074e-14
4.62353e-14
4.41904e-14
4.59943e-14
4.64893e-14
4.09956e-14
4.61112e-14
6.5588e-14
7.91425e-14
7.53025e-14
7.55374e-14
6.71329e-14
6.8427e-14
5.45352e-14
4.68523e-14
4.41337e-14
4.4623e-14
4.12894e-14
4.93786e-14
1.59326e-12
1.73922e-10
1.11763e-08
4.05728e-07
7.9615e-06
8.30465e-05
0.000486137
0.00174979
0.00427828
0.00778791
0.0113936
0.0142739
0.0161596
0.0170908
0.017328
0.0171172
0.0166283
0.0159826
0.0152799
0.0144912
0.0130441
0.0103417
0.00678111
0.00318761
0.000881098
0.000110087
4.57151e-06
4.92175e-08
1.23983e-10
1.51904e-13
9.29651e-14
9.9721e-14
9.90618e-14
8.85034e-14
8.59393e-14
9.03355e-14
8.32082e-14
6.49718e-14
7.88336e-14
7.58968e-14
8.33088e-14
8.66061e-14
8.62844e-14
8.14529e-14
8.91274e-14
7.71636e-14
6.71056e-14
7.24823e-14
7.88601e-14
7.54924e-14
7.09846e-14
7.21057e-14
6.62321e-14
7.08534e-14
7.85998e-14
8.60288e-14
9.18681e-14
9.87984e-14
9.06144e-14
8.07287e-14
7.90098e-14
8.13332e-14
8.36646e-14
8.17481e-14
8.36956e-14
8.255e-14
8.66176e-14
8.14098e-14
6.50127e-14
6.41765e-14
7.18291e-14
8.20551e-14
7.61968e-14
6.87282e-14
5.89457e-14
6.47276e-14
6.76117e-14
6.3881e-14
5.18363e-14
5.12629e-14
5.20834e-14
5.50022e-14
4.8655e-14
4.85588e-14
4.95575e-14
5.45884e-14
7.55298e-14
9.80851e-14
1.12822e-13
1.00105e-13
8.28865e-14
7.49923e-14
7.37157e-14
5.63015e-14
5.59788e-14
4.82818e-14
3.7953e-14
3.24849e-14
4.02133e-14
4.54542e-14
4.44669e-14
5.71057e-14
5.82618e-14
8.05378e-14
9.9799e-14
8.88571e-14
7.67515e-14
8.48394e-14
8.02919e-14
7.09723e-14
8.16226e-14
9.33282e-14
9.55304e-14
8.56989e-14
8.84989e-14
1.00557e-13
1.03607e-13
9.82222e-14
9.24652e-14
6.47811e-14
6.26931e-14
5.75102e-14
5.74067e-14
4.87696e-14
3.43778e-14
2.45778e-14
2.09956e-14
2.28781e-14
1.96846e-14
2.3268e-14
2.04732e-14
1.68415e-14
2.21962e-14
3.50507e-14
4.05911e-14
4.33689e-14
4.19369e-14
3.91886e-14
3.77881e-14
2.76973e-14
1.96577e-14
2.12534e-14
1.95483e-14
1.94781e-14
1.63127e-14
1.11914e-14
8.54418e-13
6.24854e-11
2.8895e-09
8.29913e-08
1.45828e-06
1.54149e-05
9.94997e-05
0.000413512
0.00118541
0.00251876
0.00425273
0.00605277
0.00760841
0.00873972
0.00941629
0.00966861
0.00955362
0.0091664
0.00853727
0.00704534
0.00457742
0.00219664
0.000660255
9.992e-05
5.8851e-06
1.08727e-07
5.75391e-10
9.10562e-13
4.66986e-14
5.82438e-14
6.05632e-14
6.39404e-14
6.32294e-14
5.38203e-14
6.22426e-14
6.35607e-14
4.51043e-14
5.44866e-14
5.45398e-14
5.8325e-14
6.30412e-14
5.49347e-14
5.67176e-14
7.27921e-14
5.59998e-14
4.08459e-14
3.96854e-14
4.17958e-14
5.22491e-14
5.53763e-14
4.83529e-14
4.38097e-14
4.4338e-14
5.57641e-14
7.28395e-14
6.29479e-14
6.13541e-14
5.57708e-14
5.3001e-14
5.15486e-14
5.46631e-14
5.21892e-14
4.49987e-14
5.0659e-14
5.2193e-14
5.67903e-14
4.70861e-14
3.52358e-14
3.66617e-14
3.68924e-14
4.47442e-14
3.36618e-14
3.19942e-14
2.39134e-14
2.18674e-14
3.11127e-14
2.8374e-14
3.41447e-14
4.07038e-14
3.62335e-14
4.22372e-14
2.8572e-14
2.82241e-14
2.66737e-14
4.49805e-14
6.57195e-14
8.03085e-14
8.12263e-14
7.75934e-14
6.56795e-14
5.18355e-14
4.63416e-14
3.96652e-14
4.04095e-14
3.38145e-14
1.73905e-14
8.49506e-15
2.12129e-14
1.84273e-14
2.26843e-14
3.81491e-14
5.39099e-14
6.98115e-14
8.95209e-14
7.59707e-14
5.99135e-14
6.17839e-14
6.24782e-14
5.57775e-14
6.56583e-14
7.54438e-14
8.53137e-14
8.44895e-14
7.89193e-14
8.76219e-14
9.07861e-14
8.11433e-14
7.82541e-14
3.90038e-14
4.05718e-14
4.23613e-14
3.93301e-14
2.8635e-14
2.69104e-14
2.12774e-14
2.20447e-14
2.34298e-14
2.35299e-14
1.84487e-14
2.00298e-14
1.92737e-14
1.43232e-14
1.9192e-14
2.88586e-14
2.19415e-14
1.74117e-14
1.53517e-14
1.79184e-14
1.34585e-14
1.8633e-14
1.70744e-14
2.08097e-14
2.11294e-14
2.31866e-14
2.23427e-14
1.82222e-14
2.976e-13
1.57107e-11
5.34416e-10
1.20622e-08
1.81528e-07
1.81881e-06
1.21631e-05
5.55402e-05
0.00018074
0.000441519
0.000853246
0.0013694
0.00190062
0.00235113
0.00264994
0.00275408
0.00265658
0.00240012
0.00176105
0.000880825
0.000285554
5.04971e-05
3.98519e-06
1.17581e-07
1.19233e-09
4.2072e-12
3.88679e-14
3.1974e-14
3.76234e-14
3.21818e-14
3.87145e-14
4.88668e-14
4.40324e-14
3.06846e-14
4.04682e-14
4.13725e-14
4.6901e-14
4.58039e-14
4.09554e-14
4.09292e-14
4.09149e-14
5.02354e-14
5.1781e-14
6.13693e-14
4.70791e-14
3.56868e-14
3.38336e-14
5.09389e-14
5.62054e-14
4.38158e-14
3.21825e-14
3.6381e-14
4.00638e-14
4.10477e-14
4.36236e-14
3.56054e-14
3.4411e-14
4.52082e-14
4.78937e-14
4.16837e-14
4.73916e-14
4.26366e-14
3.47875e-14
3.82071e-14
3.95172e-14
5.03213e-14
3.37372e-14
1.7389e-14
2.89459e-14
1.71905e-14
1.29738e-14
1.92288e-14
1.31054e-14
1.0858e-14
7.72649e-15
1.10346e-14
1.63871e-14
2.85239e-14
3.53005e-14
1.98878e-14
1.74707e-14
3.2068e-14
1.39454e-14
3.2803e-14
4.98841e-14
5.11591e-14
4.79594e-14
4.5401e-14
3.95557e-14
3.18498e-14
3.01349e-14
3.72328e-14
4.48882e-14
5.70561e-14
5.24813e-14
3.12141e-14
2.6787e-14
4.22058e-14
3.07722e-14
3.44236e-14
5.00639e-14
5.82134e-14
6.94302e-14
6.23604e-14
5.29579e-14
5.37173e-14
5.01126e-14
5.25049e-14
5.88978e-14
7.29927e-14
7.64544e-14
7.91189e-14
8.20489e-14
8.43035e-14
8.26785e-14
6.8565e-14
6.41224e-14
4.76336e-14
4.92001e-14
4.56033e-14
4.67848e-14
4.23185e-14
3.58093e-14
3.72369e-14
3.9e-14
3.61804e-14
3.98597e-14
4.06996e-14
4.16128e-14
4.40578e-14
3.70422e-14
4.16013e-14
3.53457e-14
3.17171e-14
2.92487e-14
2.81923e-14
3.51759e-14
3.05048e-14
3.30589e-14
3.30071e-14
3.87826e-14
4.20835e-14
3.81845e-14
3.11292e-14
3.36282e-14
2.13086e-14
8.36728e-14
2.82821e-12
7.27675e-11