/*--------------------------------*- C++ -*----------------------------------*\
| =========                 |                                                 |
| \\      /  F ield         | OpenFOAM: The Open Source CFD Toolbox           |
|  \\    /   O peration     | Version:  2406                                  |
|   \\  /    A nd           | Website:  www.openfoam.com                      |
|    \\/     M anipulation  |                                                 |
\*---------------------------------------------------------------------------*/
FoamFile
{
    version     2.0;
    format      ascii;
    arch        "LSB;label=32;scalar=64";
    class       volVectorField;
    location    "0.02";
    object      U;
}
// * * * * * * * * * * * * * * * * * * * * * * * * * * * * * * * * * * * * * //

dimensions      [0 1 -1 0 0 0 0];

internalField   nonuniform List<vector> 
14020
(
(8.91645e-12 -3.0879e-12 -4.4356e-12)
(7.47877e-12 -1.62446e-12 -2.15588e-12)
(4.41596e-12 -4.1346e-13 -9.42799e-14)
(7.94494e-13 5.37669e-13 7.35018e-14)
(-2.38488e-12 -6.28159e-13 -1.11491e-12)
(-4.62207e-12 -2.23473e-12 -2.49322e-12)
(-4.59006e-12 -3.75317e-12 -4.86813e-12)
(-4.24929e-12 -4.16505e-12 -3.74137e-12)
(-3.88929e-12 -4.27737e-12 -2.96851e-12)
(-5.20811e-12 -4.17995e-12 -3.34441e-12)
(-6.00965e-12 -4.52563e-12 -3.9774e-12)
(-4.88466e-12 -4.21379e-12 -4.34727e-12)
(-6.09755e-12 -3.28116e-12 -4.67217e-12)
(-6.73178e-12 -3.48957e-12 -4.04874e-12)
(-6.45959e-12 -2.08182e-12 -3.65666e-12)
(-6.89598e-12 -4.00847e-13 -3.10288e-12)
(-7.56194e-12 1.16594e-12 -2.85848e-12)
(-7.67091e-12 2.83257e-13 -2.3932e-12)
(-6.46987e-12 -3.95441e-13 -2.17694e-12)
(-7.36441e-12 -1.1119e-12 -1.94801e-12)
(-7.46876e-12 -1.80987e-12 -1.71298e-12)
(-6.09754e-12 -1.42044e-12 -1.13657e-12)
(-5.40014e-12 -2.33091e-12 -8.89648e-13)
(-4.618e-12 -1.67979e-12 -7.62702e-13)
(-2.95431e-12 -2.43143e-12 -1.97215e-12)
(-2.50365e-12 -1.66737e-12 -3.82086e-12)
(-3.27449e-12 -8.97972e-13 -5.93135e-12)
(-1.81916e-12 -3.24525e-13 -6.97454e-12)
(-3.06106e-12 1.84724e-13 -8.51103e-12)
(-2.7639e-12 -4.37617e-13 -1.13573e-11)
(-4.27173e-13 -1.34712e-12 -1.47642e-11)
(-1.46498e-12 -3.81739e-12 -1.7665e-11)
(4.69925e-13 -4.01979e-12 -2.09752e-11)
(4.40387e-12 -4.36301e-12 -2.13133e-11)
(5.98285e-12 -2.09461e-12 -1.9833e-11)
(6.6998e-12 -1.18814e-13 -1.28407e-11)
(4.98472e-12 2.0413e-12 -5.84255e-12)
(2.04543e-12 2.29752e-12 -2.09271e-12)
(-1.05691e-13 3.32593e-12 -2.11682e-12)
(-2.10176e-12 1.98878e-12 -1.36208e-12)
(-5.38687e-12 6.54263e-13 -2.07261e-12)
(-5.59442e-12 -1.4758e-12 -2.28168e-12)
(-3.24513e-12 -1.78917e-12 -2.14776e-12)
(-3.08847e-12 -1.94573e-12 -4.404e-13)
(-5.63237e-12 -2.11456e-12 -2.08611e-12)
(-6.14069e-12 -4.75563e-12 -5.71961e-12)
(-4.57533e-12 -5.02314e-12 -9.23102e-12)
(-2.74556e-12 -5.33073e-12 -6.89475e-12)
(-2.98066e-12 -3.61689e-12 -2.93084e-12)
(-3.1638e-12 -2.75068e-12 5.11983e-14)
(-7.03155e-13 -1.9669e-12 8.7759e-13)
(1.6834e-12 -1.99268e-12 1.92604e-12)
(4.66387e-12 -2.68706e-12 1.65993e-12)
(5.56562e-12 -5.99978e-13 8.63756e-13)
(3.93696e-12 1.42695e-12 1.31839e-12)
(7.33496e-13 2.67984e-12 1.76209e-13)
(-3.72555e-13 3.44404e-12 1.14715e-12)
(7.18746e-14 3.68833e-12 6.83348e-13)
(-3.24761e-12 2.27639e-12 -6.75349e-13)
(-2.92922e-12 1.79243e-13 -2.41342e-12)
(-2.69366e-12 4.03775e-14 -1.95141e-12)
(-4.29792e-12 -8.63939e-13 -1.44681e-12)
(-5.0024e-12 -1.10369e-12 -6.72427e-13)
(-3.56577e-12 -1.94801e-12 -1.34358e-12)
(-3.92993e-12 -4.08327e-12 -2.35289e-12)
(-4.40291e-12 -6.57514e-12 -2.81438e-12)
(-6.7463e-13 -7.80689e-12 -2.8529e-12)
(1.99081e-12 -8.86665e-12 1.24962e-13)
(3.5672e-12 -9.57708e-12 3.335e-12)
(6.77964e-12 -9.96826e-12 3.99248e-12)
(1.00855e-11 -8.3832e-12 5.06152e-12)
(9.60289e-12 -5.70482e-12 5.50001e-12)
(1.03567e-11 -4.40722e-12 7.61755e-12)
(1.1179e-11 -1.11954e-12 8.69367e-12)
(9.05967e-12 2.63454e-13 1.0716e-11)
(8.83027e-12 2.48174e-13 1.279e-11)
(8.06763e-12 1.15002e-12 1.27769e-11)
(8.59995e-12 8.91055e-13 1.35336e-11)
(9.09625e-12 2.02936e-12 1.38577e-11)
(6.75208e-12 2.81925e-12 1.40525e-11)
(4.82123e-12 9.25592e-13 1.16316e-11)
(4.01361e-12 -1.51204e-12 7.43741e-12)
(4.06288e-12 -1.42035e-12 4.85682e-12)
(3.39638e-12 -2.18243e-13 2.11658e-12)
(-1.55598e-14 8.71473e-13 1.65167e-13)
(-2.61888e-12 1.23555e-13 -3.53761e-13)
(-2.27198e-12 -1.04192e-12 -8.52358e-13)
(-1.53961e-12 -2.1372e-12 7.69461e-13)
(-1.42282e-12 -3.08331e-12 1.38579e-12)
(-6.473e-13 -2.43059e-12 3.28064e-12)
(-2.21107e-12 -1.50605e-12 6.91632e-12)
(-2.80909e-12 -8.47087e-13 1.08357e-11)
(-5.82995e-12 -4.61503e-13 1.17615e-11)
(-7.93405e-12 -1.19168e-12 1.21839e-11)
(-6.44331e-12 -7.08762e-13 9.92624e-12)
(-7.24892e-12 1.71216e-12 7.21049e-12)
(-1.09687e-11 1.8526e-12 4.59133e-12)
(-1.43277e-11 1.40638e-12 3.78484e-12)
(-1.27851e-11 -6.98654e-13 3.47519e-12)
(-1.35674e-11 -4.45951e-12 3.04725e-12)
(-1.23516e-11 -8.27505e-12 2.34334e-12)
(-8.53486e-12 -9.32732e-12 1.82136e-12)
(-5.24729e-12 -1.12897e-11 1.11304e-12)
(-2.32193e-12 -1.01728e-11 9.71666e-13)
(-2.05585e-12 -1.00299e-11 3.38464e-14)
(-3.71632e-13 -1.01112e-11 2.20467e-12)
(1.6068e-12 -8.88895e-12 4.27017e-12)
(1.97462e-12 -8.19181e-12 2.12741e-12)
(1.25422e-12 -6.92328e-12 -4.7554e-14)
(2.9555e-12 -5.96735e-12 -1.28863e-12)
(2.96203e-12 -3.92249e-12 -1.77998e-12)
(1.09812e-12 -3.18077e-12 -1.98587e-12)
(4.53398e-13 -3.39005e-12 -1.83213e-12)
(1.00454e-12 -4.02209e-12 -2.27862e-12)
(-5.52882e-13 -4.73072e-12 -4.2277e-12)
(-2.33002e-12 -6.30433e-12 -4.90994e-12)
(-1.25032e-13 -8.48904e-12 -5.21703e-12)
(2.59106e-12 -8.52577e-12 -5.77087e-12)
(3.74397e-12 -7.80703e-12 -5.28022e-12)
(3.52786e-12 -7.24571e-12 -4.18351e-12)
(3.44242e-12 -8.35347e-12 -2.63313e-12)
(5.18553e-12 -9.1175e-12 -2.34916e-12)
(8.10587e-12 -9.61896e-12 -3.05449e-12)
(1.15181e-11 -8.81043e-12 -4.27083e-12)
(1.42169e-11 -7.8869e-12 -4.7526e-12)
(1.41754e-11 -5.36205e-12 -5.20572e-12)
(1.30085e-11 -3.84633e-12 -5.93793e-12)
(1.16614e-11 -2.87131e-12 -5.72129e-12)
(1.17295e-11 -2.40695e-12 -4.75011e-12)
(1.07334e-11 -5.85172e-13 -5.1218e-12)
(7.85899e-12 -9.51032e-13 -4.83607e-12)
(6.2063e-12 1.54782e-13 -6.15362e-12)
(3.44684e-12 -3.37911e-13 -6.86883e-12)
(2.11845e-12 -6.65237e-13 -8.34729e-12)
(1.79325e-12 -6.96397e-13 -1.01582e-11)
(-6.53536e-14 -9.16614e-13 -1.01038e-11)
(-1.14367e-12 -1.62093e-12 -1.0376e-11)
(-1.71127e-12 -1.42251e-12 -9.57045e-12)
(-1.46484e-12 -1.37e-12 -9.35926e-12)
(-2.17221e-12 -1.00091e-12 -1.20571e-11)
(-2.39572e-12 -6.11205e-13 -1.38422e-11)
(-2.58692e-12 6.92073e-13 -1.39942e-11)
(-4.4227e-12 5.07953e-13 -1.22465e-11)
(-4.62274e-12 -1.85553e-12 -9.73841e-12)
(-3.46724e-12 -1.80756e-12 -7.42471e-12)
(-3.1408e-12 -2.87606e-12 -5.82587e-12)
(-1.56139e-12 -3.82754e-12 -5.77736e-12)
(-5.26294e-13 -3.77851e-12 -2.83655e-12)
(-2.16897e-12 -3.61313e-12 1.04657e-12)
(-2.61336e-12 -4.28287e-12 3.07448e-12)
(-1.99917e-12 -3.81075e-12 3.30081e-12)
(-1.80354e-12 -3.14948e-12 1.27293e-12)
(2.3173e-13 -3.83405e-12 -1.16887e-12)
(1.83614e-12 -2.8773e-12 -2.38441e-12)
(2.89375e-12 -2.54268e-12 8.74208e-14)
(3.10166e-12 -1.26802e-12 1.05716e-12)
(2.68095e-12 -8.62235e-13 9.51539e-13)
(3.28461e-12 -1.24838e-12 6.1273e-13)
(3.36164e-12 -1.04669e-12 -8.96972e-13)
(3.26652e-12 4.30749e-13 -3.53744e-12)
(1.00132e-12 1.83586e-12 -5.80228e-12)
(-4.87589e-13 2.09895e-12 -8.20991e-12)
(-4.53981e-14 1.41996e-12 -5.35523e-12)
(-6.90529e-13 7.91096e-13 -1.71474e-12)
(-6.91994e-13 3.42704e-13 8.31021e-13)
(1.00935e-12 -4.788e-13 -1.43435e-12)
(1.5867e-12 -1.78682e-12 -4.64422e-12)
(6.17466e-13 -2.96185e-12 -4.30513e-12)
(2.25556e-12 -4.79387e-12 -3.97765e-12)
(5.66915e-12 -4.33359e-12 -2.8567e-12)
(6.96405e-12 -3.55985e-12 -3.6245e-13)
(5.3704e-12 -3.22161e-12 -8.05296e-13)
(4.70116e-12 -4.27345e-12 -1.5195e-12)
(6.42394e-12 -5.38911e-12 -2.16323e-12)
(8.78563e-12 -5.51935e-12 -2.54963e-12)
(9.32204e-12 -3.99511e-12 -2.61801e-12)
(7.83576e-12 -3.11549e-12 -2.51618e-12)
(7.52971e-12 -2.87051e-12 -2.55192e-12)
(8.01095e-12 -2.84552e-12 -3.73578e-12)
(9.17341e-12 -1.77883e-12 -4.55425e-12)
(7.36946e-12 2.1287e-13 -3.72972e-12)
(5.78179e-12 2.3696e-12 -1.81345e-12)
(2.86484e-12 3.96699e-12 2.8931e-13)
(-5.94789e-14 4.43855e-12 1.9595e-12)
(-1.4309e-12 2.87121e-12 3.18033e-12)
(-2.54573e-12 1.87822e-12 3.84673e-12)
(-5.59199e-12 2.57184e-12 3.39606e-12)
(-7.94346e-12 1.50342e-12 3.62879e-12)
(-9.02195e-12 2.99219e-14 1.88399e-12)
(-9.27329e-12 -1.14406e-12 -9.78786e-14)
(-8.58212e-12 -1.3662e-12 6.44639e-13)
(-9.56592e-12 -2.57084e-12 1.10456e-12)
(-1.10966e-11 -3.80546e-12 1.07071e-12)
(-1.07872e-11 -4.44375e-12 1.05273e-12)
(-1.17195e-11 -4.6866e-12 8.62595e-13)
(-1.13776e-11 -6.36679e-12 2.97654e-13)
(-8.03993e-12 -7.06624e-12 8.69269e-13)
(-4.78436e-12 -6.57836e-12 3.03576e-13)
(-2.54353e-12 -5.93508e-12 -2.0955e-13)
(-3.31734e-12 -4.7501e-12 -1.16488e-12)
(-4.50988e-12 -4.29046e-12 -1.87432e-12)
(-3.10022e-12 -3.65736e-12 -2.361e-12)
(-3.30101e-12 -2.47561e-12 -3.13865e-12)
(-4.13796e-12 -2.15745e-12 -3.08157e-12)
(-3.71446e-12 -2.71285e-12 -2.3934e-12)
(-2.90296e-12 -2.95497e-12 -9.86771e-13)
(-3.80764e-12 -2.51211e-12 -1.76543e-12)
(-5.52942e-12 -2.68309e-12 -1.31343e-12)
(-4.83263e-12 -2.12179e-12 -3.44534e-12)
(-3.9545e-12 -1.48682e-12 -6.1198e-12)
(-5.26054e-12 -2.35023e-12 -8.20104e-12)
(-3.86693e-12 -4.44325e-12 -1.01793e-11)
(-3.37046e-12 -3.90662e-12 -1.3568e-11)
(-3.92713e-12 -4.86429e-12 -1.64611e-11)
(-1.96868e-12 -5.46472e-12 -1.4374e-11)
(1.39916e-12 -5.55683e-12 -1.16088e-11)
(5.12468e-12 -6.055e-12 -7.86045e-12)
(5.23786e-12 -3.41023e-12 -5.25682e-12)
(4.0157e-12 -3.56858e-12 -3.36544e-12)
(5.46555e-12 -3.50042e-12 -5.23168e-12)
(4.4668e-12 -3.24577e-12 -6.58291e-12)
(3.57152e-12 -3.53051e-12 -6.02666e-12)
(5.7955e-12 -2.99612e-12 -4.34341e-12)
(7.16261e-12 -1.1439e-12 -3.48676e-12)
(5.28217e-12 -8.60364e-13 -2.40872e-12)
(2.89729e-12 -5.59918e-13 -1.80797e-13)
(2.54975e-12 -8.23057e-13 2.20399e-12)
(2.1924e-12 -2.08722e-13 2.75215e-12)
(3.35019e-12 -1.18795e-12 3.04385e-12)
(5.42908e-12 5.07748e-13 3.12701e-12)
(6.10742e-12 4.78051e-12 3.41696e-12)
(8.14773e-12 -2.94864e-12 -4.02408e-12)
(6.72623e-12 -1.28214e-12 -1.41212e-12)
(4.17361e-12 -1.02464e-13 9.35326e-13)
(1.13654e-12 3.24942e-13 5.16577e-13)
(-2.2614e-12 -4.61193e-13 -6.02002e-13)
(-3.50368e-12 -1.55541e-12 -2.43509e-12)
(-3.43035e-12 -3.19713e-12 -3.61802e-12)
(-4.14901e-12 -3.4689e-12 -3.7969e-12)
(-4.46135e-12 -3.56266e-12 -3.26499e-12)
(-5.14472e-12 -3.35281e-12 -3.56917e-12)
(-5.6771e-12 -4.04141e-12 -4.41201e-12)
(-6.17281e-12 -3.71401e-12 -5.03344e-12)
(-6.54625e-12 -2.76775e-12 -5.22495e-12)
(-7.00878e-12 -2.95707e-12 -5.21014e-12)
(-7.5891e-12 -1.49374e-12 -4.45513e-12)
(-9.16706e-12 -3.45503e-13 -3.71295e-12)
(-8.53651e-12 1.53579e-12 -2.56979e-12)
(-7.04756e-12 1.28908e-12 -2.13766e-12)
(-5.78143e-12 7.97539e-13 -2.17978e-12)
(-6.66223e-12 1.14147e-13 -1.96601e-12)
(-7.53471e-12 2.58798e-13 -1.50352e-12)
(-5.99592e-12 5.37611e-13 -1.24126e-12)
(-5.48747e-12 -8.38904e-13 -9.36871e-13)
(-4.90009e-12 -5.129e-14 -1.17649e-12)
(-2.96848e-12 -3.35658e-13 -2.50224e-12)
(-3.24591e-12 2.37455e-13 -5.08748e-12)
(-3.87323e-12 7.27976e-13 -6.08085e-12)
(-2.16988e-12 1.0905e-12 -7.11956e-12)
(-2.65674e-12 1.88615e-12 -7.82037e-12)
(-1.97684e-12 5.90854e-13 -1.10902e-11)
(5.80958e-13 1.39134e-13 -1.50126e-11)
(-3.57339e-13 -2.09568e-12 -1.61611e-11)
(1.50041e-12 -3.45098e-12 -1.78032e-11)
(4.28863e-12 -3.09069e-12 -1.8282e-11)
(4.53351e-12 -1.40901e-12 -1.68279e-11)
(5.28481e-12 6.7041e-14 -1.18643e-11)
(4.16538e-12 1.75563e-12 -6.5857e-12)
(5.17494e-13 2.68123e-12 -4.00965e-12)
(-4.77737e-13 3.61353e-12 -2.86266e-12)
(-9.58453e-13 2.54689e-12 -2.23333e-12)
(-3.80887e-12 1.34276e-12 -2.53863e-12)
(-4.44114e-12 -1.1107e-12 -2.59594e-12)
(-3.29737e-12 -1.25363e-12 -2.5299e-12)
(-3.33533e-12 -9.88181e-13 -1.7165e-12)
(-4.70416e-12 -1.80281e-12 -1.70282e-12)
(-5.25528e-12 -4.18006e-12 -3.48657e-12)
(-4.97281e-12 -4.42388e-12 -5.43744e-12)
(-4.02994e-12 -4.46727e-12 -4.71767e-12)
(-4.84695e-12 -2.75177e-12 -2.46454e-12)
(-3.84137e-12 -2.10085e-12 1.30071e-13)
(-3.85802e-13 -8.91863e-13 8.64173e-13)
(2.65148e-12 -1.53582e-12 1.6841e-12)
(4.31704e-12 -1.49067e-12 1.94331e-12)
(4.31731e-12 6.48247e-13 3.18497e-12)
(3.88927e-12 2.80952e-12 1.68024e-12)
(6.69818e-13 3.77511e-12 8.35849e-13)
(-4.89013e-13 3.9617e-12 1.26075e-12)
(5.50605e-13 4.50407e-12 2.98744e-13)
(-1.28128e-12 3.37018e-12 -1.55511e-12)
(-2.83287e-12 1.34476e-12 -2.94652e-12)
(-3.57687e-12 1.40277e-12 -2.3102e-12)
(-4.89784e-12 -2.54717e-13 -2.03759e-12)
(-5.19481e-12 -8.01392e-14 -2.62576e-12)
(-3.51916e-12 -8.88662e-13 -2.27661e-12)
(-3.16986e-12 -2.16984e-12 -2.7954e-12)
(-2.77463e-12 -5.6339e-12 -2.54049e-12)
(9.37411e-13 -6.7653e-12 -1.99229e-12)
(2.89174e-12 -6.87642e-12 1.35382e-13)
(4.39743e-12 -7.83798e-12 1.98872e-12)
(6.09236e-12 -8.60445e-12 2.35864e-12)
(8.19639e-12 -7.55644e-12 3.91986e-12)
(9.10247e-12 -4.51824e-12 4.86152e-12)
(9.51818e-12 -3.16509e-12 6.7679e-12)
(9.787e-12 1.56198e-13 7.90297e-12)
(9.94619e-12 1.20123e-12 1.04639e-11)
(8.85971e-12 6.33299e-13 1.18172e-11)
(8.43689e-12 1.86181e-12 1.2813e-11)
(9.31845e-12 4.62489e-13 1.40882e-11)
(8.04579e-12 1.32575e-12 1.37518e-11)
(6.50739e-12 2.53872e-12 1.34279e-11)
(5.93865e-12 9.63731e-13 1.24522e-11)
(4.23773e-12 -5.36466e-13 8.97985e-12)
(2.66407e-12 9.60599e-14 5.74133e-12)
(1.8906e-12 7.72645e-13 2.27144e-12)
(-2.66276e-13 1.40472e-12 -5.1737e-13)
(-1.65153e-12 5.82434e-13 -5.65581e-13)
(-9.37773e-13 -7.57718e-13 -5.23679e-13)
(-6.4525e-13 -1.46783e-12 3.31529e-13)
(-1.60548e-12 -1.73832e-12 1.26636e-12)
(-1.54316e-12 -6.90296e-13 3.12421e-12)
(-2.44459e-12 -3.86521e-13 6.47373e-12)
(-3.4119e-12 7.62022e-13 9.8081e-12)
(-5.16353e-12 6.06831e-13 1.1032e-11)
(-6.83171e-12 -2.67127e-13 1.09916e-11)
(-7.90478e-12 -8.23002e-13 8.92864e-12)
(-8.57664e-12 1.25373e-12 6.52059e-12)
(-1.13341e-11 1.48909e-12 3.71512e-12)
(-1.31147e-11 1.78e-12 3.03619e-12)
(-1.11478e-11 -2.92693e-13 2.91299e-12)
(-1.16966e-11 -3.57787e-12 3.09953e-12)
(-1.10798e-11 -6.44656e-12 2.31786e-12)
(-7.75216e-12 -7.4315e-12 2.17469e-12)
(-5.97134e-12 -9.89062e-12 9.52864e-13)
(-3.32085e-12 -9.50971e-12 4.02737e-13)
(-1.30511e-12 -8.57257e-12 3.9241e-13)
(-4.46854e-13 -8.99355e-12 1.77858e-12)
(8.66911e-13 -7.66747e-12 2.75798e-12)
(1.43025e-12 -7.17434e-12 1.6351e-12)
(1.15583e-12 -5.64457e-12 2.86176e-13)
(1.82648e-12 -5.10698e-12 -1.43808e-12)
(1.74195e-12 -2.89468e-12 -2.34494e-12)
(8.83422e-13 -2.56605e-12 -2.40589e-12)
(7.0459e-13 -1.97621e-12 -2.31838e-12)
(4.29115e-13 -3.01389e-12 -3.67727e-12)
(-8.02624e-13 -3.20106e-12 -4.51281e-12)
(-2.99746e-13 -4.33321e-12 -4.7948e-12)
(1.12571e-12 -7.12603e-12 -5.3538e-12)
(1.74585e-12 -6.86199e-12 -5.82491e-12)
(2.58444e-12 -6.5472e-12 -5.29616e-12)
(3.50046e-12 -6.33643e-12 -4.57094e-12)
(4.15416e-12 -7.29855e-12 -3.58735e-12)
(5.50776e-12 -7.56405e-12 -3.17026e-12)
(8.2068e-12 -9.30851e-12 -3.55374e-12)
(1.16839e-11 -8.88046e-12 -4.5995e-12)
(1.3782e-11 -7.7408e-12 -5.05318e-12)
(1.38573e-11 -5.35884e-12 -5.75787e-12)
(1.34341e-11 -4.10415e-12 -6.51425e-12)
(1.24108e-11 -2.94301e-12 -6.26545e-12)
(1.13098e-11 -2.41015e-12 -5.483e-12)
(1.05134e-11 -5.95529e-13 -4.97706e-12)
(7.93219e-12 -7.98405e-13 -5.78096e-12)
(5.64876e-12 6.17224e-13 -6.59246e-12)
(3.47651e-12 1.33727e-13 -7.43863e-12)
(2.06798e-12 -7.08523e-14 -8.77645e-12)
(1.98674e-12 1.48622e-13 -1.04468e-11)
(8.31118e-13 -3.92921e-13 -1.04921e-11)
(-1.0224e-12 -1.08093e-12 -1.12897e-11)
(-1.74983e-12 -1.17589e-12 -1.24655e-11)
(-1.69681e-12 -7.64548e-13 -1.22226e-11)
(-2.34497e-12 -3.37503e-13 -1.34743e-11)
(-3.57136e-12 7.81245e-14 -1.36558e-11)
(-3.95285e-12 1.11986e-12 -1.2391e-11)
(-3.53358e-12 1.5976e-12 -1.03534e-11)
(-3.83122e-12 -7.44427e-13 -9.19952e-12)
(-3.86229e-12 1.98603e-14 -6.88658e-12)
(-2.0027e-12 -1.21098e-12 -4.41937e-12)
(-1.25819e-12 -2.69397e-12 -4.07029e-12)
(-1.24986e-12 -2.35876e-12 -2.56296e-12)
(-2.23311e-12 -2.5108e-12 -9.40569e-14)
(-3.04295e-12 -3.30455e-12 1.36501e-12)
(-3.14094e-12 -2.52832e-12 1.84506e-12)
(-1.46413e-12 -1.52864e-12 1.28126e-12)
(4.14559e-13 -2.38249e-12 -9.86279e-15)
(1.72212e-12 -1.36621e-12 9.01682e-13)
(3.23157e-12 -1.00212e-12 1.96378e-12)
(2.95001e-12 -4.55319e-13 1.54675e-12)
(3.14826e-12 3.2461e-13 1.04572e-12)
(3.72412e-12 -1.95506e-13 6.08685e-13)
(2.77215e-12 -2.9508e-13 -4.57654e-13)
(2.08624e-12 9.85327e-13 -2.55975e-12)
(4.48316e-13 2.84786e-12 -4.40136e-12)
(-2.84078e-13 2.69063e-12 -5.75439e-12)
(7.45522e-14 2.88461e-12 -4.28584e-12)
(-1.05113e-12 1.82788e-12 -2.10405e-12)
(-5.81846e-13 1.88632e-12 -7.20592e-13)
(1.31914e-12 1.30539e-12 -1.1218e-12)
(2.13833e-12 2.85954e-13 -3.43561e-12)
(1.50351e-12 -1.01266e-12 -4.5851e-12)
(2.59737e-12 -3.1992e-12 -5.33004e-12)
(4.80149e-12 -3.55498e-12 -3.7561e-12)
(6.20105e-12 -3.25992e-12 -2.22304e-12)
(5.53201e-12 -2.22701e-12 -1.83803e-12)
(5.8279e-12 -3.16464e-12 -1.70688e-12)
(7.3651e-12 -3.89706e-12 -2.24094e-12)
(8.07034e-12 -4.08226e-12 -2.60154e-12)
(7.97095e-12 -2.95526e-12 -2.60275e-12)
(8.2602e-12 -2.24853e-12 -2.30283e-12)
(8.99282e-12 -2.25188e-12 -2.41502e-12)
(8.80027e-12 -2.62353e-12 -3.55341e-12)
(7.86312e-12 -1.31609e-12 -4.57722e-12)
(6.42266e-12 7.809e-13 -3.529e-12)
(5.57003e-12 3.35483e-12 -1.87157e-12)
(3.09805e-12 4.14011e-12 1.71488e-13)
(3.97501e-13 4.35388e-12 1.9713e-12)
(-1.2898e-12 2.85137e-12 3.32279e-12)
(-3.82701e-12 2.46793e-12 3.85524e-12)
(-6.08051e-12 3.73655e-12 3.98188e-12)
(-7.71129e-12 2.79339e-12 3.49927e-12)
(-8.40221e-12 1.29282e-12 1.88694e-12)
(-9.23892e-12 3.88473e-14 7.36525e-13)
(-9.06525e-12 -8.16481e-13 1.17899e-12)
(-9.63748e-12 -1.69546e-12 8.78651e-13)
(-1.07623e-11 -2.50653e-12 8.35433e-13)
(-1.07387e-11 -3.40416e-12 5.95272e-13)
(-1.12114e-11 -3.11905e-12 5.45599e-13)
(-1.01362e-11 -4.21576e-12 6.84541e-13)
(-7.96704e-12 -5.49713e-12 9.46153e-13)
(-5.90181e-12 -4.42023e-12 4.26889e-13)
(-3.30094e-12 -3.48961e-12 -2.67403e-13)
(-3.36673e-12 -2.95791e-12 -1.55823e-12)
(-4.05957e-12 -3.09112e-12 -1.89379e-12)
(-3.72819e-12 -3.01142e-12 -2.35457e-12)
(-4.41184e-12 -1.73111e-12 -2.94658e-12)
(-4.03359e-12 -6.58273e-13 -3.1469e-12)
(-3.25251e-12 -1.98289e-12 -3.27361e-12)
(-3.51171e-12 -2.31156e-12 -2.36208e-12)
(-4.20499e-12 -1.36873e-12 -2.28252e-12)
(-5.28015e-12 -1.58756e-12 -2.13477e-12)
(-5.66688e-12 -1.32305e-12 -3.20679e-12)
(-4.28252e-12 -4.70859e-13 -5.23059e-12)
(-3.67054e-12 -1.28385e-12 -7.70628e-12)
(-3.6304e-12 -3.06696e-12 -9.81209e-12)
(-3.53611e-12 -2.19161e-12 -1.21092e-11)
(-3.24815e-12 -3.64837e-12 -1.34465e-11)
(-1.86877e-12 -5.07139e-12 -1.21625e-11)
(1.52519e-12 -5.20299e-12 -9.99409e-12)
(4.33616e-12 -4.99933e-12 -7.14226e-12)
(4.81943e-12 -2.19042e-12 -5.78305e-12)
(4.6623e-12 -2.45378e-12 -5.32962e-12)
(4.8575e-12 -2.74687e-12 -5.74243e-12)
(4.70562e-12 -2.03026e-12 -6.13522e-12)
(4.2871e-12 -2.36344e-12 -6.07863e-12)
(5.03945e-12 -2.13212e-12 -4.85295e-12)
(6.35837e-12 -7.11351e-13 -4.22389e-12)
(5.5579e-12 -2.44195e-13 -3.1207e-12)
(3.14214e-12 -5.18973e-13 -1.83537e-12)
(2.19178e-12 -1.06292e-12 1.09447e-12)
(2.908e-12 7.80066e-13 2.71677e-12)
(4.78803e-12 3.43394e-13 3.40493e-12)
(4.49133e-12 2.28097e-12 3.34866e-12)
(5.27309e-12 6.06642e-12 3.7562e-12)
(7.52982e-12 -1.32375e-12 -2.87981e-12)
(5.99086e-12 2.99373e-13 -1.71621e-13)
(4.04391e-12 8.02224e-13 2.52924e-12)
(1.73429e-12 1.1867e-12 1.42414e-12)
(-1.82021e-12 8.43513e-13 5.52621e-13)
(-2.83439e-12 4.37623e-13 -1.86067e-12)
(-3.14512e-12 -2.95451e-13 -3.42148e-12)
(-3.93702e-12 -5.94283e-13 -3.16383e-12)
(-4.60309e-12 -5.51418e-13 -3.09596e-12)
(-5.04124e-12 -2.78219e-13 -3.99948e-12)
(-5.59963e-12 -6.08906e-13 -5.17783e-12)
(-6.30996e-12 -7.01942e-13 -5.20996e-12)
(-6.75501e-12 -7.90139e-13 -6.15394e-12)
(-7.58433e-12 -5.99262e-13 -7.00955e-12)
(-8.5065e-12 3.25435e-13 -6.72523e-12)
(-9.82837e-12 6.25599e-14 -6.02961e-12)
(-9.51993e-12 -1.68218e-13 -1.93018e-12)
(-7.82595e-12 4.17344e-13 -2.29129e-12)
(-5.63086e-12 7.12018e-13 -2.36251e-12)
(-7.11337e-12 7.40422e-13 -2.15801e-12)
(-7.99538e-12 8.1906e-13 -1.70129e-12)
(-5.36163e-12 7.63652e-13 -1.53251e-12)
(-5.05229e-12 4.7163e-13 -1.56372e-12)
(-5.54178e-12 -1.36495e-13 -2.10268e-12)
(-3.56872e-12 2.93282e-13 -4.34837e-12)
(-3.70044e-12 5.11734e-13 -8.27128e-12)
(-3.99981e-12 3.96554e-13 -7.81885e-12)
(-2.16151e-12 8.72083e-13 -7.42077e-12)
(-1.76846e-12 1.50117e-12 -5.63428e-12)
(-1.66106e-12 7.96293e-13 -9.34299e-12)
(1.04234e-12 6.04352e-13 -1.21333e-11)
(1.81065e-12 1.13951e-14 -1.27001e-11)
(1.50083e-12 -5.58791e-13 -1.28945e-11)
(3.3365e-12 -3.89104e-14 -1.30205e-11)
(4.21139e-12 1.45448e-12 -1.2591e-11)
(4.73705e-12 1.89191e-12 -1.03105e-11)
(3.47523e-12 2.32608e-12 -7.4392e-12)
(4.76971e-13 2.97659e-12 -5.82489e-12)
(-2.92583e-13 3.32417e-12 -3.7108e-12)
(-1.15715e-12 2.6447e-12 -3.13179e-12)
(-2.619e-12 2.21511e-12 -2.67709e-12)
(-3.85168e-12 1.25358e-12 -1.99755e-12)
(-3.52011e-12 6.8564e-13 -1.58572e-12)
(-3.23262e-12 8.60558e-13 -1.75564e-12)
(-3.62672e-12 3.1546e-13 -7.05667e-13)
(-4.73197e-12 -8.8886e-13 -6.6096e-13)
(-4.91109e-12 -1.42728e-12 -7.25255e-13)
(-4.94701e-12 -1.46806e-12 -1.03697e-12)
(-4.89622e-12 -1.09649e-12 -3.72775e-13)
(-4.0807e-12 -2.23696e-12 6.49562e-13)
(-5.55202e-13 -1.0664e-12 1.36877e-12)
(2.65898e-12 -6.84929e-13 1.83142e-12)
(2.78252e-12 9.14919e-13 8.16011e-13)
(2.73535e-12 1.82743e-12 2.56122e-12)
(2.88585e-12 2.85104e-12 1.65792e-12)
(8.14934e-13 3.85843e-12 3.06113e-13)
(-3.36883e-13 3.76055e-12 8.20827e-13)
(7.16406e-13 3.8387e-12 -1.24789e-12)
(-7.86586e-13 3.26985e-12 -3.11215e-12)
(-3.0811e-12 2.04618e-12 -4.23559e-12)
(-2.99209e-12 1.39699e-12 -2.93142e-12)
(-4.63179e-12 9.24178e-14 -2.33065e-12)
(-5.60749e-12 -6.75253e-13 -2.85384e-12)
(-3.5513e-12 -1.31229e-12 -3.92629e-12)
(-1.59275e-12 -1.89694e-12 -2.83276e-12)
(-7.51924e-13 -3.79734e-12 -2.16284e-12)
(6.13618e-13 -4.00257e-12 -9.14728e-13)
(2.6027e-12 -3.11241e-12 2.87181e-13)
(5.00008e-12 -3.11716e-12 1.22135e-12)
(6.34463e-12 -3.94485e-12 1.40155e-12)
(7.67374e-12 -3.54684e-12 3.14344e-12)
(7.8715e-12 -1.856e-12 4.37308e-12)
(8.10173e-12 -7.0128e-13 5.39626e-12)
(9.444e-12 4.87061e-13 5.97716e-12)
(1.05214e-11 1.17397e-12 8.83315e-12)
(8.65206e-12 2.35291e-12 1.07043e-11)
(9.13365e-12 1.56874e-12 1.2898e-11)
(1.05001e-11 1.82967e-12 1.41995e-11)
(8.15034e-12 2.44287e-12 1.34363e-11)
(6.08991e-12 2.90764e-12 1.29117e-11)
(5.30859e-12 2.43786e-12 1.19163e-11)
(3.44963e-12 2.31902e-12 9.72811e-12)
(2.09864e-12 2.45103e-12 7.36464e-12)
(1.63497e-12 1.90903e-12 4.0738e-12)
(5.89028e-14 2.2421e-12 1.24774e-12)
(-9.01063e-13 1.12777e-12 3.57036e-13)
(-8.14379e-13 1.4259e-12 -1.2087e-13)
(-1.23525e-12 9.14454e-13 6.76797e-13)
(-1.95995e-12 1.0227e-12 2.48275e-12)
(-1.78473e-12 1.75712e-12 3.33391e-12)
(-2.65318e-12 1.41687e-12 4.92109e-12)
(-3.36816e-12 1.77179e-12 6.99344e-12)
(-4.63752e-12 1.73481e-12 7.88666e-12)
(-5.99337e-12 1.41256e-12 7.94495e-12)
(-7.41906e-12 1.34919e-12 6.89852e-12)
(-9.38467e-12 1.59858e-12 4.87972e-12)
(-1.17606e-11 2.00959e-12 2.83518e-12)
(-1.21226e-11 5.57022e-13 1.43025e-12)
(-1.03018e-11 -3.3304e-13 1.69913e-12)
(-1.08179e-11 -1.01727e-12 2.30884e-12)
(-1.01852e-11 -2.39343e-12 1.79986e-12)
(-6.68683e-12 -4.06014e-12 1.80436e-12)
(-4.73567e-12 -6.08443e-12 1.34211e-12)
(-3.80618e-12 -6.39766e-12 6.60589e-13)
(-2.12677e-12 -5.73212e-12 5.66372e-13)
(-7.6775e-13 -5.55268e-12 2.06443e-12)
(4.09617e-13 -5.09999e-12 4.26667e-12)
(1.37669e-12 -4.54974e-12 2.34802e-12)
(1.10374e-12 -3.32724e-12 3.70027e-13)
(4.35569e-13 -2.09338e-12 -1.89837e-12)
(4.85439e-13 -1.15143e-12 -3.9877e-12)
(5.58125e-14 -7.84349e-13 -2.68666e-12)
(2.29797e-13 -2.62849e-13 -1.34918e-12)
(6.67217e-13 -5.22413e-13 -3.32168e-12)
(-5.83765e-13 -1.06998e-12 -3.70363e-12)
(5.37978e-13 -2.11848e-12 -2.82239e-12)
(1.96097e-12 -3.35525e-12 -4.71191e-12)
(1.44984e-12 -4.10751e-12 -5.14735e-12)
(3.32313e-12 -4.95472e-12 -4.93254e-12)
(4.42254e-12 -5.096e-12 -4.54697e-12)
(4.26469e-12 -5.44071e-12 -4.27612e-12)
(6.74975e-12 -6.18531e-12 -4.30993e-12)
(9.62672e-12 -7.93566e-12 -3.61087e-12)
(1.11568e-11 -6.76398e-12 -4.84446e-12)
(1.30132e-11 -5.58837e-12 -5.01749e-12)
(1.36679e-11 -4.23941e-12 -6.49617e-12)
(1.35808e-11 -2.74102e-12 -6.60909e-12)
(1.22532e-11 -1.52711e-12 -6.74507e-12)
(1.13368e-11 -4.63731e-13 -5.80793e-12)
(1.00331e-11 7.59007e-13 -5.77685e-12)
(7.56841e-12 1.29817e-12 -5.8506e-12)
(5.4605e-12 2.37381e-12 -6.70119e-12)
(3.37509e-12 1.82682e-12 -8.04335e-12)
(1.97491e-12 1.2796e-12 -9.06646e-12)
(2.2468e-12 1.53864e-12 -1.06483e-11)
(1.09473e-12 1.55743e-12 -1.11455e-11)
(-9.09637e-13 1.10828e-12 -1.17974e-11)
(-2.20913e-12 8.10894e-13 -1.29221e-11)
(-2.28984e-12 1.57441e-12 -1.3666e-11)
(-2.6859e-12 1.08481e-12 -1.53729e-11)
(-3.38081e-12 9.88811e-13 -1.31447e-11)
(-4.90158e-12 4.76822e-13 -1.1014e-11)
(-3.93955e-12 1.11177e-12 -1.01036e-11)
(-3.57659e-12 -9.94539e-14 -8.30932e-12)
(-3.80764e-12 4.12358e-13 -4.7656e-12)
(-1.19311e-12 -5.02838e-13 -1.0987e-12)
(-1.39693e-12 -5.92878e-13 -2.1204e-12)
(-1.75199e-12 -2.45905e-13 -1.79217e-12)
(-1.63555e-12 -2.04363e-13 -1.49198e-12)
(-2.83012e-12 -3.27491e-13 -1.79385e-14)
(-3.95157e-12 -1.50866e-13 6.44041e-13)
(-1.48782e-12 -8.42073e-13 7.39103e-13)
(8.47446e-13 -7.0407e-13 -1.44747e-13)
(1.38014e-12 -4.6733e-13 4.11272e-12)
(3.2572e-12 -1.16874e-13 5.20202e-12)
(2.57828e-12 4.68749e-13 2.80638e-12)
(3.19948e-12 1.6036e-12 1.19287e-12)
(4.68175e-12 1.49627e-12 6.06318e-13)
(2.5601e-12 1.60602e-12 -2.63217e-14)
(6.02451e-13 2.53599e-12 -1.36668e-12)
(-2.02345e-13 3.75428e-12 -2.16421e-12)
(-8.20296e-13 3.47798e-12 -2.43961e-12)
(-3.42799e-13 3.06877e-12 -2.48168e-12)
(-8.65418e-13 2.49542e-12 -2.79999e-12)
(-1.37313e-12 1.87182e-12 -2.91446e-12)
(8.89589e-13 1.73165e-12 -2.359e-12)
(2.90591e-12 1.17655e-12 -2.06485e-12)
(3.04544e-12 -1.46775e-13 -4.4392e-12)
(3.8946e-12 -8.79395e-13 -6.86187e-12)
(5.2274e-12 -1.51558e-12 -5.26863e-12)
(5.77105e-12 -7.70631e-13 -3.46413e-12)
(5.16427e-12 -4.69415e-13 -2.78108e-12)
(6.81942e-12 -1.01304e-12 -2.53188e-12)
(7.98697e-12 -3.48176e-13 -2.96804e-12)
(8.3151e-12 -5.42941e-13 -2.99418e-12)
(8.49331e-12 -6.92481e-13 -3.05797e-12)
(8.18082e-12 -1.18272e-12 -2.89577e-12)
(8.95769e-12 -5.94834e-13 -3.43703e-12)
(9.14973e-12 -4.18359e-14 -4.97669e-12)
(7.59003e-12 1.17174e-12 -5.54649e-12)
(5.39674e-12 2.43314e-12 -4.17023e-12)
(4.4096e-12 4.28947e-12 -2.44003e-12)
(3.40136e-12 5.25149e-12 -6.76227e-14)
(7.0114e-13 5.59089e-12 1.79609e-12)
(-1.50328e-12 4.33325e-12 3.38398e-12)
(-4.97036e-12 4.43765e-12 3.80741e-12)
(-7.21422e-12 4.94846e-12 3.90807e-12)
(-6.70292e-12 3.49207e-12 3.05557e-12)
(-7.33572e-12 2.40362e-12 1.29753e-12)
(-8.65162e-12 1.30859e-12 1.27046e-12)
(-8.6524e-12 1.90372e-13 1.10612e-12)
(-9.6586e-12 4.52761e-14 1.64823e-13)
(-1.06196e-11 -1.62062e-13 -5.24299e-13)
(-1.08692e-11 3.62625e-14 -4.1047e-13)
(-1.18602e-11 -4.09838e-13 -3.08589e-13)
(-9.53802e-12 -1.46026e-12 5.49939e-13)
(-7.04972e-12 -2.04932e-12 1.68743e-12)
(-7.22093e-12 -2.15898e-12 2.99003e-12)
(-4.27711e-12 -1.86933e-12 1.40671e-12)
(-2.74397e-12 -5.81746e-13 -4.22931e-13)
(-3.70871e-12 1.2833e-13 -1.18617e-12)
(-4.23093e-12 7.40896e-15 -2.06001e-12)
(-5.72755e-12 2.31377e-13 -2.24099e-12)
(-3.90257e-12 9.11387e-13 -2.391e-12)
(-2.28495e-12 3.77029e-13 -2.55346e-12)
(-3.81044e-12 3.02272e-13 -2.01317e-12)
(-4.57784e-12 5.92974e-13 -2.18036e-12)
(-4.69165e-12 -2.51391e-13 -2.16654e-12)
(-5.81893e-12 -7.754e-13 -2.15453e-12)
(-4.58602e-12 -7.51934e-13 -4.31111e-12)
(-3.30197e-12 -1.09041e-12 -6.321e-12)
(-4.14609e-12 -8.06858e-13 -7.70106e-12)
(-3.15828e-12 -1.18785e-12 -9.04353e-12)
(-1.21591e-12 -1.05643e-12 -9.73467e-12)
(-1.56284e-13 -2.1278e-12 -9.67111e-12)
(1.24051e-12 -2.78877e-12 -8.31936e-12)
(2.51408e-12 -2.52153e-12 -6.7371e-12)
(3.95307e-12 -1.34463e-12 -6.13333e-12)
(4.93571e-12 -1.31647e-12 -3.83194e-12)
(5.28477e-12 -1.47879e-12 -4.97708e-12)
(4.93976e-12 -1.34857e-12 -5.68973e-12)
(4.69819e-12 -1.41154e-12 -5.59854e-12)
(5.59409e-12 -1.46499e-12 -5.16232e-12)
(6.21629e-12 -1.52944e-12 -4.53102e-12)
(5.72732e-12 -5.46766e-13 -4.54038e-12)
(4.20676e-12 -3.29365e-13 -2.96919e-12)
(1.09976e-12 -4.09739e-13 2.84781e-14)
(1.59387e-12 5.30892e-13 3.34042e-12)
(4.46559e-12 2.30867e-12 4.72737e-12)
(3.5185e-12 4.41829e-12 4.18407e-12)
(3.9195e-12 7.33604e-12 3.93241e-12)
(7.77317e-12 4.56198e-13 -3.04764e-12)
(5.89202e-12 1.49565e-12 -5.9449e-13)
(3.9348e-12 1.52243e-12 2.10937e-12)
(1.45832e-12 2.28617e-12 2.08742e-12)
(-1.50978e-12 2.02813e-12 7.89942e-13)
(-2.37105e-12 2.28673e-12 -1.01578e-12)
(-2.79563e-12 1.95524e-12 -2.52915e-12)
(-4.06092e-12 2.33681e-12 -2.54433e-12)
(-4.99184e-12 2.07381e-12 -2.47121e-12)
(-5.57275e-12 2.44231e-12 -4.18049e-12)
(-5.73707e-12 2.61125e-12 -5.52205e-12)
(-5.97139e-12 1.98232e-12 -5.24764e-12)
(-6.44137e-12 1.67404e-12 -6.99278e-12)
(-7.86439e-12 1.56704e-12 -8.47699e-12)
(-8.33711e-12 1.07857e-12 -8.35376e-12)
(-8.55483e-12 5.72659e-13 -6.8045e-12)
(-9.32132e-12 3.83301e-14 -3.95697e-12)
(-8.26166e-12 -8.38695e-13 -2.98076e-12)
(-6.43664e-12 -1.46675e-13 -2.72271e-12)
(-7.14063e-12 3.20971e-13 -2.36706e-12)
(-7.79425e-12 -3.06138e-13 -2.05298e-12)
(-5.83781e-12 -3.17705e-13 -1.96031e-12)
(-4.50495e-12 -3.44064e-14 -2.24586e-12)
(-4.99274e-12 -8.3975e-13 -2.81591e-12)
(-4.31668e-12 -7.49105e-13 -4.75099e-12)
(-3.30369e-12 -1.57473e-14 -7.59378e-12)
(-4.02535e-12 -3.44494e-13 -8.49294e-12)
(-3.19706e-12 6.15614e-14 -7.90489e-12)
(-2.02701e-12 5.30079e-13 -6.83944e-12)
(-6.22032e-13 7.62317e-13 -8.75229e-12)
(1.26268e-12 9.37309e-13 -9.67951e-12)
(1.32968e-12 2.08807e-12 -9.92142e-12)
(1.48776e-12 2.10666e-12 -9.71846e-12)
(2.36363e-12 2.02095e-12 -9.71814e-12)
(3.18699e-12 3.07593e-12 -9.81424e-12)
(4.28784e-12 3.1757e-12 -9.05945e-12)
(3.19249e-12 3.49407e-12 -7.55389e-12)
(-1.57291e-13 4.22907e-12 -6.23537e-12)
(-5.02225e-13 4.08179e-12 -3.34736e-12)
(-9.14441e-13 3.2536e-12 -3.19655e-12)
(-2.05757e-12 3.68198e-12 -2.8572e-12)
(-2.87996e-12 2.67103e-12 -2.93335e-12)
(-3.01625e-12 2.47506e-12 -2.64506e-12)