/*--------------------------------*- C++ -*----------------------------------*\
| =========                 |                                                 |
| \\      /  F ield         | OpenFOAM: The Open Source CFD Toolbox           |
|  \\    /   O peration     | Version:  2406                                  |
|   \\  /    A nd           | Website:  www.openfoam.com                      |
|    \\/     M anipulation  |                                                 |
\*---------------------------------------------------------------------------*/
FoamFile
{
    version     2.0;
    format      ascii;
    arch        "LSB;label=32;scalar=64";
    class       volScalarField;
    location    "0.006";
    object      Ma;
}
// * * * * * * * * * * * * * * * * * * * * * * * * * * * * * * * * * * * * * //

dimensions      [0 0 0 0 0 0 0];

internalField   nonuniform List<scalar> 
81000
(
0.00105158
0.00105261
0.00105256
0.0010524
0.00105212
0.00105174
0.00105137
0.00105107
0.00105088
0.00105079
0.00105076
0.00105076
0.00105077
0.0010508
0.00105087
0.00105096
0.00105107
0.00105119
0.0010513
0.00105141
0.0010515
0.00105157
0.00105162
0.00105164
0.00105165
0.00105165
0.00105164
0.00105163
0.00105161
0.00105159
0.00105157
0.00105155
0.00105155
0.00105154
0.00105154
0.00105155
0.00105156
0.00105158
0.00105161
0.00105164
0.00105168
0.00105173
0.00105179
0.00105186
0.00105194
0.00105202
0.00105211
0.00105221
0.00105232
0.00105243
0.00105254
0.00105264
0.00105275
0.00105285
0.00105294
0.00105303
0.0010531
0.00105317
0.00105324
0.00105331
0.00105338
0.00105347
0.00105356
0.00105367
0.0010538
0.00105395
0.00105412
0.00105431
0.00105454
0.00105479
0.00105507
0.00105538
0.00105572
0.00105609
0.00105648
0.00105688
0.00105729
0.00105771
0.00105811
0.00105851
0.00105888
0.00105925
0.00105961
0.00105996
0.00106032
0.00106069
0.00106107
0.00106147
0.00106188
0.00106232
0.0010628
0.0010633
0.00106384
0.0010644
0.00106496
0.0010655
0.00106597
0.00106634
0.00106658
0.00106669
0.00345017
0.00344979
0.00344922
0.00344838
0.00344738
0.0034464
0.00344555
0.00344491
0.00344451
0.00344431
0.00344424
0.00344423
0.00344426
0.00344434
0.00344451
0.00344478
0.00344515
0.0034456
0.00344607
0.00344652
0.00344692
0.00344725
0.0034475
0.00344768
0.00344779
0.00344786
0.00344789
0.00344789
0.00344787
0.00344782
0.00344775
0.00344768
0.00344761
0.00344756
0.00344752
0.0034475
0.00344748
0.00344747
0.00344746
0.00344745
0.00344744
0.00344744
0.00344744
0.00344744
0.00344744
0.00344743
0.00344742
0.00344739
0.00344735
0.00344728
0.00344719
0.00344705
0.00344689
0.00344668
0.00344643
0.00344616
0.00344586
0.00344554
0.00344521
0.00344489
0.00344458
0.0034443
0.00344404
0.0034438
0.00344357
0.00344335
0.00344314
0.00344293
0.00344273
0.00344252
0.00344229
0.003442
0.00344163
0.00344115
0.00344057
0.00343986
0.00343902
0.00343806
0.00343698
0.00343581
0.00343457
0.00343333
0.00343212
0.00343102
0.00343011
0.00342945
0.00342907
0.00342891
0.00342888
0.00342894
0.00342916
0.0034297
0.00343066
0.00343207
0.00343382
0.00343568
0.00343738
0.00343868
0.00343947
0.00343987
0.00419723
0.00419616
0.00419427
0.00419158
0.00418866
0.00418599
0.00418385
0.0041823
0.00418134
0.00418087
0.00418072
0.00418071
0.00418077
0.00418096
0.00418133
0.00418188
0.00418263
0.00418351
0.00418449
0.00418548
0.00418641
0.00418721
0.00418786
0.00418832
0.0041886
0.00418874
0.00418879
0.00418876
0.00418862
0.00418836
0.00418805
0.00418774
0.00418746
0.0041872
0.00418696
0.00418675
0.00418656
0.00418639
0.00418625
0.00418613
0.00418599
0.00418584
0.00418567
0.00418548
0.00418527
0.00418504
0.00418481
0.00418458
0.00418436
0.00418418
0.00418404
0.00418396
0.00418396
0.00418406
0.0041843
0.00418469
0.00418524
0.00418598
0.00418687
0.00418789
0.00418899
0.00419015
0.00419142
0.00419284
0.00419446
0.00419628
0.00419826
0.00420033
0.00420238
0.00420429
0.00420588
0.004207
0.00420741
0.00420694
0.00420552
0.00420305
0.00419942
0.00419463
0.00418879
0.0041821
0.00417485
0.00416731
0.00415979
0.00415255
0.00414589
0.0041401
0.0041355
0.00413233
0.0041306
0.00412996
0.00412988
0.00413005
0.00413061
0.00413174
0.00413356
0.00413605
0.00413902
0.00414205
0.00414446
0.0041459
0.00653276
0.00653238
0.00653206
0.00653164
0.00653114
0.00653065
0.00653018
0.00652984
0.00652963
0.00652957
0.00652957
0.00652966
0.00652992
0.00653049
0.00653132
0.00653247
0.00653381
0.00653539
0.0065371
0.006539
0.00654092
0.00654289
0.00654475
0.00654652
0.00654806
0.00654942
0.00655051
0.0065514
0.00655207
0.00655256
0.00655289
0.00655309
0.0065532
0.00655325
0.00655326
0.00655324
0.00655319
0.0065531
0.00655299
0.00655286
0.00655272
0.0065526
0.00655248
0.00655239
0.00655232
0.00655228
0.00655226
0.00655228
0.00655234
0.00655245
0.00655263
0.00655291
0.00655333
0.00655395
0.00655482
0.00655601
0.00655759
0.00655965
0.00656226
0.00656548
0.00656934
0.00657386
0.00657905
0.00658489
0.00659132
0.00659828
0.00660569
0.00661344
0.00662141
0.00662949
0.00663754
0.00664544
0.00665306
0.00666031
0.00666708
0.00667334
0.00667902
0.00668412
0.00668862
0.00669256
0.00669596
0.0066989
0.00670144
0.00670367
0.00670567
0.00670753
0.00670928
0.00671096
0.00671255
0.00671405
0.00671544
0.00671676
0.00671808
0.00671947
0.00672099
0.00672263
0.00672449
0.00672627
0.00672759
0.00672837
0.0134122
0.0134105
0.0134081
0.013405
0.0134019
0.0133992
0.0133968
0.013395
0.0133933
0.0133918
0.0133904
0.0133891
0.013388
0.0133869
0.0133859
0.0133851
0.0133844
0.0133837
0.0133831
0.0133825
0.013382
0.0133814
0.0133808
0.0133802
0.0133796
0.013379
0.0133783
0.0133777
0.0133771
0.0133766
0.0133761
0.0133756
0.0133752
0.0133749
0.0133746
0.0133744
0.0133742
0.0133741
0.013374
0.013374
0.0133739
0.0133739
0.0133739
0.0133738
0.0133738
0.0133738
0.0133738
0.0133738
0.0133738
0.0133737
0.0133736
0.0133735
0.0133733
0.013373
0.0133725
0.0133719
0.013371
0.01337
0.0133687
0.0133671
0.0133654
0.0133634
0.0133613
0.0133592
0.0133572
0.0133552
0.0133534
0.0133517
0.0133503
0.0133491
0.0133482
0.0133477
0.0133474
0.0133475
0.0133478
0.0133485
0.0133493
0.0133503
0.0133514
0.0133527
0.013354
0.0133554
0.0133568
0.0133582
0.0133596
0.013361
0.0133624
0.0133637
0.0133648
0.0133659
0.0133667
0.0133675
0.013368
0.0133684
0.0133686
0.0133687
0.0133688
0.0133688
0.0133688
0.0133578
0.0243087
0.0243036
0.0243026
0.0243009
0.0242989
0.0242967
0.0242946
0.0242928
0.0242913
0.02429
0.0242889
0.0242878
0.0242869
0.024286
0.0242851
0.0242843
0.0242836
0.0242829
0.0242823
0.0242817
0.0242812
0.0242806
0.0242801
0.0242796
0.0242792
0.0242787
0.0242782
0.0242778
0.0242774
0.0242771
0.0242768
0.0242766
0.0242764
0.0242762
0.0242761
0.024276
0.0242759
0.0242759
0.0242758
0.0242758
0.0242758
0.0242757
0.0242757
0.0242757
0.0242757
0.0242757
0.0242757
0.0242757
0.0242756
0.0242756
0.0242755
0.0242753
0.0242751
0.0242748
0.0242744
0.0242738
0.024273
0.0242721
0.0242709
0.0242694
0.0242676
0.0242656
0.0242632
0.0242606
0.0242578
0.0242548
0.0242517
0.0242486
0.0242455
0.0242425
0.0242398
0.0242372
0.0242349
0.024233
0.0242313
0.0242299
0.0242287
0.0242278
0.0242271
0.0242266
0.0242263
0.0242262
0.0242262
0.0242263
0.0242265
0.0242269
0.0242273
0.0242279
0.0242285
0.0242293
0.0242303
0.0242313
0.0242323
0.0242334
0.0242344
0.0242353
0.024236
0.0242371
0.0242385
0.0242333
0.0348253
0.0348316
0.0348314
0.0348313
0.0348313
0.0348312
0.0348311
0.034831
0.0348308
0.0348307
0.0348306
0.0348305
0.0348303
0.0348302
0.0348301
0.0348299
0.0348298
0.0348297
0.0348296
0.0348296
0.0348295
0.0348295
0.0348294
0.0348294
0.0348294
0.0348294
0.0348295
0.0348295
0.0348295
0.0348295
0.0348295
0.0348295
0.0348295
0.0348295
0.0348295
0.0348295
0.0348295
0.0348295
0.0348295
0.0348295
0.0348294
0.0348294
0.0348294
0.0348294
0.0348294
0.0348294
0.0348294
0.0348294
0.0348294
0.0348295
0.0348295
0.0348295
0.0348296
0.0348296
0.0348296
0.0348297
0.0348297
0.0348297
0.0348298
0.0348298
0.0348298
0.0348298
0.0348298
0.0348299
0.0348299
0.0348299
0.03483
0.0348301
0.0348301
0.0348302
0.0348303
0.0348304
0.0348305
0.0348306
0.0348306
0.0348307
0.0348308
0.0348308
0.0348309
0.0348309
0.0348309
0.0348309
0.0348309
0.034831
0.034831
0.034831
0.0348311
0.0348312
0.0348312
0.0348313
0.0348315
0.0348316
0.0348318
0.0348319
0.0348321
0.0348322
0.0348323
0.0348326
0.0348329
0.0348231
0.053961
0.0539591
0.0539591
0.0539589
0.0539588
0.0539587
0.0539586
0.0539584
0.0539581
0.0539579
0.0539577
0.0539574
0.0539571
0.0539569
0.0539566
0.0539562
0.0539558
0.0539554
0.053955
0.0539547
0.0539544
0.053954
0.0539537
0.0539534
0.0539531
0.0539529
0.0539526
0.0539524
0.0539523
0.0539521
0.053952
0.0539519
0.0539519
0.0539519
0.0539518
0.0539518
0.0539518
0.0539519
0.0539519
0.0539519
0.0539519
0.053952
0.053952
0.0539521
0.0539522
0.0539523
0.0539524
0.0539525
0.0539527
0.0539529
0.0539531
0.0539534
0.0539537
0.053954
0.0539543
0.0539547
0.053955
0.0539554
0.0539557
0.0539561
0.0539564
0.0539567
0.0539569
0.053957
0.0539571
0.0539571
0.0539571
0.0539571
0.0539571
0.053957
0.0539568
0.0539566
0.0539564
0.0539561
0.0539558
0.0539554
0.053955
0.0539546
0.0539541
0.0539537
0.0539532
0.0539528
0.0539524
0.053952
0.0539516
0.0539513
0.053951
0.0539506
0.0539503
0.0539499
0.0539496
0.0539492
0.0539489
0.0539486
0.0539485
0.0539484
0.0539485
0.0539486
0.0539488
0.0539409
0.0548716
0.0549782
0.0549779
0.0549778
0.0549778
0.0549778
0.0549778
0.0549778
0.0549778
0.0549778
0.0549777
0.0549777
0.0549776
0.0549776
0.0549775
0.0549774
0.0549774
0.0549773
0.0549773
0.0549772
0.0549772
0.0549772
0.0549771
0.0549771
0.054977
0.054977
0.054977
0.0549769
0.0549769
0.0549768
0.0549768
0.0549767
0.0549767
0.0549767
0.0549767
0.0549767
0.0549767
0.0549767
0.0549767
0.0549767
0.0549767
0.0549767
0.0549767
0.0549767
0.0549767
0.0549767
0.0549768
0.0549768
0.0549768
0.0549769
0.0549769
0.054977
0.0549771
0.0549771
0.0549772
0.0549773
0.0549773
0.0549774
0.0549775
0.0549775
0.0549776
0.0549777
0.0549777
0.0549778
0.0549778
0.0549779
0.0549779
0.0549779
0.0549779
0.054978
0.054978
0.054978
0.054978
0.0549779
0.0549779
0.0549779
0.0549778
0.0549778
0.0549777
0.0549776
0.0549776
0.0549775
0.0549774
0.0549773
0.0549772
0.0549771
0.054977
0.0549769
0.0549768
0.0549767
0.0549766
0.0549765
0.0549765
0.0549764
0.0549764
0.0549764
0.0549764
0.0549763
0.0549769
0.0548287
0.0171077
0.0172104
0.0172114
0.0172116
0.0172117
0.0172118
0.0172118
0.0172119
0.017212
0.017212
0.0172121
0.0172122
0.0172122
0.0172123
0.0172124
0.0172125
0.0172126
0.0172126
0.0172127
0.0172128
0.0172129
0.017213
0.017213
0.0172131
0.0172131
0.0172132
0.0172132
0.0172133
0.0172133
0.0172133
0.0172134
0.0172134
0.0172134
0.0172134
0.0172134
0.0172134
0.0172134
0.0172134
0.0172134
0.0172134
0.0172134
0.0172134
0.0172134
0.0172134
0.0172134
0.0172134
0.0172134
0.0172134
0.0172133
0.0172133
0.0172133
0.0172133
0.0172132
0.0172132
0.0172131
0.0172131
0.017213
0.017213
0.0172129
0.0172129
0.0172128
0.0172128
0.0172127
0.0172127
0.0172126
0.0172126
0.0172125
0.0172125
0.0172125
0.0172124
0.0172124
0.0172124
0.0172124
0.0172124
0.0172124
0.0172124
0.0172124
0.0172124
0.0172124
0.0172124
0.0172124
0.0172124
0.0172124
0.0172124
0.0172124
0.0172124
0.0172124
0.0172124
0.0172124
0.0172123
0.0172123
0.0172123
0.0172123
0.0172123
0.0172123
0.0172123
0.0172123
0.0172123
0.0172115
0.0170865
0.0010559
0.00105556
0.00105498
0.00105426
0.00105353
0.0010529
0.00105242
0.00105207
0.00105184
0.00105171
0.00105164
0.00105161
0.0010516
0.0010516
0.0010516
0.00105163
0.00105169
0.00105179
0.0010519
0.00105201
0.00105211
0.00105218
0.00105222
0.00105223
0.00105223
0.00105223
0.00105221
0.00105218
0.00105215
0.0010521
0.00105205
0.00105201
0.00105197
0.00105195
0.00105193
0.00105193
0.00105193
0.00105193
0.00105194
0.00105195
0.00105197
0.00105201
0.00105205
0.00105211
0.00105218
0.00105226
0.00105235
0.00105246
0.00105257
0.00105269
0.00105281
0.00105293
0.00105306
0.00105318
0.0010533
0.00105343
0.00105354
0.00105366
0.00105378
0.0010539
0.00105403
0.00105418
0.00105433
0.00105449
0.00105466
0.00105483
0.00105501
0.0010552
0.00105539
0.00105559
0.00105579
0.00105598
0.00105616
0.00105632
0.00105648
0.0010566
0.0010567
0.00105676
0.00105679
0.00105679
0.00105679
0.00105678
0.00105677
0.00105677
0.00105679
0.00105684
0.00105694
0.00105709
0.00105728
0.00105751
0.00105779
0.00105811
0.00105851
0.00105897
0.00105951
0.00106011
0.00106068
0.00106113
0.00106138
0.00106151
0.00344406
0.00344354
0.00344307
0.00344232
0.00344142
0.00344054
0.00343984
0.00343938
0.00343914
0.00343905
0.00343904
0.00343905
0.00343911
0.00343926
0.00343952
0.00343988
0.00344035
0.00344087
0.00344141
0.00344192
0.00344238
0.00344276
0.00344305
0.00344325
0.00344337
0.00344343
0.00344346
0.00344346
0.00344345
0.00344341
0.00344335
0.00344327
0.00344319
0.00344311
0.00344304
0.00344298
0.00344293
0.00344289
0.00344285
0.00344282
0.00344278
0.00344274
0.00344271
0.00344267
0.00344263
0.00344259
0.00344254
0.00344247
0.00344239
0.00344228
0.00344213
0.00344196
0.00344175
0.00344151
0.00344123
0.00344091
0.00344057
0.00344022
0.00343985
0.00343948
0.00343913
0.00343881
0.00343852
0.00343827
0.00343805
0.00343782
0.0034376
0.00343739
0.0034372
0.00343703
0.00343688
0.00343675
0.00343661
0.0034364
0.00343612
0.00343576
0.0034353
0.00343474
0.0034341
0.0034334
0.00343272
0.00343213
0.0034317
0.00343145
0.00343135
0.00343136
0.00343146
0.00343167
0.00343203
0.00343256
0.00343331
0.00343433
0.00343567
0.00343735
0.00343937
0.00344161
0.00344387
0.00344585
0.00344724
0.00344818
0.00407627
0.00407903
0.0040788
0.00407806
0.00407674
0.00407505
0.00407337
0.00407206
0.00407126
0.00407093
0.00407087
0.0040709
0.00407103
0.00407134
0.00407188
0.00407271
0.00407377
0.00407504
0.00407639
0.00407775
0.00407902
0.00408019
0.00408117
0.00408197
0.00408254
0.00408293
0.00408313
0.00408321
0.00408323
0.00408322
0.00408315
0.00408301
0.00408282
0.0040826
0.00408239
0.00408221
0.00408205
0.0040819
0.00408178
0.00408165
0.00408148
0.0040813
0.00408107
0.0040808
0.00408049
0.00408013
0.00407973
0.0040793
0.00407883
0.00407836
0.00407788
0.00407743
0.00407703
0.00407669
0.00407646
0.00407636
0.00407641
0.00407662
0.00407699
0.00407752
0.00407818
0.00407898
0.00407991
0.00408097
0.00408217
0.00408351
0.004085
0.00408659
0.00408824
0.00408985
0.00409139
0.00409275
0.00409385
0.0040946
0.00409492
0.00409473
0.00409402
0.00409278
0.00409103
0.00408886
0.00408637
0.00408382
0.00408145
0.00407959
0.00407836
0.0040778
0.0040777
0.00407791
0.00407849
0.0040796
0.00408124
0.0040834
0.00408597
0.00408895
0.00409234
0.00409623
0.00410048
0.00410473
0.0041081
0.00411046
0.00650557
0.00650844
0.00650832
0.00650791
0.00650719
0.00650616
0.00650505
0.00650392
0.00650296
0.00650216
0.00650161
0.00650123
0.00650105
0.00650098
0.006501
0.00650108
0.00650133
0.00650175
0.00650242
0.00650317
0.00650407
0.0065049
0.00650574
0.00650641
0.00650698
0.00650736
0.00650762
0.00650774
0.00650779
0.00650779
0.00650774
0.00650767
0.00650756
0.00650744
0.00650732
0.00650719
0.00650707
0.00650695
0.00650684
0.00650674
0.00650665
0.00650658
0.00650652
0.00650648
0.00650645
0.00650644
0.00650646
0.00650649
0.00650654
0.00650663
0.00650675
0.00650692
0.00650715
0.00650746
0.00650787
0.00650839
0.00650905
0.00650987
0.00651086
0.00651207
0.0065135
0.0065152
0.00651718
0.00651947
0.00652203
0.00652485
0.00652792
0.00653122
0.00653471
0.00653834
0.00654207
0.00654586
0.00654967
0.00655342
0.00655708
0.00656059
0.00656391
0.00656701
0.00656989
0.00657255
0.00657501
0.0065773
0.00657945
0.0065815
0.00658351
0.00658548
0.00658743
0.00658935
0.00659121
0.00659298
0.00659466
0.00659624
0.00659771
0.00659905
0.00660022
0.00660115
0.0066018
0.00660216
0.00660227
0.00659868
0.0133161
0.0133209
0.0133207
0.0133202
0.0133192
0.0133179
0.0133165
0.0133152
0.013314
0.013313
0.0133121
0.0133114
0.0133108
0.0133103
0.01331
0.0133096
0.0133094
0.0133092
0.0133091
0.013309
0.0133089
0.0133089
0.0133087
0.0133086
0.0133084
0.0133082
0.013308
0.0133078
0.0133075
0.0133072
0.013307
0.0133067
0.0133065
0.0133063
0.0133061
0.013306
0.0133059
0.0133058
0.0133058
0.0133057
0.0133057
0.0133057
0.0133057
0.0133057
0.0133057
0.0133057
0.0133058
0.0133058
0.0133059
0.013306
0.0133061
0.0133061
0.0133062
0.0133062
0.0133062
0.0133061
0.0133061
0.0133059
0.0133056
0.0133051
0.0133045
0.0133037
0.0133028
0.0133018
0.0133009
0.0133
0.0132992
0.0132985
0.0132978
0.0132974
0.013297
0.0132968
0.0132968
0.0132969
0.013297
0.0132973
0.0132976
0.013298
0.0132984
0.0132989
0.0132994
0.0132999
0.0133004
0.013301
0.0133016
0.0133022
0.0133029
0.0133035
0.0133041
0.0133047
0.0133052
0.0133056
0.013306
0.0133062
0.0133064
0.0133065
0.0133065
0.0133065
0.0133065
0.0132713
0.024152
0.0241578
0.0241577
0.0241573
0.0241565
0.0241553
0.024154
0.0241527
0.0241515
0.0241506
0.0241498
0.0241492
0.0241487
0.0241483
0.0241481
0.0241478
0.0241477
0.0241476
0.0241475
0.0241475
0.0241475
0.0241475
0.0241475
0.0241476
0.0241476
0.0241476
0.0241476
0.0241475
0.0241475
0.0241475
0.0241474
0.0241474
0.0241473
0.0241473
0.0241472
0.0241472
0.0241472
0.0241471
0.0241471
0.0241471
0.0241471
0.0241471
0.0241471
0.0241471
0.0241471
0.0241471
0.0241471
0.0241471
0.0241471
0.0241471
0.0241472
0.0241472
0.0241472
0.0241473
0.0241473
0.0241473
0.0241473
0.0241473
0.0241472
0.0241472
0.0241471
0.0241469
0.0241468
0.0241465
0.0241463
0.024146
0.0241458
0.0241455
0.0241453
0.0241452
0.0241451
0.024145
0.0241451
0.0241452
0.0241453
0.0241455
0.0241457
0.0241459
0.0241462
0.0241464
0.0241466
0.0241469
0.0241471
0.0241474
0.0241476
0.024148
0.0241483
0.0241488
0.0241493
0.0241499
0.0241507
0.0241515
0.0241525
0.0241534
0.0241544
0.0241553
0.024156
0.0241571
0.0241588
0.0241449
0.0348822
0.0348912
0.0348911
0.034891
0.034891
0.0348909
0.0348908
0.0348907
0.0348906
0.0348904
0.0348903
0.0348902
0.0348901
0.0348899
0.0348898
0.0348897
0.0348896
0.0348895
0.0348894
0.0348894
0.0348893
0.0348893
0.0348893
0.0348893
0.0348893
0.0348893
0.0348894
0.0348894
0.0348894
0.0348894
0.0348894
0.0348894
0.0348894
0.0348894
0.0348894
0.0348894
0.0348894
0.0348894
0.0348894
0.0348894
0.0348894
0.0348894
0.0348894
0.0348894
0.0348894
0.0348894
0.0348894
0.0348894
0.0348894
0.0348894
0.0348895
0.0348895
0.0348896
0.0348896
0.0348897
0.0348898
0.0348899
0.0348899
0.03489
0.0348901
0.0348902
0.0348904
0.0348905
0.0348907
0.0348909
0.0348911
0.0348914
0.0348917
0.034892
0.0348923
0.0348926
0.0348929
0.0348932
0.0348935
0.0348938
0.0348941
0.0348944
0.0348946
0.0348948
0.034895
0.0348951
0.0348953
0.0348954
0.0348955
0.0348956
0.0348957
0.0348958
0.0348959
0.034896
0.0348961
0.0348963
0.0348964
0.0348966
0.0348967
0.0348969
0.034897
0.0348971
0.0348973
0.0348974
0.0348874
0.054449
0.0545431
0.0545432
0.054543
0.0545429
0.0545428
0.0545427
0.0545424
0.0545422
0.0545419
0.0545416
0.0545413
0.054541
0.0545406
0.0545402
0.0545397
0.0545391
0.0545386
0.054538
0.0545375
0.054537
0.0545365
0.054536
0.0545355
0.054535
0.0545346
0.0545342
0.0545339
0.0545336
0.0545333
0.0545331
0.0545329
0.0545328
0.0545327
0.0545326
0.0545325
0.0545325
0.0545325
0.0545325
0.0545325
0.0545325
0.0545325
0.0545326
0.0545326
0.0545327
0.0545328
0.0545329
0.054533
0.0545332
0.0545334
0.0545336
0.0545339
0.0545342
0.0545346
0.054535
0.0545354
0.0545358
0.0545363
0.0545367
0.0545372
0.0545377
0.0545382
0.0545386
0.0545391
0.0545395
0.0545399
0.0545402
0.0545405
0.0545408
0.0545411
0.0545413
0.0545415
0.0545417
0.0545418
0.0545419
0.0545419
0.0545419
0.0545419
0.0545418
0.0545417
0.0545416
0.0545415
0.0545414
0.0545412
0.0545411
0.0545409
0.0545407
0.0545405
0.0545402
0.05454
0.0545397
0.0545395
0.0545393
0.0545392
0.054539
0.0545389
0.0545385
0.0545384
0.0545383
0.0544239
0.0547999
0.054853
0.0548529
0.0548529
0.0548528
0.0548528
0.0548528
0.0548528
0.0548528
0.0548528
0.0548527
0.0548527
0.0548526
0.0548525
0.0548525
0.0548524
0.0548524
0.0548523
0.0548523
0.0548522
0.0548522
0.0548522
0.0548521
0.0548521
0.054852
0.054852
0.0548519
0.0548519
0.0548518
0.0548518
0.0548517
0.0548517
0.0548517
0.0548517
0.0548516
0.0548516
0.0548516
0.0548516
0.0548516
0.0548516
0.0548516
0.0548516
0.0548516
0.0548517
0.0548517
0.0548517
0.0548517
0.0548517
0.0548518
0.0548518
0.0548519
0.0548519
0.054852
0.0548521
0.0548521
0.0548522
0.0548523
0.0548524
0.0548524
0.0548525
0.0548526
0.0548526
0.0548527
0.0548528
0.0548528
0.0548529
0.0548529
0.054853
0.054853
0.0548531
0.0548531
0.0548531
0.0548531
0.0548531
0.0548531
0.0548531
0.0548531
0.054853
0.054853
0.0548529
0.0548529
0.0548528
0.0548527
0.0548526
0.0548525
0.0548524
0.0548523
0.0548522
0.0548522
0.0548521
0.054852
0.054852
0.0548519
0.0548519
0.0548518
0.0548518
0.0548518
0.0548518
0.0548521
0.0547631
0.0171318
0.0172144
0.0172155
0.0172157
0.0172158
0.0172158
0.0172159
0.0172159
0.017216
0.0172161
0.0172161
0.0172162
0.0172163
0.0172164
0.0172164
0.0172165
0.0172166
0.0172167
0.0172168
0.0172169
0.0172169
0.017217
0.0172171
0.0172171
0.0172172
0.0172172
0.0172173
0.0172173
0.0172174
0.0172174
0.0172174
0.0172174
0.0172174
0.0172174
0.0172174
0.0172175
0.0172175
0.0172175
0.0172175
0.0172175
0.0172175
0.0172175
0.0172175
0.0172175
0.0172174
0.0172174
0.0172174
0.0172174
0.0172174
0.0172174
0.0172173
0.0172173
0.0172173
0.0172172
0.0172172
0.0172171
0.0172171
0.017217
0.017217
0.0172169
0.0172168
0.0172168
0.0172167
0.0172167
0.0172166
0.0172166
0.0172165
0.0172165
0.0172165
0.0172164
0.0172164
0.0172164
0.0172164
0.0172164
0.0172164
0.0172164
0.0172164
0.0172164
0.0172164
0.0172164
0.0172164
0.0172164
0.0172164
0.0172164
0.0172164
0.0172164
0.0172164
0.0172163
0.0172163
0.0172163
0.0172163
0.0172163
0.0172163
0.0172163
0.0172163
0.0172163
0.0172162
0.0172162
0.0172155
0.0171127
0.00105987
0.00105978
0.00105966
0.00105934
0.00105884
0.00105827
0.00105773
0.0010573
0.00105699
0.0010568
0.00105669
0.00105665
0.00105663
0.00105663
0.00105665
0.00105669
0.00105676
0.00105688
0.00105703
0.00105718
0.00105732
0.00105743
0.00105751
0.00105755
0.00105758
0.00105758
0.00105756
0.00105752
0.00105747
0.0010574
0.00105733
0.00105726
0.00105719
0.00105714
0.0010571
0.00105707
0.00105705
0.00105704
0.00105703
0.00105703
0.00105704
0.00105705
0.00105708
0.00105712
0.00105718
0.00105726
0.00105735
0.00105746
0.00105758
0.00105771
0.00105784
0.00105798
0.00105813
0.00105828
0.00105843
0.00105859
0.00105875
0.00105892
0.00105908
0.00105926
0.00105945
0.00105964
0.00105984
0.00106004
0.00106025
0.00106045
0.00106065
0.00106084
0.00106101
0.00106116
0.00106125
0.0010613
0.00106132
0.00106132
0.0010613
0.00106122
0.00106104
0.00106075
0.00106034
0.00105986
0.00105928
0.00105869
0.00105806
0.00105748
0.00105693
0.00105649
0.00105613
0.0010559
0.00105576
0.0010557
0.00105569
0.00105572
0.0010558
0.00105595
0.00105613
0.00105632
0.00105645
0.00105651
0.00105651
0.00105224
0.00343049
0.00342978
0.00342939
0.00342883
0.00342816
0.00342757
0.00342711
0.00342685
0.00342672
0.00342669
0.0034267
0.00342677
0.00342691
0.00342717
0.00342754
0.00342803
0.00342857
0.00342917
0.00342975
0.00343033
0.00343082
0.00343126
0.00343159
0.00343183
0.00343196
0.00343202
0.00343203
0.00343203
0.00343201
0.00343197
0.00343191
0.00343183
0.00343174
0.00343164
0.00343154
0.00343144
0.00343135
0.00343126
0.00343118
0.0034311
0.00343103
0.00343095
0.00343087
0.0034308
0.00343072
0.00343063
0.00343053
0.00343041
0.00343027
0.0034301
0.0034299
0.00342966
0.00342939
0.00342909
0.00342876
0.0034284
0.00342802
0.00342763
0.00342722
0.00342682
0.00342643
0.00342606
0.00342572
0.00342542
0.00342518
0.00342498
0.00342482
0.00342469
0.0034246
0.00342454
0.00342451
0.0034245
0.00342452
0.00342459
0.00342468
0.00342478
0.00342489
0.00342505
0.00342524
0.00342546
0.00342571
0.00342598
0.00342632
0.00342676
0.00342727
0.00342785
0.00342851
0.00342929
0.0034302
0.0034313
0.00343261
0.00343417
0.00343604
0.00343821
0.00344062
0.00344312
0.00344546
0.00344731
0.00344844
0.0034494
0.00395201
0.00396165
0.00396163
0.00396148
0.00396106
0.0039603
0.00395932
0.00395832
0.00395752
0.003957
0.00395676
0.00395668
0.00395669
0.00395679
0.00395716
0.00395789
0.00395901
0.0039604
0.003962
0.00396363
0.00396527
0.00396679
0.0039682
0.00396942
0.00397045
0.00397125
0.00397183
0.00397217
0.00397234
0.00397239
0.0039724
0.00397238
0.00397234
0.00397227
0.00397219
0.00397208
0.00397196
0.00397182
0.00397166
0.00397148
0.00397125
0.00397095
0.00397059
0.00397014
0.00396961
0.00396898
0.00396826
0.00396744
0.00396654
0.00396559
0.0039646
0.00396362
0.00396268
0.00396181
0.00396103
0.00396037
0.00395986
0.00395952
0.00395937
0.00395942
0.00395968
0.00396016
0.00396083
0.00396166
0.00396264
0.00396374
0.003965
0.00396643
0.00396807
0.00396996
0.00397211
0.00397454
0.00397726
0.00398023
0.00398341
0.00398677
0.00399034
0.00399413
0.00399813
0.0040023
0.00400662
0.00401109
0.00401579
0.00402066
0.00402571
0.00403087
0.00403614
0.00404146
0.00404681
0.00405217
0.00405754
0.00406287
0.00406808
0.00407298
0.00407731
0.00408072
0.00408297
0.00408406
0.00408434
0.00406431
0.00653776
0.0065359
0.0065346
0.00653271
0.00653053
0.00652835
0.00652636
0.00652463
0.00652315
0.00652189
0.00652082
0.0065199
0.00651911
0.00651845
0.00651791
0.00651746
0.00651712
0.00651684
0.00651664
0.00651649
0.00651635
0.00651616
0.00651593
0.00651564
0.00651529
0.00651489
0.00651444
0.00651397
0.0065135
0.00651303
0.00651261
0.00651221
0.00651188
0.00651159
0.00651136
0.00651118
0.00651104
0.00651095
0.00651088
0.00651084
0.00651083
0.00651083
0.00651084
0.00651088
0.00651092
0.00651097
0.00651102
0.00651108
0.00651115
0.00651122
0.0065113
0.00651137
0.00651143
0.00651146
0.00651142
0.00651129
0.00651104
0.00651062
0.00651
0.00650918
0.00650814
0.00650686
0.00650535
0.00650363
0.00650175
0.00649974
0.00649765
0.00649554
0.00649345
0.00649142
0.00648948
0.00648767
0.00648601
0.00648454
0.00648327
0.00648221
0.00648136
0.00648071
0.00648026
0.00648002
0.00647997
0.00648013
0.0064805
0.00648108
0.00648187
0.00648286
0.00648403
0.00648533
0.00648671
0.00648817
0.00648963
0.00649105
0.00649232
0.00649337
0.00649412
0.00649457
0.00649478
0.00649483
0.00649484
0.00647839
0.0132435
0.013274
0.0132741
0.0132741
0.0132739
0.0132735
0.0132729
0.0132723
0.0132718
0.0132715
0.0132714
0.0132714
0.0132715
0.0132717
0.0132719
0.0132723
0.0132727
0.0132732
0.0132737
0.0132743
0.0132749
0.0132755
0.0132761
0.0132767
0.0132772
0.0132776
0.013278
0.0132782
0.0132784
0.0132786
0.0132787
0.0132788
0.0132788
0.0132788
0.0132788
0.0132788
0.0132788
0.0132788
0.0132788
0.0132788
0.0132788
0.0132789
0.0132789
0.0132789
0.013279
0.013279
0.0132791
0.0132793
0.0132795
0.0132798
0.0132801
0.0132805
0.0132811
0.0132818
0.0132826
0.0132836
0.0132847
0.0132861
0.0132876
0.0132893
0.0132912
0.0132932
0.0132954
0.0132977
0.0132999
0.0133021
0.0133042
0.013306
0.0133076
0.0133089
0.01331
0.013311
0.0133119
0.0133127
0.0133134
0.0133139
0.0133143
0.0133146
0.0133148
0.0133148
0.0133148
0.0133148
0.0133147
0.0133146
0.0133144
0.0133143
0.0133142
0.0133142
0.0133142
0.0133142
0.0133143
0.0133144
0.0133145
0.0133146
0.0133148
0.0133149
0.0133149
0.013315
0.0133149
0.0133035
0.0241927
0.024209
0.0242086
0.0242082
0.0242077
0.0242071
0.0242065
0.0242059
0.0242054
0.0242049
0.0242045
0.0242043
0.0242042
0.0242041
0.0242042
0.0242043
0.0242045
0.0242048
0.0242052
0.0242055
0.0242059
0.0242064
0.0242068
0.0242072
0.0242075
0.0242078
0.0242081
0.0242083
0.0242085
0.0242087
0.0242088
0.0242089
0.0242089
0.024209
0.024209
0.024209
0.024209
0.024209
0.024209
0.024209
0.024209
0.024209
0.024209
0.024209
0.024209
0.024209
0.0242091
0.0242091
0.0242092
0.0242093
0.0242094
0.0242096
0.0242098
0.0242101
0.0242105
0.0242109
0.0242115
0.0242122
0.024213
0.0242139
0.0242151
0.0242163
0.0242178
0.0242193
0.024221
0.0242228
0.0242247
0.0242267
0.0242288
0.0242308
0.024233
0.0242351
0.0242372
0.0242392
0.0242411
0.024243
0.0242447
0.0242463
0.0242477
0.0242491
0.0242502
0.0242513
0.0242522
0.024253
0.0242537
0.0242545
0.0242551
0.0242557
0.0242563
0.024257
0.0242577
0.0242584
0.0242593
0.0242602
0.024261
0.0242617
0.0242623
0.0242628
0.0242633
0.0242494
0.0355798
0.0355953
0.0355954
0.0355954
0.0355954
0.0355953
0.0355952
0.0355951
0.035595
0.0355949
0.0355948
0.0355946
0.0355944
0.0355942
0.035594
0.0355938
0.0355937
0.0355935
0.0355933
0.0355932
0.0355931
0.035593
0.0355929
0.0355928
0.0355928
0.0355927
0.0355927
0.0355927
0.0355926
0.0355926
0.0355926
0.0355926
0.0355926
0.0355925
0.0355925
0.0355925
0.0355925
0.0355925
0.0355925
0.0355925
0.0355925
0.0355925
0.0355925
0.0355925
0.0355925
0.0355925
0.0355925
0.0355925
0.0355926
0.0355926
0.0355926
0.0355927
0.0355928
0.0355928
0.0355929
0.035593
0.035593
0.0355931
0.0355931
0.0355932
0.0355932
0.0355933
0.0355933
0.0355933
0.0355934
0.0355934
0.0355935
0.0355935
0.0355935
0.0355935
0.0355936
0.0355936
0.0355936
0.0355936
0.0355936
0.0355936
0.0355936
0.0355936
0.0355937
0.0355937
0.0355937
0.0355937
0.0355937
0.0355937
0.0355937
0.0355938
0.0355938
0.0355939
0.035594
0.0355941
0.0355942
0.0355943
0.0355944
0.0355946
0.0355947
0.0355948
0.0355948
0.0355949
0.0355947
0.0355802
0.0566814
0.0567962
0.0567943
0.056794
0.0567941
0.056794
0.0567938
0.0567936
0.0567933
0.0567931
0.0567928
0.0567925
0.0567921
0.0567917
0.0567913
0.0567908
0.0567903
0.0567897
0.0567892
0.0567886
0.056788
0.0567875
0.056787
0.0567865
0.056786
0.0567856
0.0567852
0.0567848
0.0567845
0.0567843
0.0567841
0.0567839
0.0567837
0.0567836
0.0567835
0.0567835
0.0567834
0.0567834
0.0567834
0.0567834
0.0567834
0.0567834
0.0567835
0.0567835
0.0567836
0.0567837
0.0567838
0.0567839
0.0567841
0.0567843
0.0567846
0.0567849
0.0567852
0.0567856
0.056786
0.0567865
0.056787
0.0567875
0.0567881
0.0567887
0.0567893
0.0567899
0.0567905
0.0567911
0.0567917
0.0567923
0.0567928
0.0567934
0.0567939
0.0567943
0.0567947
0.0567951
0.0567954
0.0567957
0.0567959
0.056796
0.0567961
0.0567962
0.0567962
0.0567962
0.0567961
0.056796
0.0567959
0.0567957
0.0567956
0.0567954
0.0567952
0.056795
0.0567948
0.0567946
0.0567944
0.0567942
0.0567941
0.056794
0.0567938
0.0567937
0.0567932
0.0567929
0.0567952
0.0566781
0.0562783
0.0563149
0.0563149
0.0563147
0.0563147
0.0563146
0.0563146
0.0563145
0.0563144
0.0563144
0.0563143
0.0563142
0.0563142
0.0563141
0.056314
0.056314
0.0563139
0.0563138