/*--------------------------------*- C++ -*----------------------------------*\
| =========                 |                                                 |
| \\      /  F ield         | OpenFOAM: The Open Source CFD Toolbox           |
|  \\    /   O peration     | Version:  2406                                  |
|   \\  /    A nd           | Website:  www.openfoam.com                      |
|    \\/     M anipulation  |                                                 |
\*---------------------------------------------------------------------------*/
FoamFile
{
    version     2.0;
    format      ascii;
    arch        "LSB;label=32;scalar=64";
    class       volVectorField;
    location    "0.006";
    object      U;
}
// * * * * * * * * * * * * * * * * * * * * * * * * * * * * * * * * * * * * * //

dimensions      [0 1 -1 0 0 0 0];

internalField   nonuniform List<vector> 
81000
(
(-0.052152 0.357616 0)
(-0.052185 0.357964 0)
(-0.0521864 0.357947 0)
(-0.0521902 0.357892 0)
(-0.052196 0.357791 0)
(-0.0522024 0.357662 0)
(-0.0522083 0.357531 0)
(-0.0522129 0.357427 0)
(-0.0522161 0.35736 0)
(-0.0522181 0.357329 0)
(-0.0522192 0.357318 0)
(-0.0522201 0.357317 0)
(-0.0522207 0.357321 0)
(-0.0522218 0.357332 0)
(-0.0522233 0.357354 0)
(-0.0522248 0.357386 0)
(-0.0522259 0.357424 0)
(-0.0522263 0.357465 0)
(-0.0522262 0.357505 0)
(-0.0522259 0.357542 0)
(-0.0522255 0.357575 0)
(-0.0522251 0.3576 0)
(-0.0522247 0.357616 0)
(-0.0522244 0.357623 0)
(-0.0522242 0.357625 0)
(-0.052224 0.357624 0)
(-0.0522238 0.357622 0)
(-0.0522234 0.357618 0)
(-0.0522229 0.357612 0)
(-0.0522222 0.357605 0)
(-0.0522214 0.357598 0)
(-0.0522207 0.357593 0)
(-0.0522202 0.35759 0)
(-0.0522198 0.35759 0)
(-0.0522194 0.35759 0)
(-0.0522189 0.357591 0)
(-0.0522184 0.357595 0)
(-0.052218 0.357602 0)
(-0.0522176 0.357612 0)
(-0.0522174 0.357625 0)
(-0.052217 0.357639 0)
(-0.0522165 0.357656 0)
(-0.0522158 0.357677 0)
(-0.0522149 0.3577 0)
(-0.0522137 0.357727 0)
(-0.0522124 0.357757 0)
(-0.0522109 0.357789 0)
(-0.0522093 0.357824 0)
(-0.0522077 0.357861 0)
(-0.052206 0.357899 0)
(-0.0522045 0.357937 0)
(-0.0522031 0.357975 0)
(-0.0522024 0.358011 0)
(-0.0522026 0.358045 0)
(-0.0522043 0.358077 0)
(-0.0522068 0.358106 0)
(-0.0522074 0.358133 0)
(-0.052199 0.358158 0)
(-0.0521863 0.358183 0)
(-0.0521703 0.358209 0)
(-0.0521513 0.358238 0)
(-0.0521295 0.35827 0)
(-0.052105 0.358307 0)
(-0.052078 0.35835 0)
(-0.0520493 0.358398 0)
(-0.0520196 0.358454 0)
(-0.0519897 0.358517 0)
(-0.0519601 0.35859 0)
(-0.0519318 0.358671 0)
(-0.0519054 0.358763 0)
(-0.0518817 0.358864 0)
(-0.0518606 0.358975 0)
(-0.0518423 0.359096 0)
(-0.051826 0.359225 0)
(-0.0518117 0.359362 0)
(-0.0517987 0.359505 0)
(-0.051787 0.359649 0)
(-0.0517762 0.359795 0)
(-0.0517659 0.359936 0)
(-0.0517557 0.360074 0)
(-0.0517458 0.360207 0)
(-0.0517369 0.360335 0)
(-0.0517282 0.36046 0)
(-0.0517198 0.360585 0)
(-0.0517204 0.36071 0)
(-0.0517149 0.360838 0)
(-0.0517135 0.36097 0)
(-0.0517114 0.361108 0)
(-0.0517102 0.361253 0)
(-0.0517103 0.361407 0)
(-0.0517122 0.36157 0)
(-0.0517129 0.361746 0)
(-0.0517101 0.361932 0)
(-0.0517046 0.362127 0)
(-0.0516996 0.362322 0)
(-0.0516973 0.362509 0)
(-0.0516972 0.362673 0)
(-0.0516982 0.362802 0)
(-0.0516997 0.362885 0)
(-0.0517015 0.362927 0)
(-0.0807212 1.18299 0)
(-0.080716 1.18284 0)
(-0.0807173 1.18264 0)
(-0.0807211 1.18235 0)
(-0.0807243 1.18201 0)
(-0.080723 1.18167 0)
(-0.0807165 1.18137 0)
(-0.0807073 1.18115 0)
(-0.0806988 1.18102 0)
(-0.080693 1.18095 0)
(-0.0806899 1.18093 0)
(-0.0806878 1.18092 0)
(-0.0806867 1.18093 0)
(-0.080685 1.18096 0)
(-0.0806833 1.18102 0)
(-0.0806818 1.18111 0)
(-0.0806811 1.18124 0)
(-0.0806816 1.18139 0)
(-0.0806838 1.18156 0)
(-0.0806876 1.18171 0)
(-0.0806927 1.18185 0)
(-0.0806989 1.18196 0)
(-0.0807057 1.18205 0)
(-0.0807128 1.18211 0)
(-0.08072 1.18215 0)
(-0.0807268 1.18217 0)
(-0.0807328 1.18218 0)
(-0.08074 1.18218 0)
(-0.0807466 1.18217 0)
(-0.0807536 1.18216 0)
(-0.0807603 1.18213 0)
(-0.0807658 1.18211 0)
(-0.0807699 1.18208 0)
(-0.0807728 1.18207 0)
(-0.0807749 1.18205 0)
(-0.0807763 1.18205 0)
(-0.0807772 1.18204 0)
(-0.0807774 1.18204 0)
(-0.0807761 1.18203 0)
(-0.0807734 1.18203 0)
(-0.0807691 1.18203 0)
(-0.0807629 1.18203 0)
(-0.0807541 1.18203 0)
(-0.0807422 1.18203 0)
(-0.0807269 1.18203 0)
(-0.080708 1.18203 0)
(-0.0806858 1.18202 0)
(-0.0806605 1.18202 0)
(-0.0806326 1.182 0)
(-0.0806029 1.18198 0)
(-0.0805721 1.18195 0)
(-0.0805406 1.18191 0)
(-0.0805088 1.18185 0)
(-0.0804765 1.18178 0)
(-0.0804436 1.1817 0)
(-0.0804094 1.18161 0)
(-0.0803727 1.18151 0)
(-0.0803318 1.1814 0)
(-0.0802842 1.18129 0)
(-0.0802263 1.18118 0)
(-0.0801538 1.18108 0)
(-0.0800635 1.18099 0)
(-0.0799557 1.18091 0)
(-0.079833 1.18083 0)
(-0.0796983 1.18077 0)
(-0.079554 1.1807 0)
(-0.079401 1.18064 0)
(-0.0792393 1.18058 0)
(-0.0790684 1.18052 0)
(-0.078888 1.18046 0)
(-0.0786981 1.18039 0)
(-0.0785003 1.18031 0)
(-0.0782974 1.18019 0)
(-0.0780908 1.18004 0)
(-0.0778804 1.17985 0)
(-0.0776694 1.17962 0)
(-0.0774616 1.17935 0)
(-0.0772612 1.17903 0)
(-0.0770725 1.17867 0)
(-0.0769002 1.17828 0)
(-0.0767482 1.17786 0)
(-0.0766199 1.17744 0)
(-0.0765174 1.17703 0)
(-0.076442 1.17666 0)
(-0.0763922 1.17635 0)
(-0.0763632 1.17612 0)
(-0.0763489 1.17599 0)
(-0.0763426 1.17594 0)
(-0.0763395 1.17593 0)
(-0.0763376 1.17595 0)
(-0.0763355 1.17602 0)
(-0.0763338 1.17621 0)
(-0.0763325 1.17654 0)
(-0.0763311 1.17703 0)
(-0.076329 1.17763 0)
(-0.0763251 1.17827 0)
(-0.0763185 1.17885 0)
(-0.0763102 1.1793 0)
(-0.0763038 1.17957 0)
(-0.076305 1.17973 0)
(0.338457 1.40227 0)
(0.33842 1.40182 0)
(0.338422 1.40115 0)
(0.338423 1.4002 0)
(0.33842 1.39917 0)
(0.338413 1.39822 0)
(0.3384 1.39747 0)
(0.338384 1.39693 0)
(0.33837 1.39659 0)
(0.338361 1.39642 0)
(0.338356 1.39637 0)
(0.338352 1.39637 0)
(0.33835 1.39639 0)
(0.338347 1.39646 0)
(0.338344 1.39659 0)
(0.338341 1.39679 0)
(0.338338 1.39706 0)
(0.338335 1.39737 0)
(0.338332 1.39772 0)
(0.338329 1.39807 0)
(0.338327 1.3984 0)
(0.338326 1.39868 0)
(0.338326 1.39891 0)
(0.338327 1.39907 0)
(0.338327 1.39917 0)
(0.338328 1.39922 0)
(0.338328 1.39924 0)
(0.338329 1.39923 0)
(0.338329 1.39918 0)
(0.338329 1.39909 0)
(0.338328 1.39898 0)
(0.338327 1.39887 0)
(0.338326 1.39877 0)
(0.338325 1.39868 0)
(0.338324 1.3986 0)
(0.338324 1.39852 0)
(0.338327 1.39845 0)
(0.338332 1.39839 0)
(0.338344 1.39834 0)
(0.338363 1.39829 0)
(0.33838 1.39824 0)
(0.338398 1.39818 0)
(0.338416 1.39812 0)
(0.338437 1.39805 0)
(0.338462 1.39796 0)
(0.338492 1.39788 0)
(0.338528 1.39779 0)
(0.338571 1.39769 0)
(0.338622 1.39761 0)
(0.338682 1.39753 0)
(0.338751 1.39746 0)
(0.338832 1.39741 0)
(0.338928 1.39739 0)
(0.339039 1.3974 0)
(0.339171 1.39745 0)
(0.339326 1.39755 0)
(0.339512 1.3977 0)
(0.339736 1.39791 0)
(0.340005 1.39816 0)
(0.340333 1.39844 0)
(0.340727 1.39873 0)
(0.341182 1.39903 0)
(0.341683 1.39936 0)
(0.342209 1.39973 0)
(0.342747 1.40017 0)
(0.343295 1.40068 0)
(0.343856 1.40125 0)
(0.344431 1.40184 0)
(0.34502 1.40242 0)
(0.345619 1.40294 0)
(0.346224 1.40336 0)
(0.346835 1.4036 0)
(0.347451 1.4036 0)
(0.348046 1.40328 0)
(0.348614 1.40264 0)
(0.349174 1.40162 0)
(0.349733 1.4002 0)
(0.350286 1.39836 0)
(0.350819 1.39616 0)
(0.351319 1.39366 0)
(0.351768 1.39098 0)
(0.352156 1.3882 0)
(0.352476 1.38546 0)
(0.352729 1.38283 0)
(0.35292 1.38041 0)
(0.353063 1.37832 0)
(0.353174 1.37666 0)
(0.353267 1.37551 0)
(0.35334 1.37488 0)
(0.353389 1.37464 0)
(0.353421 1.3746 0)
(0.353443 1.37465 0)
(0.353479 1.37484 0)
(0.353525 1.37523 0)
(0.353579 1.37586 0)
(0.353634 1.37673 0)
(0.353676 1.37778 0)
(0.353698 1.37884 0)
(0.353705 1.3797 0)
(0.353745 1.38027 0)
(1.0642 1.97699 0)
(1.06412 1.97678 0)
(1.06412 1.97666 0)
(1.06412 1.9765 0)
(1.06413 1.9763 0)
(1.06414 1.9761 0)
(1.06415 1.97591 0)
(1.06416 1.97577 0)
(1.06417 1.97568 0)
(1.06418 1.97566 0)
(1.06419 1.97565 0)
(1.0642 1.97568 0)
(1.06421 1.97578 0)
(1.06423 1.97599 0)
(1.06426 1.9763 0)
(1.06428 1.97673 0)
(1.06432 1.97724 0)
(1.06435 1.97784 0)
(1.06439 1.97849 0)
(1.06443 1.9792 0)
(1.06447 1.97993 0)
(1.06452 1.98068 0)
(1.06456 1.98138 0)
(1.06459 1.98205 0)
(1.06463 1.98264 0)
(1.06466 1.98315 0)
(1.06468 1.98356 0)
(1.06471 1.9839 0)
(1.06473 1.98415 0)
(1.06474 1.98433 0)
(1.06476 1.98445 0)
(1.06478 1.98452 0)
(1.06479 1.98455 0)
(1.0648 1.98457 0)
(1.06481 1.98457 0)
(1.06483 1.98455 0)
(1.06484 1.98452 0)
(1.06486 1.98448 0)
(1.06488 1.98442 0)
(1.06489 1.98436 0)
(1.06491 1.9843 0)
(1.06492 1.98425 0)
(1.06493 1.9842 0)
(1.06494 1.98416 0)
(1.06495 1.98412 0)
(1.06496 1.9841 0)
(1.06498 1.98409 0)
(1.065 1.98408 0)
(1.06503 1.98409 0)
(1.06506 1.98411 0)
(1.06511 1.98416 0)
(1.06517 1.98423 0)
(1.06525 1.98436 0)
(1.06534 1.98455 0)
(1.06545 1.98483 0)
(1.06558 1.98522 0)
(1.06574 1.98576 0)
(1.06592 1.98646 0)
(1.06613 1.98737 0)
(1.06638 1.98849 0)
(1.06665 1.98985 0)
(1.06696 1.99144 0)
(1.06731 1.99328 0)
(1.06769 1.99535 0)
(1.0681 1.99764 0)
(1.06855 2.00011 0)
(1.06904 2.00273 0)
(1.06956 2.00547 0)
(1.07012 2.00828 0)
(1.07071 2.0111 0)
(1.07134 2.01391 0)
(1.07199 2.01663 0)
(1.07267 2.01924 0)
(1.07337 2.02168 0)
(1.07408 2.02394 0)
(1.07479 2.02599 0)
(1.07551 2.02782 0)
(1.07623 2.02942 0)
(1.07694 2.0308 0)
(1.07762 2.03197 0)
(1.07828 2.03294 0)
(1.0789 2.03375 0)
(1.07947 2.03443 0)
(1.08001 2.03502 0)
(1.08049 2.03554 0)
(1.08093 2.03603 0)
(1.0813 2.03651 0)
(1.08161 2.037 0)
(1.08186 2.03749 0)
(1.08207 2.03796 0)
(1.08225 2.03841 0)
(1.0824 2.03884 0)
(1.08257 2.03926 0)
(1.08274 2.03971 0)
(1.08284 2.04025 0)
(1.08283 2.04089 0)
(1.08283 2.04161 0)
(1.08283 2.04231 0)
(1.08283 2.04282 0)
(1.08289 2.04316 0)
(2.55519 3.83641 0)
(2.55498 3.83564 0)
(2.55497 3.83467 0)
(2.55495 3.83342 0)
(2.55492 3.83215 0)
(2.55491 3.83103 0)
(2.55483 3.83009 0)
(2.55486 3.82931 0)
(2.55484 3.82864 0)
(2.55484 3.82802 0)
(2.55483 3.82746 0)
(2.55483 3.82693 0)
(2.55483 3.82645 0)
(2.55483 3.82601 0)
(2.55484 3.82561 0)
(2.55485 3.82526 0)
(2.55487 3.82494 0)
(2.55489 3.82466 0)
(2.55491 3.82439 0)
(2.55494 3.82414 0)
(2.55499 3.82389 0)
(2.55502 3.82364 0)
(2.55504 3.82338 0)
(2.55505 3.82311 0)
(2.55506 3.82285 0)
(2.55507 3.82258 0)
(2.55508 3.82232 0)
(2.55508 3.82206 0)
(2.55508 3.82182 0)
(2.55508 3.82159 0)
(2.55509 3.82138 0)
(2.55509 3.82119 0)
(2.55509 3.82103 0)
(2.55509 3.82089 0)
(2.55509 3.82078 0)
(2.5551 3.82069 0)
(2.5551 3.82062 0)
(2.5551 3.82057 0)
(2.5551 3.82053 0)
(2.5551 3.8205 0)
(2.55511 3.82048 0)
(2.55511 3.82047 0)
(2.55511 3.82046 0)
(2.55511 3.82045 0)
(2.55511 3.82044 0)
(2.55511 3.82044 0)
(2.55511 3.82043 0)
(2.55511 3.82042 0)
(2.55511 3.82041 0)
(2.55512 3.82039 0)
(2.55512 3.82036 0)
(2.55512 3.8203 0)
(2.55512 3.82021 0)
(2.55513 3.82007 0)
(2.55514 3.81987 0)
(2.55515 3.81961 0)
(2.55516 3.81925 0)
(2.55518 3.8188 0)
(2.55521 3.81825 0)
(2.55525 3.81759 0)
(2.5553 3.81683 0)
(2.55537 3.81597 0)
(2.55547 3.81505 0)
(2.55561 3.81409 0)
(2.5558 3.81312 0)
(2.55603 3.81216 0)
(2.55632 3.81121 0)
(2.55667 3.81029 0)
(2.55708 3.80942 0)
(2.55755 3.80861 0)
(2.55809 3.80789 0)
(2.55869 3.80726 0)
(2.55935 3.80672 0)
(2.56004 3.80628 0)
(2.56077 3.80594 0)
(2.56153 3.80569 0)
(2.56229 3.80552 0)
(2.56305 3.80542 0)
(2.5638 3.80539 0)
(2.56451 3.80543 0)
(2.56519 3.80552 0)
(2.56581 3.80567 0)
(2.56638 3.80587 0)
(2.56688 3.80613 0)
(2.56731 3.80643 0)
(2.56767 3.80677 0)
(2.56795 3.80714 0)
(2.56817 3.80752 0)
(2.56834 3.80789 0)
(2.56845 3.80824 0)
(2.56853 3.80855 0)
(2.56858 3.80881 0)
(2.56861 3.80901 0)
(2.56863 3.80916 0)
(2.56864 3.80925 0)
(2.56865 3.80929 0)
(2.56865 3.80931 0)
(2.56865 3.80932 0)
(2.56865 3.80932 0)
(2.56851 3.80495 0)
(6.23674 5.5591 0)
(6.23486 5.55731 0)
(6.23476 5.55688 0)
(6.23462 5.55618 0)
(6.23444 5.55533 0)
(6.23421 5.55449 0)
(6.2339 5.55375 0)
(6.23359 5.55314 0)
(6.23336 5.55261 0)
(6.23317 5.55217 0)
(6.23298 5.55179 0)
(6.23281 5.55146 0)
(6.23263 5.55117 0)
(6.23245 5.55091 0)
(6.23228 5.55067 0)
(6.2321 5.55045 0)
(6.23196 5.55023 0)
(6.23185 5.55001 0)
(6.23177 5.54978 0)
(6.23172 5.54954 0)
(6.23169 5.5493 0)
(6.23167 5.54905 0)
(6.23166 5.5488 0)
(6.23166 5.54855 0)
(6.23167 5.5483 0)
(6.23167 5.54805 0)
(6.23168 5.54781 0)
(6.23168 5.54759 0)
(6.23169 5.54739 0)
(6.2317 5.5472 0)
(6.23171 5.54704 0)
(6.23171 5.54691 0)
(6.23172 5.5468 0)
(6.23173 5.54671 0)
(6.23173 5.54664 0)
(6.23173 5.54659 0)
(6.23173 5.54655 0)
(6.23173 5.54652 0)
(6.23173 5.5465 0)
(6.23173 5.54648 0)
(6.23173 5.54648 0)
(6.23173 5.54647 0)
(6.23173 5.54646 0)
(6.23173 5.54646 0)
(6.23172 5.54646 0)
(6.23172 5.54646 0)
(6.23171 5.54646 0)
(6.2317 5.54645 0)
(6.23169 5.54645 0)
(6.23168 5.54643 0)
(6.23166 5.5464 0)
(6.23163 5.54636 0)
(6.23161 5.54628 0)
(6.23157 5.54616 0)
(6.23154 5.54598 0)
(6.23149 5.54574 0)
(6.23145 5.5454 0)
(6.23139 5.54496 0)
(6.23134 5.54439 0)
(6.23129 5.54368 0)
(6.23125 5.54282 0)
(6.23121 5.5418 0)
(6.2312 5.54062 0)
(6.23121 5.53927 0)
(6.23124 5.53778 0)
(6.23131 5.53617 0)
(6.23141 5.53445 0)
(6.23156 5.53266 0)
(6.23177 5.53084 0)
(6.23203 5.52901 0)
(6.23234 5.52722 0)
(6.2327 5.52549 0)
(6.23311 5.52386 0)
(6.23356 5.52233 0)
(6.23402 5.52093 0)
(6.23451 5.51965 0)
(6.23499 5.51851 0)
(6.23547 5.5175 0)
(6.23594 5.51661 0)
(6.2364 5.51584 0)
(6.23684 5.51518 0)
(6.23726 5.51463 0)
(6.23766 5.51418 0)
(6.23805 5.51381 0)
(6.2384 5.5135 0)
(6.23878 5.5133 0)
(6.23913 5.5131 0)
(6.23951 5.51299 0)
(6.23989 5.51289 0)
(6.24029 5.51284 0)
(6.2407 5.51286 0)
(6.24111 5.51292 0)
(6.24153 5.513 0)
(6.24193 5.51308 0)
(6.24233 5.51315 0)
(6.24271 5.51319 0)
(6.24308 5.51316 0)
(6.24344 5.51333 0)
(6.2439 5.51351 0)
(6.25025 5.50475 0)
(11.9237 1.06127 0)
(11.9217 1.06392 0)
(11.9216 1.06407 0)
(11.9216 1.06416 0)
(11.9216 1.06421 0)
(11.9215 1.06424 0)
(11.9215 1.06428 0)
(11.9215 1.06432 0)
(11.9214 1.06436 0)
(11.9214 1.06441 0)
(11.9213 1.06448 0)
(11.9213 1.06455 0)
(11.9212 1.06463 0)
(11.9212 1.06472 0)
(11.9211 1.06481 0)
(11.9211 1.06491 0)
(11.921 1.065 0)
(11.921 1.0651 0)
(11.9209 1.06519 0)
(11.9209 1.06528 0)
(11.9209 1.06536 0)
(11.9209 1.06544 0)
(11.9208 1.06551 0)
(11.9208 1.06557 0)
(11.9208 1.06563 0)
(11.9208 1.06567 0)
(11.9208 1.06571 0)
(11.9208 1.06573 0)
(11.9208 1.06575 0)
(11.9208 1.06577 0)
(11.9208 1.06577 0)
(11.9209 1.06578 0)
(11.9209 1.06578 0)
(11.9209 1.06578 0)
(11.9209 1.06578 0)
(11.9209 1.06577 0)
(11.9209 1.06577 0)
(11.9209 1.06576 0)
(11.9208 1.06575 0)
(11.9208 1.06574 0)
(11.9208 1.06573 0)
(11.9208 1.06571 0)
(11.9208 1.06569 0)
(11.9208 1.06567 0)
(11.9208 1.06564 0)
(11.9208 1.06562 0)
(11.9209 1.06558 0)
(11.9209 1.06554 0)
(11.9209 1.06549 0)
(11.9209 1.06544 0)
(11.9209 1.06537 0)
(11.9209 1.0653 0)
(11.9209 1.06521 0)
(11.921 1.06511 0)
(11.921 1.065 0)
(11.921 1.06487 0)
(11.921 1.06472 0)
(11.921 1.06455 0)
(11.9211 1.06437 0)
(11.9211 1.06416 0)
(11.9211 1.06392 0)
(11.9211 1.06367 0)
(11.9212 1.06339 0)
(11.9212 1.06309 0)
(11.9213 1.06276 0)
(11.9213 1.06242 0)
(11.9213 1.06207 0)
(11.9214 1.0617 0)
(11.9215 1.06132 0)
(11.9215 1.06094 0)
(11.9216 1.06056 0)
(11.9216 1.06019 0)
(11.9217 1.05983 0)
(11.9217 1.05949 0)
(11.9218 1.05917 0)
(11.9218 1.05886 0)
(11.9219 1.05857 0)
(11.9219 1.0583 0)
(11.922 1.05806 0)
(11.922 1.05783 0)
(11.922 1.05762 0)
(11.922 1.05742 0)
(11.9221 1.05725 0)
(11.9221 1.05709 0)
(11.9221 1.05694 0)
(11.9221 1.05681 0)
(11.9221 1.05669 0)
(11.9222 1.05658 0)
(11.9222 1.05649 0)
(11.9223 1.05641 0)
(11.9223 1.05635 0)
(11.9224 1.05629 0)
(11.9224 1.05625 0)
(11.9225 1.05621 0)
(11.9225 1.05617 0)
(11.9226 1.05613 0)
(11.9226 1.05604 0)
(11.9227 1.05594 0)
(11.9229 1.05575 0)
(11.9244 1.04944 0)
(14.5724 -11.4855 0)
(14.5611 -11.4773 0)
(14.5612 -11.4772 0)
(14.5612 -11.477 0)
(14.5612 -11.477 0)
(14.5613 -11.4768 0)
(14.5613 -11.4767 0)
(14.5614 -11.4765 0)
(14.5615 -11.4763 0)
(14.5616 -11.476 0)
(14.5617 -11.4758 0)
(14.5617 -11.4755 0)
(14.5618 -11.4753 0)
(14.5619 -11.4751 0)
(14.5619 -11.4749 0)
(14.5619 -11.4747 0)
(14.5618 -11.4746 0)
(14.5618 -11.4744 0)
(14.5618 -11.4742 0)
(14.5618 -11.474 0)
(14.5618 -11.4739 0)
(14.5618 -11.4737 0)
(14.5618 -11.4735 0)
(14.5618 -11.4733 0)
(14.5619 -11.4732 0)
(14.5619 -11.473 0)
(14.5619 -11.4729 0)
(14.5619 -11.4727 0)
(14.5619 -11.4726 0)
(14.5619 -11.4725 0)
(14.562 -11.4725 0)
(14.562 -11.4724 0)
(14.562 -11.4724 0)
(14.562 -11.4723 0)
(14.562 -11.4723 0)
(14.562 -11.4723 0)
(14.562 -11.4723 0)
(14.562 -11.4723 0)
(14.5621 -11.4723 0)
(14.5621 -11.4723 0)
(14.5621 -11.4723 0)
(14.5621 -11.4723 0)
(14.5621 -11.4723 0)
(14.5621 -11.4724 0)
(14.5621 -11.4724 0)
(14.5621 -11.4724 0)
(14.5621 -11.4725 0)
(14.5622 -11.4725 0)
(14.5622 -11.4726 0)
(14.5622 -11.4726 0)
(14.5623 -11.4727 0)
(14.5623 -11.4728 0)
(14.5624 -11.4729 0)
(14.5624 -11.473 0)
(14.5625 -11.4731 0)
(14.5625 -11.4732 0)
(14.5626 -11.4733 0)
(14.5627 -11.4735 0)
(14.5627 -11.4736 0)
(14.5628 -11.4737 0)
(14.5629 -11.4738 0)
(14.5629 -11.4738 0)
(14.5629 -11.4739 0)
(14.563 -11.4739 0)
(14.563 -11.474 0)
(14.563 -11.474 0)
(14.563 -11.474 0)
(14.563 -11.4739 0)
(14.563 -11.4739 0)
(14.563 -11.4739 0)
(14.5629 -11.4738 0)
(14.5629 -11.4737 0)
(14.5629 -11.4737 0)
(14.5628 -11.4736 0)
(14.5627 -11.4735 0)
(14.5626 -11.4734 0)
(14.5625 -11.4732 0)
(14.5624 -11.4731 0)
(14.5623 -11.473 0)
(14.5622 -11.4729 0)
(14.562 -11.4728 0)
(14.5619 -11.4727 0)
(14.5618 -11.4726 0)
(14.5617 -11.4726 0)
(14.5615 -11.4725 0)
(14.5614 -11.4725 0)
(14.5613 -11.4724 0)
(14.5612 -11.4724 0)
(14.5611 -11.4723 0)
(14.5609 -11.4723 0)
(14.5608 -11.4722 0)
(14.5607 -11.4722 0)
(14.5605 -11.4722 0)
(14.5604 -11.4723 0)
(14.5602 -11.4724 0)
(14.56 -11.4726 0)
(14.5599 -11.4728 0)
(14.5597 -11.4731 0)
(14.5595 -11.4735 0)
(14.5671 -11.4831 0)
(9.70192 -16.1801 0)
(9.73233 -16.1937 0)
(9.73266 -16.1933 0)
(9.73266 -16.1933 0)
(9.73267 -16.1933 0)
(9.73268 -16.1933 0)
(9.7327 -16.1933 0)
(9.73271 -16.1933 0)
(9.73272 -16.1933 0)
(9.73273 -16.1932 0)
(9.73275 -16.1932 0)
(9.73276 -16.1932 0)
(9.73277 -16.1932 0)
(9.73278 -16.1931 0)
(9.73279 -16.1931 0)
(9.7328 -16.1931 0)
(9.73281 -16.1931 0)
(9.73281 -16.193 0)
(9.73282 -16.193 0)
(9.73283 -16.193 0)
(9.73284 -16.193 0)
(9.73285 -16.193 0)
(9.73286 -16.1929 0)
(9.73286 -16.1929 0)
(9.73287 -16.1929 0)
(9.73287 -16.1929 0)
(9.73288 -16.1929 0)
(9.73288 -16.1929 0)
(9.73289 -16.1928 0)
(9.73289 -16.1928 0)
(9.73289 -16.1928 0)
(9.73289 -16.1928 0)
(9.7329 -16.1928 0)
(9.7329 -16.1928 0)
(9.7329 -16.1928 0)
(9.73291 -16.1928 0)
(9.73291 -16.1928 0)
(9.73291 -16.1927 0)
(9.73292 -16.1927 0)
(9.73292 -16.1927 0)
(9.73292 -16.1927 0)
(9.73293 -16.1927 0)
(9.73293 -16.1928 0)
(9.73293 -16.1928 0)
(9.73294 -16.1928 0)
(9.73295 -16.1928 0)
(9.73296 -16.1928 0)
(9.73297 -16.1928 0)
(9.73298 -16.1928 0)
(9.73299 -16.1928 0)
(9.73301 -16.1928 0)
(9.73303 -16.1928 0)
(9.73305 -16.1928 0)
(9.73307 -16.1928 0)
(9.7331 -16.1929 0)
(9.73312 -16.1929 0)
(9.73315 -16.1929 0)
(9.73318 -16.1929 0)
(9.73321 -16.1929 0)
(9.73324 -16.1929 0)
(9.73327 -16.1929 0)
(9.73329 -16.1929 0)
(9.73332 -16.1929 0)
(9.73334 -16.1929 0)
(9.73336 -16.1929 0)
(9.73337 -16.1929 0)
(9.73338 -16.1929 0)
(9.73339 -16.1929 0)
(9.73339 -16.193 0)
(9.73339 -16.193 0)
(9.73339 -16.193 0)
(9.73338 -16.193 0)
(9.73336 -16.193 0)
(9.73334 -16.193 0)
(9.73332 -16.193 0)
(9.73329 -16.193 0)
(9.73325 -16.193 0)
(9.73321 -16.193 0)
(9.73317 -16.193 0)
(9.73312 -16.193 0)
(9.73307 -16.1929 0)
(9.73302 -16.1929 0)
(9.73297 -16.1929 0)
(9.73292 -16.1929 0)
(9.73287 -16.1929 0)
(9.73282 -16.1929 0)
(9.73277 -16.1929 0)
(9.73273 -16.1929 0)
(9.73269 -16.1928 0)
(9.73265 -16.1928 0)
(9.73262 -16.1928 0)
(9.73259 -16.1928 0)
(9.73257 -16.1928 0)
(9.73254 -16.1928 0)
(9.73253 -16.1928 0)
(9.73251 -16.1928 0)
(9.7325 -16.1928 0)
(9.73242 -16.1928 0)
(9.73189 -16.1934 0)
(9.68692 -16.1732 0)
(5.05572 -3.00413 0)
(5.09377 -3.00708 0)
(5.09387 -3.00762 0)
(5.09394 -3.00764 0)
(5.09397 -3.00766 0)
(5.09397 -3.00768 0)
(5.09398 -3.00771 0)
(5.09399 -3.00773 0)
(5.094 -3.00775 0)
(5.09401 -3.00777 0)
(5.09403 -3.00779 0)
(5.09405 -3.00782 0)
(5.09406 -3.00784 0)
(5.09408 -3.00786 0)
(5.0941 -3.00789 0)
(5.09412 -3.00791 0)
(5.09414 -3.00794 0)
(5.09415 -3.00796 0)
(5.09417 -3.00799 0)
(5.09419 -3.00801 0)
(5.09421 -3.00804 0)
(5.09422 -3.00806 0)
(5.09424 -3.00808 0)
(5.09425 -3.0081 0)
(5.09426 -3.00812 0)
(5.09427 -3.00813 0)
(5.09428 -3.00815 0)
(5.09429 -3.00816 0)
(5.0943 -3.00817 0)
(5.0943 -3.00817 0)
(5.09431 -3.00818 0)
(5.09431 -3.00819 0)
(5.09432 -3.00819 0)
(5.09432 -3.00819 0)
(5.09432 -3.0082 0)
(5.09432 -3.0082 0)
(5.09432 -3.0082 0)
(5.09432 -3.0082 0)
(5.09432 -3.0082 0)
(5.09432 -3.0082 0)
(5.09432 -3.0082 0)
(5.09432 -3.0082 0)
(5.09432 -3.0082 0)
(5.09432 -3.0082 0)
(5.09432 -3.00819 0)
(5.09432 -3.00819 0)
(5.09432 -3.00819 0)
(5.09432 -3.00818 0)
(5.09431 -3.00817 0)
(5.09431 -3.00816 0)
(5.0943 -3.00815 0)
(5.0943 -3.00814 0)
(5.09429 -3.00813 0)
(5.09429 -3.00811 0)
(5.09428 -3.00809 0)
(5.09427 -3.00807 0)
(5.09427 -3.00804 0)
(5.09426 -3.00802 0)
(5.09425 -3.00799 0)
(5.09425 -3.00796 0)
(5.09424 -3.00793 0)
(5.09424 -3.0079 0)
(5.09423 -3.00788 0)
(5.09423 -3.00785 0)
(5.09422 -3.00782 0)
(5.09422 -3.0078 0)
(5.09422 -3.00778 0)
(5.09422 -3.00775 0)
(5.09421 -3.00774 0)
(5.09422 -3.00772 0)
(5.09422 -3.0077 0)
(5.09422 -3.00769 0)
(5.09422 -3.00767 0)
(5.09423 -3.00766 0)
(5.09423 -3.00765 0)
(5.09424 -3.00764 0)
(5.09424 -3.00763 0)
(5.09425 -3.00763 0)
(5.09426 -3.00762 0)
(5.09426 -3.00761 0)
(5.09427 -3.00761 0)
(5.09427 -3.0076 0)
(5.09428 -3.00759 0)
(5.09428 -3.00758 0)
(5.09428 -3.00758 0)
(5.09428 -3.00757 0)
(5.09428 -3.00756 0)
(5.09428 -3.00755 0)
(5.09428 -3.00754 0)
(5.09428 -3.00753 0)
(5.09428 -3.00752 0)
(5.09428 -3.00752 0)
(5.09428 -3.00751 0)
(5.09428 -3.0075 0)
(5.09427 -3.0075 0)
(5.09427 -3.00749 0)
(5.09427 -3.00749 0)
(5.09428 -3.00748 0)
(5.09411 -3.00726 0)
(5.0491 -3.0012 0)
(-0.0514872 0.359223 0)
(-0.051478 0.359092 0)
(-0.0514617 0.358894 0)
(-0.0514395 0.358645 0)
(-0.0514248 0.358395 0)
(-0.0514232 0.358178 0)
(-0.0514288 0.358008 0)
(-0.0514347 0.357887 0)
(-0.0514378 0.357808 0)
(-0.0514386 0.357761 0)
(-0.0514386 0.357736 0)
(-0.0514384 0.357725 0)
(-0.0514383 0.357722 0)
(-0.051438 0.357722 0)
(-0.0514378 0.357725 0)
(-0.0514377 0.357735 0)
(-0.051438 0.357755 0)
(-0.0514392 0.357787 0)
(-0.0514411 0.357826 0)
(-0.0514436 0.357866 0)
(-0.051446 0.357899 0)
(-0.0514482 0.357923 0)
(-0.0514501 0.357936 0)
(-0.0514515 0.357941 0)
(-0.0514531 0.357941 0)
(-0.0514542 0.357939 0)
(-0.0514561 0.357933 0)
(-0.0514581 0.357924 0)
(-0.0514598 0.357911 0)
(-0.0514607 0.357895 0)
(-0.0514609 0.357878 0)
(-0.0514608 0.357863 0)
(-0.0514606 0.35785 0)
(-0.0514606 0.357842 0)
(-0.0514607 0.357837 0)
(-0.0514608 0.357835 0)
(-0.0514608 0.357835 0)
(-0.0514608 0.357836 0)
(-0.0514605 0.357838 0)
(-0.0514601 0.357843 0)
(-0.0514594 0.357851 0)
(-0.0514587 0.357863 0)
(-0.0514578 0.357879 0)
(-0.0514565 0.357899 0)
(-0.0514547 0.357923 0)
(-0.0514526 0.357952 0)
(-0.0514502 0.357984 0)
(-0.0514477 0.35802 0)
(-0.0514452 0.358059 0)
(-0.0514425 0.3581 0)
(-0.0514399 0.358143 0)
(-0.0514373 0.358187 0)
(-0.0514352 0.358231 0)
(-0.051434 0.358274 0)
(-0.0514352 0.358316 0)
(-0.0514382 0.358358 0)
(-0.0514398 0.358399 0)
(-0.0514299 0.358439 0)
(-0.0514174 0.358482 0)
(-0.0514019 0.358528 0)
(-0.0513836 0.358577 0)
(-0.051363 0.358629 0)
(-0.0513397 0.358686 0)
(-0.0513145 0.358744 0)
(-0.0512872 0.358807 0)
(-0.0512592 0.358871 0)
(-0.0512305 0.358939 0)
(-0.0512031 0.359007 0)
(-0.0511771 0.359079 0)
(-0.0511547 0.359149 0)
(-0.0511353 0.359221 0)
(-0.0511198 0.359288 0)
(-0.0511059 0.359355 0)
(-0.0510928 0.359414 0)
(-0.0510785 0.359468 0)
(-0.0510647 0.359512 0)
(-0.051052 0.359549 0)
(-0.0510433 0.359571 0)
(-0.051039 0.359581 0)
(-0.0510391 0.359583 0)
(-0.0510412 0.359582 0)
(-0.0510465 0.359578 0)
(-0.0510551 0.359573 0)
(-0.0510676 0.359571 0)
(-0.0510823 0.359576 0)
(-0.0510957 0.359594 0)
(-0.0511074 0.359626 0)
(-0.0511177 0.359675 0)
(-0.0511281 0.35974 0)
(-0.051141 0.359818 0)
(-0.0511585 0.359912 0)
(-0.0511745 0.360023 0)
(-0.0511789 0.360158 0)
(-0.0511731 0.36032 0)
(-0.0511685 0.360509 0)
(-0.0511718 0.360714 0)
(-0.0511767 0.360913 0)
(-0.0511751 0.361069 0)
(-0.0511665 0.361159 0)
(-0.051161 0.361217 0)
(-0.0799786 1.18102 0)
(-0.0799621 1.18073 0)
(-0.0799619 1.18057 0)
(-0.0799612 1.18031 0)
(-0.0799571 1.18 0)
(-0.0799476 1.1797 0)
(-0.0799339 1.17946 0)
(-0.0799195 1.1793 0)
(-0.0799075 1.17922 0)
(-0.0798996 1.17919 0)
(-0.0798952 1.17919 0)
(-0.0798919 1.17919 0)
(-0.0798864 1.17921 0)
(-0.0798787 1.17927 0)
(-0.0798694 1.17936 0)
(-0.0798597 1.17948 0)
(-0.079851 1.17964 0)
(-0.0798444 1.17982 0)
(-0.0798403 1.18001 0)
(-0.0798387 1.18019 0)
(-0.0798391 1.18035 0)
(-0.0798409 1.18048 0)
(-0.0798436 1.18058 0)
(-0.0798468 1.18064 0)
(-0.0798503 1.18069 0)
(-0.0798535 1.18071 0)
(-0.079856 1.18072 0)
(-0.0798597 1.18072 0)
(-0.079863 1.18071 0)
(-0.0798678 1.1807 0)
(-0.079873 1.18068 0)
(-0.079878 1.18065 0)
(-0.0798819 1.18062 0)
(-0.0798849 1.18059 0)
(-0.0798875 1.18057 0)
(-0.0798898 1.18055 0)
(-0.0798919 1.18053 0)
(-0.0798936 1.18052 0)
(-0.0798945 1.18051 0)
(-0.0798917 1.18049 0)
(-0.0798872 1.18048 0)
(-0.0798806 1.18047 0)
(-0.0798713 1.18046 0)
(-0.0798587 1.18045 0)
(-0.079843 1.18043 0)
(-0.0798242 1.18042 0)
(-0.0798026 1.1804 0)
(-0.0797786 1.18038 0)
(-0.0797527 1.18036 0)
(-0.0797256 1.18032 0)
(-0.079698 1.18027 0)
(-0.0796699 1.18021 0)
(-0.0796414 1.18014 0)
(-0.0796125 1.18006 0)
(-0.0795826 1.17997 0)
(-0.0795507 1.17986 0)
(-0.0795152 1.17975 0)
(-0.0794742 1.17963 0)
(-0.0794253 1.1795 0)
(-0.0793658 1.17938 0)
(-0.0792929 1.17927 0)
(-0.0792037 1.17916 0)
(-0.079096 1.17907 0)
(-0.0789704 1.17899 0)
(-0.0788316 1.17892 0)
(-0.0786828 1.17886 0)
(-0.0785243 1.17879 0)
(-0.0783549 1.17873 0)
(-0.0781741 1.17867 0)
(-0.0779817 1.17863 0)
(-0.0777786 1.17859 0)
(-0.0775655 1.17856 0)
(-0.0773453 1.17853 0)
(-0.0771226 1.17847 0)
(-0.0768985 1.17838 0)
(-0.0766725 1.17827 0)
(-0.0764486 1.17813 0)
(-0.0762333 1.17795 0)
(-0.0760343 1.17774 0)
(-0.075859 1.17751 0)
(-0.0757143 1.17729 0)
(-0.0756031 1.17709 0)
(-0.0755261 1.17695 0)
(-0.075479 1.17686 0)
(-0.0754517 1.17683 0)
(-0.0754285 1.17684 0)
(-0.0754145 1.17687 0)
(-0.0754014 1.17695 0)
(-0.0753891 1.17707 0)
(-0.0753802 1.17725 0)
(-0.0753758 1.17751 0)
(-0.0753739 1.17786 0)
(-0.0753729 1.17832 0)
(-0.075374 1.1789 0)
(-0.075378 1.1796 0)
(-0.0753821 1.18037 0)
(-0.0753813 1.18114 0)
(-0.075375 1.18183 0)
(-0.0753687 1.18231 0)
(-0.0753781 1.18272 0)
(0.338077 1.35973 0)
(0.337988 1.36051 0)
(0.337988 1.36043 0)
(0.337988 1.36017 0)
(0.337987 1.3597 0)
(0.337983 1.3591 0)
(0.337974 1.35851 0)
(0.337961 1.35805 0)
(0.337948 1.35777 0)
(0.337939 1.35766 0)
(0.337934 1.35763 0)
(0.337931 1.35765 0)
(0.337928 1.35769 0)
(0.337924 1.3578 0)
(0.337919 1.358 0)
(0.337915 1.35829 0)
(0.33791 1.35867 0)
(0.337905 1.35912 0)
(0.337901 1.3596 0)
(0.337896 1.36008 0)
(0.337893 1.36053 0)
(0.33789 1.36095 0)
(0.33789 1.36129 0)
(0.337889 1.36158 0)
(0.337889 1.36178 0)
(0.337889 1.36191 0)
(0.337889 1.36198 0)
(0.337889 1.36201 0)
(0.337889 1.36202 0)
(0.337889 1.36202 0)
(0.337888 1.36199 0)
(0.337887 1.36194 0)
(0.337885 1.36188 0)
(0.337884 1.3618 0)
(0.337883 1.36173 0)
(0.337879 1.36166 0)
(0.337882 1.3616 0)
(0.337879 1.36155 0)
(0.337896 1.36151 0)
(0.337918 1.36145 0)
(0.337934 1.36139 0)
(0.337953 1.36132 0)
(0.337974 1.36124 0)
(0.337995 1.36114 0)
(0.33802 1.36102 0)
(0.33805 1.36089 0)
(0.338086 1.36074 0)
(0.338129 1.36057 0)
(0.33818 1.36039 0)
(0.338238 1.36021 0)
(0.338306 1.36003 0)
(0.338384 1.35985 0)
(0.338477 1.35968 0)
(0.338588 1.35954 0)
(0.338726 1.35942 0)
(0.338894 1.35934 0)
(0.339095 1.35931 0)
(0.339332 1.35933 0)
(0.339612 1.35939 0)
(0.33994 1.3595 0)
(0.34032 1.35964 0)
(0.340751 1.35981 0)
(0.341229 1.36002 0)
(0.341746 1.36027 0)
(0.342293 1.36055 0)
(0.342858 1.36089 0)
(0.34344 1.36127 0)
(0.344032 1.36168 0)
(0.344639 1.36211 0)
(0.345253 1.36253 0)
(0.345877 1.36291 0)
(0.346501 1.36323 0)
(0.347132 1.36346 0)
(0.347759 1.36357 0)
(0.348386 1.36352 0)
(0.348995 1.36329 0)
(0.349588 1.36288 0)
(0.350155 1.36229 0)
(0.350706 1.36153 0)
(0.351219 1.36062 0)
(0.351684 1.35962 0)
(0.352078 1.35861 0)
(0.352404 1.35768 0)
(0.352655 1.35695 0)
(0.352835 1.35646 0)
(0.352951 1.35623 0)
(0.353027 1.35617 0)
(0.353096 1.35623 0)
(0.353165 1.35642 0)
(0.35324 1.35679 0)
(0.353319 1.35735 0)
(0.3534 1.3581 0)
(0.353482 1.35898 0)
(0.353565 1.36002 0)
(0.353645 1.3612 0)
(0.353701 1.36257 0)
(0.353722 1.36407 0)
(0.353726 1.36558 0)
(0.353727 1.36678 0)
(0.353829 1.36776 0)
(1.06399 1.96676 0)
(1.06372 1.96774 0)
(1.06372 1.96769 0)
(1.06373 1.96753 0)
(1.06373 1.96724 0)
(1.06375 1.96683 0)
(1.06376 1.96639 0)
(1.06378 1.96594 0)
(1.06379 1.96556 0)
(1.06381 1.96524 0)
(1.06383 1.96501 0)
(1.06384 1.96486 0)
(1.06386 1.96478 0)
(1.06387 1.96475 0)
(1.06388 1.96475 0)
(1.0639 1.96478 0)
(1.06392 1.96486 0)
(1.06395 1.96501 0)
(1.06399 1.96525 0)
(1.06404 1.96552 0)
(1.06408 1.96585 0)
(1.06413 1.96615 0)
(1.06417 1.96646 0)
(1.06421 1.9667 0)
(1.06425 1.9669 0)
(1.06428 1.96704 0)
(1.06431 1.96712 0)
(1.06433 1.96716 0)
(1.06434 1.96717 0)
(1.06436 1.96716 0)
(1.06437 1.96714 0)
(1.06439 1.9671 0)
(1.0644 1.96705 0)
(1.06442 1.967 0)
(1.06444 1.96694 0)
(1.06445 1.96688 0)
(1.06447 1.96682 0)
(1.06449 1.96677 0)
(1.06451 1.96671 0)
(1.06452 1.96667 0)
(1.06453 1.96663 0)
(1.06454 1.96659 0)
(1.06455 1.96656 0)
(1.06456 1.96654 0)
(1.06457 1.96653 0)
(1.06459 1.96652 0)
(1.0646 1.96651 0)
(1.06463 1.96651 0)
(1.06465 1.96652 0)
(1.06469 1.96653 0)
(1.06474 1.96655 0)
(1.0648 1.96659 0)
(1.06487 1.96664 0)
(1.06496 1.96671 0)
(1.06507 1.96681 0)
(1.06521 1.96694 0)
(1.06536 1.96712 0)
(1.06555 1.96734 0)
(1.06577 1.96761 0)
(1.06601 1.96795 0)
(1.06627 1.96837 0)
(1.06657 1.96887 0)
(1.0669 1.96947 0)
(1.06727 1.97016 0)
(1.06767 1.97095 0)
(1.0681 1.97181 0)
(1.06857 1.97276 0)
(1.06907 1.97378 0)
(1.06961 1.97485 0)
(1.07018 1.97596 0)
(1.07079 1.97709 0)
(1.07143 1.97822 0)
(1.07209 1.97935 0)
(1.07277 1.98045 0)
(1.07347 1.9815 0)