/*--------------------------------*- C++ -*----------------------------------*\
| =========                 |                                                 |
| \\      /  F ield         | OpenFOAM: The Open Source CFD Toolbox           |
|  \\    /   O peration     | Version:  2406                                  |
|   \\  /    A nd           | Website:  www.openfoam.com                      |
|    \\/     M anipulation  |                                                 |
\*---------------------------------------------------------------------------*/
FoamFile
{
    version     2.0;
    format      ascii;
    arch        "LSB;label=32;scalar=64";
    class       volVectorField;
    location    "0.08";
    object      U;
}
// * * * * * * * * * * * * * * * * * * * * * * * * * * * * * * * * * * * * * //

dimensions      [0 1 -1 0 0 0 0];

internalField   nonuniform List<vector> 
13962
(
(347.059 2.54724e-11 -2.43409e-11)
(347.059 2.16863e-11 -2.2965e-11)
(347.059 1.74554e-11 -2.33477e-11)
(347.059 1.25627e-11 -2.23304e-11)
(347.059 8.61561e-12 -2.28589e-11)
(347.059 1.45295e-14 -2.27006e-11)
(347.059 -7.50453e-12 -2.34861e-11)
(347.059 -5.64743e-12 -2.39603e-11)
(347.059 -5.83602e-12 -2.54585e-11)
(347.059 -7.63224e-12 -2.61916e-11)
(347.059 -1.10214e-11 -2.4933e-11)
(347.059 -1.0003e-11 -2.54415e-11)
(347.059 -8.0901e-12 -2.59457e-11)
(347.059 -5.1928e-12 -2.57632e-11)
(347.059 -6.02728e-12 -2.58898e-11)
(347.059 -6.33359e-12 -2.58112e-11)
(347.059 -5.53848e-12 -2.66418e-11)
(347.059 -1.84727e-12 -2.6571e-11)
(347.059 3.6929e-12 -2.71675e-11)
(347.059 8.68539e-12 -2.71038e-11)
(347.059 7.55051e-12 -2.72912e-11)
(347.059 4.82951e-12 -2.68401e-11)
(347.059 -2.43851e-12 -2.69134e-11)
(347.059 -9.88874e-12 -2.6724e-11)
(347.059 -1.25366e-11 -2.49617e-11)
(347.059 -1.09911e-11 -2.46835e-11)
(347.059 -6.57011e-12 -2.42397e-11)
(347.059 -3.20233e-12 -2.43789e-11)
(347.059 4.94663e-14 -2.37535e-11)
(347.059 9.12063e-15 -2.41325e-11)
(347.059 -4.03934e-12 -2.51091e-11)
(347.059 -3.44129e-12 -2.62017e-11)
(347.059 -3.03878e-12 -2.80124e-11)
(347.059 4.80319e-13 -2.88346e-11)
(347.059 5.06468e-12 -3.13195e-11)
(347.059 6.89035e-12 -3.33921e-11)
(347.059 5.97004e-12 -3.3986e-11)
(347.059 4.27706e-12 -3.4439e-11)
(347.059 6.75881e-12 -3.47897e-11)
(347.059 1.87272e-10 -4.27847e-11)
(347.058 -1.07007e-08 4.40807e-10)
(347.023 3.15798e-07 -1.4129e-08)
(346.101 -5.21641e-06 2.28855e-07)
(334.553 -1.05278e-05 5.25578e-07)
(319.387 0.000117834 -5.35467e-06)
(318.273 -2.17174e-05 9.10224e-07)
(318.276 -3.82003e-05 1.68622e-06)
(318.277 -3.12496e-05 1.39321e-06)
(318.278 -3.02541e-05 1.36038e-06)
(318.28 -2.23842e-05 1.02844e-06)
(318.28 2.51569e-06 -3.2847e-08)
(318.273 9.84508e-06 -3.82159e-07)
(318.273 1.80336e-05 -7.99337e-07)
(318.28 2.02938e-05 -9.28897e-07)
(318.291 1.60498e-05 -7.70446e-07)
(318.309 4.8474e-06 -2.66467e-07)
(318.326 -7.1661e-07 1.46343e-08)
(318.333 -5.17038e-06 2.5103e-07)
(318.334 -9.1796e-06 4.55117e-07)
(318.33 -1.02976e-05 5.03085e-07)
(318.329 -8.88134e-06 4.37032e-07)
(318.326 -2.32623e-06 1.37547e-07)
(318.322 3.01853e-06 -1.33572e-07)
(318.326 3.52356e-06 -1.6632e-07)
(318.328 2.16703e-06 -1.06033e-07)
(318.329 1.82821e-06 -9.07479e-08)
(318.33 -7.93286e-07 -1.12293e-08)
(318.331 -7.66599e-06 2.61001e-07)
(318.338 -8.8248e-06 3.20839e-07)
(318.341 -9.23849e-06 3.53589e-07)
(318.343 -7.07903e-06 2.79201e-07)
(318.344 -6.94821e-06 2.87947e-07)
(318.343 -3.96738e-06 1.62807e-07)
(318.338 2.40022e-06 -4.63095e-08)
(318.327 3.87975e-06 -1.10302e-07)
(318.319 6.22527e-06 -2.10912e-07)
(318.313 7.17625e-06 -2.54722e-07)
(318.309 6.2742e-06 -2.24892e-07)
(318.308 4.34798e-06 -1.5746e-07)
(318.31 -2.1632e-06 6.75915e-08)
(318.317 -5.11832e-06 1.77343e-07)
(318.319 -7.1885e-06 2.5529e-07)
(318.318 -8.2554e-06 2.91608e-07)
(318.315 -7.79272e-06 2.70835e-07)
(318.31 -3.33309e-06 8.50503e-08)
(318.305 5.59191e-06 -2.98795e-07)
(318.299 1.11937e-05 -5.51675e-07)
(318.298 9.7071e-06 -4.91385e-07)
(318.3 9.26252e-06 -4.69685e-07)
(318.304 8.72026e-06 -4.46231e-07)
(318.309 7.24205e-06 -3.72435e-07)
(318.313 -5.84296e-06 2.05571e-07)
(318.321 -1.53352e-05 6.15392e-07)
(318.326 -1.56334e-05 6.26189e-07)
(318.329 -1.3213e-05 5.18922e-07)
(318.331 -1.38619e-05 5.51227e-07)
(318.333 -1.13372e-05 4.45036e-07)
(318.335 -1.28064e-06 1.70952e-08)
(318.333 5.60991e-06 -2.70966e-07)
(318.33 6.85551e-06 -3.19976e-07)
(318.328 8.27786e-06 -3.7463e-07)
(318.325 8.51632e-06 -3.8307e-07)
(318.323 7.25839e-06 -3.24149e-07)
(318.321 4.65379e-06 -2.06244e-07)
(318.322 1.1221e-06 -6.31717e-08)
(318.326 5.8006e-07 -4.27162e-08)
(318.327 -4.62282e-08 -2.69833e-08)
(318.328 -3.48057e-07 -1.96677e-08)
(318.328 3.61822e-07 -3.88649e-08)
(318.328 1.15184e-06 -8.92214e-08)
(318.326 6.39573e-07 -7.71441e-08)
(318.321 -1.00792e-06 1.26208e-09)
(318.318 -2.31741e-06 6.23971e-08)
(318.316 -3.2561e-06 1.03027e-07)
(318.315 -3.85719e-06 1.32416e-07)
(318.315 -3.80315e-06 1.29715e-07)
(318.317 -3.25815e-06 9.82676e-08)
(318.322 -2.88088e-06 7.7454e-08)
(318.325 -1.48119e-06 8.27604e-09)
(318.328 -8.48746e-08 -2.5372e-08)
(318.33 2.38184e-07 -3.1096e-08)
(318.331 2.07456e-07 -3.2743e-08)
(318.329 1.46337e-07 -4.62464e-08)
(318.324 1.68594e-07 -4.86338e-08)
(318.321 3.42603e-07 -5.59765e-08)
(318.318 -2.45758e-07 -6.96942e-08)
(318.316 -7.20114e-07 -4.3491e-08)
(318.314 2.68101e-07 -5.87658e-08)
(318.312 1.36986e-06 -9.69158e-08)
(318.315 1.76633e-06 -1.16053e-07)
(318.316 1.63083e-06 -1.19006e-07)
(318.317 1.53207e-06 -1.01877e-07)
(318.317 2.02793e-06 -1.49915e-07)
(318.318 1.54618e-06 -1.55357e-07)
(318.319 2.7649e-07 -8.16756e-08)
(318.319 -2.0723e-07 -4.51411e-08)
(318.319 -4.42005e-07 -1.36378e-08)
(318.32 -5.42347e-07 2.19259e-08)
(318.32 -6.10544e-07 4.2517e-08)
(318.32 -6.57542e-07 4.33172e-08)
(318.321 -6.086e-07 3.57762e-08)
(318.322 -5.9732e-07 3.26328e-08)
(318.324 -6.84435e-07 3.81426e-08)
(318.327 -1.01604e-06 4.68425e-08)
(318.33 -1.64045e-06 6.77176e-08)
(318.334 -2.26653e-06 1.04059e-07)
(318.336 -2.92957e-06 1.5074e-07)
(318.335 -3.31339e-06 1.72423e-07)
(318.333 -3.50523e-06 1.86135e-07)
(318.331 -3.74822e-06 2.13349e-07)
(318.327 -3.52741e-06 1.87543e-07)
(318.323 -2.78435e-06 1.80658e-07)
(318.319 -2.30421e-06 1.3776e-07)
(318.316 -8.73986e-07 9.39249e-08)
(318.316 -5.68791e-07 7.39306e-08)
(318.317 -6.42876e-07 6.7313e-08)
(318.317 -4.83505e-07 7.16068e-08)
(318.317 -7.737e-07 9.36274e-08)
(318.317 -6.86877e-07 8.76114e-08)
(318.317 -5.41402e-07 8.14666e-08)
(318.317 -1.27671e-07 6.23399e-08)
(318.317 3.62467e-07 5.47351e-08)
(318.318 1.38533e-07 4.0233e-08)
(318.319 3.00471e-07 6.55722e-08)
(318.321 -8.89594e-07 2.99004e-08)
(318.322 1.46248e-06 1.02658e-07)
(318.32 1.29978e-05 -5.10674e-07)
(318.312 -4.19478e-06 6.92129e-08)
(318.303 -1.78648e-05 7.33838e-07)
(318.306 -3.78902e-06 2.51937e-08)
(318.324 -3.97095e-05 2.00035e-06)
(318.39 0.000130571 -6.27442e-06)
(318.533 -0.000226125 1.15452e-05)
(318.765 0.000439499 -2.05331e-05)
(319.072 -0.00036339 1.53204e-05)
(319.428 0.000181927 -1.75227e-06)
(319.81 0.000267377 -2.41165e-05)
(320.199 -0.000634595 3.62723e-05)
(320.585 7.34497e-05 -1.16636e-06)
(320.962 0.000839558 -4.96845e-05)
(321.318 -0.00165192 7.02275e-05)
(321.631 -0.00113364 4.83416e-05)
(321.884 -0.000696616 4.10297e-05)
(322.067 0.0040083 -0.000135812)
(322.162 0.00279543 -0.000115042)
(322.191 0.00122232 -6.61586e-05)
(322.187 -0.00252815 6.09596e-05)
(322.178 -0.0027324 8.76604e-05)
(322.161 -0.00257658 9.55238e-05)
(322.137 -0.0021912 9.64449e-05)
(322.112 -0.00186554 9.56633e-05)
(322.087 -0.00159076 7.57103e-05)
(322.064 -0.00132245 4.36245e-05)
(322.047 -0.0012983 3.35432e-05)
(322.037 -0.00114388 4.38014e-05)
(322.027 -0.00114255 7.48411e-06)
(322.01 -0.00109452 2.33809e-05)
(321.969 -0.0010953 4.90307e-05)
(321.871 -0.000911822 3.61216e-05)
(321.661 -0.00123103 -0.000349484)
(321.291 -0.00168971 0.000891555)
(320.814 0.00100358 0.000372675)
(320.385 -0.00081236 -0.00223047)
(320.089 -0.00301209 0.000347206)
(319.889 -0.000667928 0.00178397)
(319.731 0.000816926 0.000594415)
(319.591 0.000564729 -0.000755458)
(319.463 -0.000541976 -0.00109476)
(319.347 -0.0012139 -0.000258952)
(319.245 -0.00108807 0.000726878)
(319.158 -2.71528e-05 0.000857712)
(319.086 0.000353981 0.000137297)
(319.029 -0.000366923 -0.00071167)
(318.984 -0.00070286 -0.000733669)
(318.95 -0.000421758 -0.000223782)
(318.924 -8.5155e-05 0.000111595)
(318.903 1.09324e-05 0.00013361)
(318.887 6.9813e-05 8.33494e-05)
(318.873 -9.0824e-05 8.62664e-05)
(318.861 -0.000438141 0.000273967)
(318.85 -0.000526473 0.000345523)
(318.839 -0.000430983 0.000296517)
(318.828 -5.79606e-05 -1.52602e-05)
(318.817 6.22053e-05 -0.000117935)
(318.805 9.1036e-05 -0.000136971)
(318.792 7.23709e-05 -7.61355e-05)
(318.779 4.12931e-05 -2.09049e-05)
(318.765 3.45088e-05 -3.15375e-05)
(318.75 1.4688e-05 -9.19278e-05)
(318.736 -4.6415e-05 -0.000129368)
(318.721 -0.000147682 -6.51255e-05)
(318.707 -0.000234934 4.9814e-05)
(318.695 -0.000252438 0.000115658)
(318.687 -0.000235106 0.000119107)
(318.683 -0.000178838 9.80574e-05)
(318.681 -8.81148e-05 5.95183e-05)
(318.68 2.54419e-07 2.76093e-05)
(318.681 6.06634e-05 1.12156e-05)
(318.682 0.000101211 2.38769e-06)
(318.683 9.53758e-05 -1.84554e-05)
(318.682 6.24987e-05 -3.33548e-05)
(318.681 1.42677e-05 -4.52423e-05)
(318.68 -5.32907e-05 -5.7932e-05)
(318.678 -0.000112818 -6.5067e-05)
(318.676 -0.00014008 -5.78442e-05)
(318.673 -0.00011464 -3.46818e-05)
(318.67 -5.04636e-05 -5.80382e-06)
(318.666 2.67455e-05 1.43033e-05)
(318.662 8.57899e-05 1.84196e-05)
(318.657 9.6347e-05 1.31558e-05)
(318.651 5.30845e-05 8.42502e-06)
(318.644 -1.67234e-05 9.32946e-06)
(318.637 -7.51154e-05 1.26178e-05)
(318.631 -9.65482e-05 1.44683e-05)
(318.626 -8.80062e-05 1.30928e-05)
(318.623 -6.58202e-05 8.56403e-06)
(318.62 -2.34944e-05 3.18278e-08)
(318.619 1.68985e-05 -7.17358e-06)
(318.619 3.43026e-05 -9.02292e-06)
(318.619 3.13192e-05 -7.17751e-06)
(318.62 1.43751e-05 -8.77436e-07)
(318.62 -1.10352e-05 2.05862e-05)
(318.62 -5.18758e-05 3.04859e-05)
(318.619 -6.94462e-05 6.76067e-05)
(318.618 -6.9669e-05 7.89139e-05)
(318.616 -5.76029e-05 9.24792e-05)
(318.615 -1.21976e-05 9.70125e-05)
(318.614 2.44433e-05 9.43916e-05)
(318.612 3.85534e-05 9.11375e-05)
(318.609 4.03106e-05 8.39648e-05)
(318.605 2.71485e-05 7.00229e-05)
(318.6 2.9422e-06 5.35355e-05)
(318.595 -2.23799e-05 3.88107e-05)
(318.59 -4.25634e-05 2.84903e-05)
(318.584 -5.35035e-05 2.4024e-05)
(318.579 -5.10487e-05 2.54201e-05)
(318.575 -4.32593e-05 2.83808e-05)
(318.57 -3.09048e-05 3.25394e-05)
(318.566 -6.385e-06 3.96551e-05)
(318.562 1.63531e-05 4.5404e-05)
(318.558 2.79631e-05 4.66531e-05)
(318.555 2.83089e-05 4.53015e-05)
(318.553 1.06747e-05 3.43295e-05)
(318.551 -6.50468e-06 2.67184e-05)
(318.551 -3.45956e-05 6.80403e-06)
(318.549 -5.33412e-05 -3.21314e-06)
(318.546 -6.42401e-05 -6.3585e-06)
(318.543 -7.53627e-05 -1.12341e-05)
(318.54 -7.81138e-05 -1.1595e-05)
(318.537 -6.29601e-05 2.65145e-06)
(318.534 -4.71317e-05 1.49575e-05)
(318.532 -3.32852e-05 2.31482e-05)
(318.529 -2.25369e-05 2.85988e-05)
(318.527 -1.1892e-05 3.3075e-05)
(318.524 -3.13379e-07 3.48132e-05)
(318.521 1.11382e-05 3.20379e-05)
(318.519 2.19132e-05 2.40808e-05)
(318.516 2.91307e-05 1.27395e-05)
(318.514 2.85638e-05 1.41177e-06)
(318.511 1.70051e-05 -7.8807e-06)
(318.51 4.07272e-06 -1.1651e-05)
(318.509 -7.18433e-06 -1.20174e-05)
(318.508 -3.10851e-05 -1.02908e-05)
(318.507 -5.55703e-05 -5.89316e-06)
(318.506 -6.7713e-05 -1.99583e-07)
(318.505 -5.60983e-05 6.00108e-06)
(318.505 -4.79967e-05 1.01482e-05)
(318.507 -1.57577e-05 1.47478e-05)
(318.508 2.32908e-05 1.77591e-05)
(318.509 4.38984e-05 1.85187e-05)
(318.51 6.42451e-05 1.95398e-05)
(318.509 9.13842e-05 2.13793e-05)
(318.507 0.000102849 2.15708e-05)
(318.503 9.47781e-05 1.93189e-05)
(318.499 7.58036e-05 1.59918e-05)
(318.495 5.1134e-05 1.19213e-05)
(318.492 2.50245e-05 7.65731e-06)
(318.489 -1.4432e-06 2.37259e-06)
(318.486 -2.41961e-05 -4.157e-06)
(318.483 -3.74496e-05 -1.02435e-05)
(318.48 -4.42341e-05 -1.46744e-05)
(318.477 -4.47306e-05 -1.73193e-05)
(318.474 -4.29241e-05 -1.89097e-05)
(318.472 -3.8335e-05 -2.08822e-05)
(318.471 -3.0081e-05 -2.23634e-05)
(318.471 -1.72649e-05 -2.41422e-05)
(318.471 -3.63538e-06 -2.58961e-05)
(318.471 7.62928e-06 -2.64042e-05)
(318.47 2.09087e-05 -2.79292e-05)
(318.469 3.43451e-05 -3.02779e-05)
(318.469 4.01935e-05 -3.00764e-05)
(318.47 3.71244e-05 -2.63501e-05)
(318.47 2.73762e-05 -1.9601e-05)
(318.469 1.73205e-05 -1.27937e-05)
(318.468 9.3062e-06 -6.74171e-06)
(318.467 -3.55667e-06 4.32473e-06)
(318.464 -1.36137e-05 1.74932e-05)
(318.462 -1.74079e-05 2.96871e-05)
(318.459 -1.60404e-05 3.88197e-05)
(318.456 -1.24224e-05 4.64329e-05)
(318.453 -5.32963e-06 5.26337e-05)
(318.451 1.43501e-06 5.70692e-05)
(318.451 4.18216e-06 5.83629e-05)
(318.453 6.43364e-06 5.8208e-05)
(318.456 8.17768e-06 5.57353e-05)
(318.458 1.01395e-05 5.04577e-05)
(318.459 7.82184e-06 4.15325e-05)
(318.459 6.45567e-06 3.0465e-05)
(318.459 5.97594e-06 2.02028e-05)
(318.459 6.56863e-06 9.65141e-06)
(318.461 9.69248e-07 -1.36407e-06)
(318.463 -1.22025e-05 -1.07362e-05)
(318.467 -2.38727e-05 -2.07431e-05)
(318.469 -3.43473e-05 -3.08848e-05)
(318.471 -4.63048e-05 -4.01333e-05)
(318.471 -5.55316e-05 -4.93414e-05)
(318.471 -5.32897e-05 -5.70602e-05)
(318.47 -4.91333e-05 -6.01437e-05)
(318.469 -3.53939e-05 -6.59484e-05)
(318.469 -9.74406e-06 -7.3962e-05)
(318.469 2.08285e-05 -8.19934e-05)
(318.468 4.81494e-05 -8.89822e-05)
(318.465 6.65468e-05 -9.38739e-05)
(318.462 7.41107e-05 -9.6237e-05)
(318.458 7.47062e-05 -9.66643e-05)
(318.455 7.04679e-05 -9.57531e-05)
(318.452 6.04547e-05 -9.39873e-05)
(318.45 4.94177e-05 -9.19673e-05)
(318.449 4.03042e-05 -9.02623e-05)
(318.448 2.58013e-05 -8.68291e-05)
(318.448 1.32435e-05 -8.33575e-05)
(318.447 3.31779e-06 -8.01026e-05)
(318.447 -6.47986e-06 -7.50188e-05)
(318.448 -1.57031e-05 -6.78578e-05)
(318.448 -2.21549e-05 -5.93552e-05)
(318.448 -2.6403e-05 -4.89743e-05)
(318.449 -2.94594e-05 -3.90542e-05)
(318.449 -3.10962e-05 -3.0561e-05)
(318.447 -2.75598e-05 -2.32467e-05)
(318.445 -1.91613e-05 -1.87619e-05)
(318.442 -1.48915e-05 -1.74486e-05)
(318.44 -7.87313e-06 -1.58492e-05)
(318.438 -5.63815e-07 -1.57053e-05)
(318.435 6.75535e-06 -1.65097e-05)
(318.432 1.06546e-05 -1.78806e-05)
(318.43 8.15654e-06 -2.00853e-05)
(318.427 5.44464e-06 -2.30829e-05)
(318.422 5.48267e-06 -2.44267e-05)
(318.417 1.08709e-06 -2.44557e-05)
(318.413 -5.87684e-06 -2.45879e-05)
(318.41 -5.53481e-06 -2.39652e-05)
(318.407 -3.89856e-06 -2.27433e-05)
(318.406 -3.57747e-06 -2.03437e-05)
(318.405 -3.83765e-07 -1.59883e-05)
(318.403 9.43577e-06 -1.15775e-05)
(318.402 1.24432e-05 -7.37817e-06)
(318.401 8.53982e-06 -2.62956e-06)
(318.4 5.94606e-06 1.16632e-06)
(318.4 1.02934e-05 4.48963e-06)
(318.4 9.3424e-06 8.23414e-06)
(318.401 4.09748e-06 1.22788e-05)
(318.404 1.524e-06 1.44036e-05)
(318.408 3.2781e-06 1.60336e-05)
(318.412 4.01877e-06 1.92162e-05)
(318.413 9.87223e-07 2.11603e-05)
(318.413 1.13143e-06 2.30214e-05)
(318.412 8.69453e-06 2.3522e-05)
(318.411 1.06906e-05 2.44728e-05)
(318.41 -1.03988e-06 2.56998e-05)
(318.409 -5.89338e-06 2.48304e-05)
(318.41 1.05814e-06 2.38098e-05)
(318.409 9.89383e-07 2.43617e-05)
(318.408 -5.01673e-06 2.64016e-05)
(318.406 -7.46666e-06 2.85266e-05)
(318.404 -5.63827e-06 3.01195e-05)
(318.402 -2.6975e-06 3.24436e-05)
(318.4 -1.02853e-06 3.73965e-05)
(318.4 -2.3912e-07 4.38774e-05)
(318.4 4.55064e-06 5.13568e-05)
(318.401 1.14135e-05 5.79106e-05)
(318.401 1.00834e-05 6.33082e-05)
(318.401 4.95407e-06 6.69731e-05)
(318.401 4.82733e-06 6.8618e-05)
(318.402 8.46022e-06 6.8799e-05)
(318.402 8.85782e-06 6.70809e-05)
(318.402 7.43697e-06 6.5538e-05)
(318.402 5.24966e-06 6.19569e-05)
(318.401 6.06152e-06 5.86807e-05)
(318.4 4.25063e-06 5.41379e-05)
(318.398 1.63469e-06 5.21298e-05)
(318.396 -1.4661e-06 4.85228e-05)
(318.393 -5.71493e-06 4.44547e-05)
(318.391 -2.20144e-06 4.62742e-05)
(318.388 -2.77707e-06 4.25034e-05)
(318.387 -7.56643e-06 3.94873e-05)
(318.387 -6.38505e-06 3.53008e-05)
(318.387 -3.50491e-06 2.94053e-05)
(318.386 -3.37225e-06 2.58121e-05)
(318.385 -1.85959e-07 2.23294e-05)
(318.383 2.48513e-06 1.64218e-05)
(318.383 2.78619e-06 9.8975e-06)
(318.383 2.55453e-07 2.97225e-06)
(318.383 9.48206e-06 -6.47069e-06)
(318.384 2.05276e-05 -1.62742e-05)
(318.385 7.20618e-06 -2.32456e-05)
(318.384 -6.24449e-06 -2.9717e-05)
(318.382 -7.67175e-06 -3.61578e-05)
(318.381 -9.08154e-06 -4.02517e-05)
(318.38 -1.25706e-05 -4.14263e-05)
(318.379 -1.55849e-05 -4.17684e-05)
(318.378 -1.5446e-05 -4.09968e-05)
(318.378 -1.59215e-05 -3.85816e-05)
(318.378 -2.26155e-05 -3.50291e-05)
(318.377 -2.93412e-05 -2.72951e-05)
(318.375 -1.30663e-05 -1.96447e-05)
(318.373 -6.44431e-07 -1.28275e-05)
(318.372 -4.96701e-07 -4.68117e-06)
(318.371 3.49322e-07 3.58055e-06)
(318.371 5.05529e-06 8.63745e-06)
(318.372 8.03122e-06 1.29458e-05)
(318.374 4.82027e-06 1.99674e-05)
(318.375 2.16476e-06 2.53781e-05)
(318.376 4.77786e-06 2.72439e-05)
(318.376 3.89931e-06 2.64005e-05)
(347.059 2.61297e-11 -2.26315e-11)
(347.059 2.21249e-11 -2.19129e-11)
(347.059 1.60634e-11 -2.16384e-11)
(347.059 9.19191e-12 -2.25253e-11)
(347.059 1.00631e-11 -2.25792e-11)
(347.059 6.58559e-12 -2.29688e-11)
(347.059 -2.29957e-12 -2.34137e-11)
(347.059 -4.37013e-12 -2.35185e-11)
(347.059 -5.93933e-12 -2.4745e-11)
(347.059 -5.80815e-12 -2.5178e-11)
(347.059 -6.55356e-12 -2.52297e-11)
(347.059 -5.04188e-12 -2.6452e-11)
(347.059 -5.24047e-12 -2.70242e-11)
(347.059 -4.21987e-12 -2.71862e-11)
(347.059 -7.35879e-12 -2.82934e-11)
(347.059 -7.50841e-12 -2.87656e-11)
(347.059 -6.38875e-12 -2.91023e-11)
(347.059 -3.59479e-12 -2.91202e-11)
(347.059 1.207e-12 -2.87213e-11)
(347.059 1.18787e-11 -2.8697e-11)
(347.059 1.0325e-11 -2.89374e-11)
(347.059 8.41039e-12 -2.85432e-11)
(347.059 3.15976e-12 -2.89566e-11)
(347.059 -2.63245e-12 -2.84123e-11)
(347.059 -5.97552e-12 -2.70619e-11)
(347.059 -4.85649e-12 -2.60753e-11)
(347.059 -3.36214e-12 -2.58512e-11)
(347.059 1.06014e-12 -2.61721e-11)
(347.059 6.04842e-13 -2.54603e-11)
(347.059 2.39147e-12 -2.65074e-11)
(347.059 6.22633e-13 -2.70085e-11)
(347.059 8.6776e-13 -2.8413e-11)
(347.059 7.52109e-13 -2.94675e-11)
(347.059 2.91651e-12 -3.10496e-11)
(347.059 8.78073e-12 -3.29035e-11)
(347.059 9.34353e-12 -3.40579e-11)
(347.059 7.20957e-12 -3.48221e-11)
(347.059 5.44799e-12 -3.49805e-11)
(347.059 7.67313e-12 -3.5155e-11)
(347.059 1.77386e-10 -4.27931e-11)
(347.058 -1.01817e-08 4.17604e-10)
(347.023 2.99816e-07 -1.34587e-08)
(346.101 -4.94432e-06 2.18004e-07)
(334.553 -1.03154e-05 5.0509e-07)
(319.387 0.000113064 -5.12638e-06)
(318.273 -2.09238e-05 8.78952e-07)
(318.276 -3.64922e-05 1.61096e-06)
(318.277 -3.01902e-05 1.34405e-06)
(318.278 -2.95538e-05 1.32489e-06)
(318.28 -2.21121e-05 1.00834e-06)
(318.28 2.25677e-06 -2.63369e-08)
(318.273 9.57496e-06 -3.71138e-07)
(318.273 1.79055e-05 -7.8681e-07)
(318.28 2.02466e-05 -9.17405e-07)
(318.291 1.61464e-05 -7.64421e-07)
(318.309 4.99281e-06 -2.69372e-07)
(318.326 -7.28214e-07 1.16822e-08)
(318.333 -5.39539e-06 2.51486e-07)
(318.334 -9.51953e-06 4.57219e-07)
(318.33 -1.05075e-05 5.00965e-07)
(318.329 -9.02617e-06 4.33776e-07)
(318.326 -2.51634e-06 1.39902e-07)
(318.322 2.83574e-06 -1.26143e-07)
(318.326 3.58332e-06 -1.62549e-07)
(318.328 2.41945e-06 -1.02898e-07)
(318.329 2.0338e-06 -8.77546e-08)
(318.33 -6.12295e-07 -9.35906e-09)
(318.331 -7.4747e-06 2.68188e-07)
(318.338 -8.69852e-06 3.33476e-07)
(318.341 -9.2992e-06 3.73712e-07)
(318.343 -7.24387e-06 2.97423e-07)
(318.344 -7.01077e-06 2.95906e-07)
(318.343 -4.10013e-06 1.69631e-07)
(318.338 2.10683e-06 -5.00072e-08)
(318.327 3.53089e-06 -1.1153e-07)
(318.319 5.94245e-06 -2.12835e-07)
(318.313 6.91307e-06 -2.54875e-07)
(318.309 5.96609e-06 -2.20356e-07)
(318.308 4.15549e-06 -1.54033e-07)
(318.31 -1.73422e-06 4.79888e-08)
(318.317 -4.56883e-06 1.51946e-07)
(318.319 -6.69997e-06 2.3199e-07)
(318.318 -7.84154e-06 2.7451e-07)
(318.315 -7.36288e-06 2.55563e-07)
(318.31 -3.12244e-06 8.05634e-08)
(318.305 5.21648e-06 -2.78524e-07)
(318.299 1.04775e-05 -5.18277e-07)
(318.298 9.11905e-06 -4.6437e-07)
(318.3 8.74577e-06 -4.45896e-07)
(318.304 8.25619e-06 -4.2487e-07)
(318.309 6.84644e-06 -3.54105e-07)
(318.313 -5.52085e-06 1.95301e-07)
(318.321 -1.45107e-05 5.84397e-07)
(318.326 -1.47653e-05 5.92311e-07)
(318.329 -1.24091e-05 4.85161e-07)
(318.331 -1.2949e-05 5.12311e-07)
(318.333 -1.05353e-05 4.1015e-07)
(318.335 -9.29717e-07 -6.08769e-10)
(318.333 5.58952e-06 -2.75594e-07)
(318.33 6.71667e-06 -3.19734e-07)
(318.328 7.8967e-06 -3.65869e-07)
(318.325 8.08144e-06 -3.73917e-07)
(318.323 6.9188e-06 -3.21571e-07)
(318.321 4.34766e-06 -2.01538e-07)
(318.322 1.05956e-06 -6.20903e-08)
(318.326 5.76668e-07 -4.31124e-08)
(318.327 1.96737e-08 -2.68168e-08)
(318.328 -2.80939e-07 -1.99257e-08)
(318.328 3.29368e-07 -3.3762e-08)
(318.328 1.0558e-06 -6.46259e-08)
(318.326 7.25546e-07 -7.49883e-08)
(318.321 -8.63679e-07 -1.37172e-09)
(318.318 -2.1675e-06 5.97508e-08)
(318.316 -3.1316e-06 1.01302e-07)
(318.315 -3.77e-06 1.29929e-07)
(318.315 -3.83441e-06 1.29207e-07)
(318.317 -3.36814e-06 1.00887e-07)
(318.322 -3.0111e-06 8.30494e-08)
(318.325 -1.64134e-06 1.72928e-08)
(318.328 -2.3327e-07 -2.10033e-08)
(318.33 1.64583e-07 -2.43307e-08)
(318.331 2.84125e-07 -3.19877e-08)
(318.329 3.5298e-07 -4.34695e-08)
(318.324 3.90674e-07 -4.37235e-08)
(318.321 5.59368e-07 -6.02682e-08)
(318.318 6.39924e-09 -7.41059e-08)
(318.316 -2.78351e-07 -4.23673e-08)
(318.314 6.96152e-07 -5.16444e-08)
(318.312 1.55182e-06 -9.0749e-08)
(318.315 1.90655e-06 -1.09689e-07)
(318.316 1.77515e-06 -1.11958e-07)
(318.317 1.70224e-06 -9.49751e-08)
(318.317 2.21254e-06 -1.42832e-07)
(318.318 1.72305e-06 -1.50871e-07)
(318.319 5.21718e-07 -8.35393e-08)
(318.319 9.66056e-08 -5.04022e-08)
(318.319 -1.79835e-07 -2.07603e-08)
(318.32 -3.44192e-07 1.22641e-08)
(318.32 -4.91474e-07 3.34842e-08)
(318.32 -6.75627e-07 4.09412e-08)
(318.321 -7.05296e-07 3.71287e-08)
(318.322 -7.51915e-07 3.72691e-08)
(318.324 -9.04503e-07 4.48244e-08)
(318.327 -1.27002e-06 5.34978e-08)
(318.33 -1.94597e-06 7.22494e-08)
(318.334 -2.595e-06 1.05473e-07)
(318.336 -3.26441e-06 1.50198e-07)
(318.335 -3.62407e-06 1.69401e-07)
(318.333 -3.755e-06 1.82745e-07)
(318.331 -3.92008e-06 2.13583e-07)
(318.327 -3.67812e-06 1.90876e-07)
(318.323 -2.87045e-06 1.87156e-07)
(318.319 -2.26636e-06 1.32018e-07)
(318.316 -7.35848e-07 8.38121e-08)
(318.316 -4.78436e-07 5.73769e-08)
(318.317 -5.45401e-07 5.0123e-08)
(318.317 -3.04756e-07 5.77089e-08)
(318.317 -5.62262e-07 8.61044e-08)
(318.317 -5.74758e-07 8.5477e-08)
(318.317 -4.30612e-07 7.71376e-08)
(318.317 -8.65703e-09 5.65314e-08)
(318.317 4.63213e-07 5.31766e-08)
(318.318 2.58337e-07 3.9893e-08)
(318.319 2.42225e-07 7.87961e-08)
(318.321 -5.47386e-07 3.7831e-09)
(318.322 1.42711e-06 1.4435e-07)
(318.32 1.13434e-05 -4.86886e-07)
(318.312 -2.7507e-06 4.73175e-08)
(318.303 -1.73246e-05 7.89239e-07)
(318.306 -3.92905e-06 -7.23346e-08)
(318.324 -3.65886e-05 1.83688e-06)
(318.39 0.000119871 -5.43387e-06)
(318.533 -0.00020514 9.10955e-06)
(318.765 0.000394395 -1.57356e-05)
(319.072 -0.000311226 9.88626e-06)
(319.428 0.000127247 2.90989e-06)
(319.81 0.000305572 -2.61562e-05)
(320.198 -0.000608522 3.49319e-05)
(320.585 3.24435e-05 -2.62213e-07)
(320.963 0.000857342 -5.05353e-05)
(321.318 -0.00161279 7.36084e-05)
(321.631 -0.001002 4.43064e-05)
(321.882 -0.000714315 3.97664e-05)
(322.065 0.00381609 -0.000134484)
(322.163 0.00263975 -0.000107212)
(322.194 0.00107859 -5.18638e-05)
(322.189 -0.0022482 -1.53122e-07)
(322.178 -0.00288492 8.34764e-05)
(322.16 -0.00227992 9.1582e-05)
(322.137 -0.00165668 8.26523e-05)
(322.112 -0.00152254 8.40811e-05)
(322.087 -0.00138987 6.72546e-05)
(322.064 -0.00112939 3.30161e-05)
(322.047 -0.00110559 2.27661e-05)
(322.037 -0.000949655 3.36194e-05)
(322.027 -0.000935151 -9.08009e-06)
(322.01 -0.00086188 1.23634e-05)
(321.969 -0.000869518 4.03398e-05)
(321.871 -0.000693877 2.86154e-05)
(321.661 -0.00101026 -0.000353677)
(321.291 -0.00153485 0.000884512)
(320.814 0.00118014 0.000350145)
(320.385 -0.000593793 -0.00220416)
(320.089 -0.00280681 0.000353968)
(319.889 -0.000525247 0.00174793)
(319.731 0.000914781 0.000577001)
(319.591 0.00068672 -0.00076418)
(319.463 -0.000401806 -0.0010827)
(319.347 -0.00111309 -0.000245512)
(319.245 -0.00102049 0.000720984)
(319.158 9.39717e-06 0.000831804)
(319.086 0.000404036 0.00011986)
(319.029 -0.000293679 -0.000704164)
(318.984 -0.000642675 -0.000718187)
(318.95 -0.000380002 -0.000218866)
(318.924 -5.04657e-05 0.000113407)
(318.903 4.82748e-05 0.00013423)
(318.887 0.000114302 8.23825e-05)
(318.873 -3.99161e-05 8.48759e-05)
(318.861 -0.00038506 0.000273561)
(318.85 -0.00049687 0.000344676)
(318.839 -0.000380249 0.000286685)
(318.828 -2.68058e-05 -1.78393e-05)
(318.817 8.42645e-05 -0.000119787)
(318.805 0.000108375 -0.000138034)
(318.792 8.56321e-05 -7.76802e-05)
(318.779 5.24287e-05 -2.2206e-05)
(318.765 4.5653e-05 -3.2498e-05)
(318.75 2.80555e-05 -9.09596e-05)
(318.736 -2.79642e-05 -0.00012598)
(318.721 -0.000126507 -6.22551e-05)
(318.707 -0.000214059 5.02141e-05)
(318.695 -0.000234088 0.000115114)
(318.687 -0.000218204 0.000118617)
(318.683 -0.000161832 9.80859e-05)
(318.681 -7.12795e-05 6.05289e-05)
(318.68 1.39918e-05 2.90668e-05)
(318.681 7.03491e-05 1.20268e-05)
(318.682 0.000106321 2.29353e-06)
(318.683 0.00010037 -1.93633e-05)
(318.682 6.94724e-05 -3.47064e-05)
(318.681 2.31674e-05 -4.70633e-05)
(318.68 -4.33707e-05 -5.97072e-05)
(318.678 -0.00010217 -6.59828e-05)
(318.676 -0.000129555 -5.76506e-05)
(318.673 -0.000106325 -3.3103e-05)
(318.67 -4.4196e-05 -1.54592e-06)
(318.666 3.16679e-05 1.90481e-05)
(318.662 8.94025e-05 2.16944e-05)
(318.657 9.91373e-05 1.48889e-05)
(318.651 5.60549e-05 9.78572e-06)
(318.644 -1.30626e-05 1.02862e-05)
(318.637 -6.98006e-05 1.31571e-05)
(318.631 -9.21338e-05 1.46047e-05)
(318.626 -8.58825e-05 1.30106e-05)
(318.623 -6.41461e-05 8.27303e-06)
(318.62 -2.3161e-05 -7.12969e-07)
(318.619 1.79225e-05 -8.25777e-06)
(318.619 3.66581e-05 -1.05036e-05)
(318.619 3.51872e-05 -8.86255e-06)
(318.62 2.07023e-05 -2.34967e-06)
(318.62 -4.63908e-06 1.92751e-05)
(318.62 -4.3759e-05 2.87986e-05)
(318.619 -6.26096e-05 6.62895e-05)
(318.618 -6.34507e-05 7.76826e-05)
(318.616 -5.26853e-05 9.10188e-05)
(318.615 -9.01468e-06 9.59911e-05)
(318.614 2.55073e-05 9.38911e-05)
(318.612 3.96652e-05 9.08619e-05)
(318.609 4.20725e-05 8.38322e-05)
(318.605 2.96393e-05 7.02656e-05)
(318.6 6.62349e-06 5.44852e-05)
(318.595 -1.72275e-05 4.01175e-05)
(318.59 -3.64624e-05 2.94534e-05)
(318.584 -4.72824e-05 2.49199e-05)
(318.579 -4.53097e-05 2.607e-05)
(318.575 -3.96626e-05 2.87845e-05)
(318.57 -2.84379e-05 3.29161e-05)
(318.566 -5.08451e-06 3.98208e-05)
(318.562 1.64825e-05 4.56392e-05)
(318.558 2.79444e-05 4.73347e-05)
(318.555 2.81932e-05 4.59603e-05)
(318.553 1.12554e-05 3.43508e-05)
(318.551 -3.94181e-06 2.63019e-05)
(318.551 -3.00878e-05 7.08008e-06)
(318.549 -4.91947e-05 -1.28125e-06)
(318.546 -6.03446e-05 -2.21293e-06)
(318.543 -6.97587e-05 -5.2081e-06)
(318.54 -7.20576e-05 -5.21764e-06)
(318.537 -5.82085e-05 6.81081e-06)
(318.534 -4.38843e-05 1.72622e-05)
(318.532 -3.14059e-05 2.48927e-05)
(318.529 -2.17291e-05 2.95552e-05)
(318.527 -1.12278e-05 3.20021e-05)
(318.524 1.32087e-06 3.18071e-05)
(318.521 1.26944e-05 2.78941e-05)
(318.519 2.23805e-05 1.93668e-05)
(318.516 3.06423e-05 8.26424e-06)
(318.514 3.22216e-05 -1.72211e-06)
(318.511 2.00924e-05 -9.34726e-06)
(318.51 5.68821e-06 -1.22708e-05)
(318.509 -5.93479e-06 -1.24619e-05)
(318.508 -2.95831e-05 -1.04845e-05)
(318.507 -5.37614e-05 -5.96879e-06)
(318.506 -6.49626e-05 -1.80159e-07)
(318.505 -5.45541e-05 6.19172e-06)
(318.505 -5.08523e-05 1.04389e-05)
(318.507 -2.04389e-05 1.4871e-05)
(318.508 2.05778e-05 1.77128e-05)
(318.509 4.204e-05 1.82866e-05)
(318.51 6.33802e-05 1.89389e-05)
(318.509 9.24863e-05 2.03422e-05)
(318.507 0.000104118 2.05099e-05)
(318.503 9.47863e-05 1.8454e-05)
(318.499 7.59591e-05 1.54187e-05)
(318.495 5.15872e-05 1.15684e-05)
(318.492 2.566e-05 7.17926e-06)
(318.489 5.27519e-07 1.6924e-06)
(318.486 -1.96919e-05 -4.66145e-06)
(318.483 -3.3553e-05 -1.0601e-05)
(318.48 -4.37797e-05 -1.50623e-05)
(318.477 -4.51572e-05 -1.76534e-05)
(318.474 -4.28661e-05 -1.92306e-05)
(318.472 -3.83035e-05 -2.10399e-05)
(318.471 -3.02543e-05 -2.25313e-05)
(318.471 -1.7446e-05 -2.44977e-05)
(318.471 -2.36141e-06 -2.71177e-05)
(318.471 9.76948e-06 -2.86808e-05)
(318.47 1.95981e-05 -2.98497e-05)
(318.469 3.30069e-05 -3.14737e-05)
(318.469 4.21856e-05 -3.04291e-05)
(318.47 3.92111e-05 -2.6263e-05)
(318.47 2.83092e-05 -1.92042e-05)
(318.469 1.85562e-05 -1.23463e-05)
(318.468 1.116e-05 -6.46218e-06)
(318.467 -1.27813e-06 3.35824e-06)
(318.464 -1.24782e-05 1.46175e-05)
(318.462 -1.86144e-05 2.58209e-05)
(318.459 -1.89623e-05 3.50867e-05)
(318.456 -9.24731e-06 4.31724e-05)
(318.453 -1.60859e-06 5.03337e-05)
(318.451 7.37221e-07 5.55373e-05)
(318.451 1.729e-06 5.79554e-05)
(318.453 6.4312e-06 5.8343e-05)
(318.456 7.89978e-06 5.64063e-05)
(318.458 1.03834e-05 5.17334e-05)
(318.459 1.03803e-05 4.24361e-05)
(318.459 5.06343e-06 3.0341e-05)
(318.459 2.33544e-06 2.03017e-05)
(318.459 7.47015e-06 1.00409e-05)
(318.461 3.00966e-06 -1.14887e-06)
(318.463 -1.10257e-05 -1.07968e-05)
(318.467 -2.05837e-05 -2.11815e-05)
(318.469 -3.03128e-05 -3.18324e-05)
(318.471 -4.14227e-05 -4.14315e-05)
(318.471 -5.68577e-05 -5.05207e-05)
(318.471 -5.33388e-05 -5.82058e-05)
(318.47 -4.78543e-05 -6.1431e-05)
(318.469 -3.28007e-05 -6.73186e-05)
(318.469 -8.56371e-06 -7.46901e-05)
(318.469 2.02337e-05 -8.18012e-05)
(318.468 4.64493e-05 -8.81142e-05)
(318.465 6.42914e-05 -9.27744e-05)
(318.462 7.01294e-05 -9.53853e-05)
(318.458 7.00637e-05 -9.58328e-05)
(318.455 7.04347e-05 -9.47582e-05)
(318.452 6.41447e-05 -9.28e-05)
(318.45 5.26701e-05 -9.08252e-05)
(318.449 4.30055e-05 -8.90823e-05)
(318.448 2.81139e-05 -8.59607e-05)
(318.448 1.52411e-05 -8.27705e-05)
(318.447 4.59089e-06 -7.9556e-05)
(318.447 -5.99784e-06 -7.4683e-05)
(318.448 -1.69791e-05 -6.76204e-05)
(318.448 -2.32261e-05 -5.87912e-05)
(318.448 -2.54305e-05 -4.85099e-05)