/*--------------------------------*- C++ -*----------------------------------*\
| =========                 |                                                 |
| \\      /  F ield         | OpenFOAM: The Open Source CFD Toolbox           |
|  \\    /   O peration     | Version:  2406                                  |
|   \\  /    A nd           | Website:  www.openfoam.com                      |
|    \\/     M anipulation  |                                                 |
\*---------------------------------------------------------------------------*/
FoamFile
{
    version     2.0;
    format      ascii;
    arch        "LSB;label=32;scalar=64";
    class       volScalarField;
    location    "0.085";
    object      Ma;
}
// * * * * * * * * * * * * * * * * * * * * * * * * * * * * * * * * * * * * * //

dimensions      [0 0 0 0 0 0 0];

internalField   nonuniform List<scalar> 
13946
(
4.79415e-14
3.92782e-14
3.61006e-14
3.18485e-14
2.86884e-14
2.30231e-14
1.93062e-14
1.92503e-14
7.98433e-15
9.10729e-15
1.34724e-14
2.06081e-14
2.35527e-14
2.54798e-14
3.24062e-14
3.71903e-14
3.91262e-14
4.25656e-14
4.62231e-14
4.82698e-14
4.95181e-14
4.98485e-14
4.99017e-14
5.12152e-14
5.43227e-14
4.30749e-14
3.59065e-14
3.91936e-14
3.59696e-14
2.20117e-14
1.49299e-14
1.73229e-14
1.29869e-14
1.57823e-14
1.8111e-14
1.75375e-14
1.37184e-14
1.58247e-14
1.88881e-14
1.73299e-14
1.64855e-14
2.44497e-14
2.45939e-14
2.08609e-14
1.29724e-14
2.60971e-14
3.98928e-14
4.1153e-14
5.01729e-14
6.47771e-14
7.39884e-14
8.45584e-14
8.27997e-14
8.70941e-14
8.11964e-14
7.55316e-14
6.9737e-14
5.48844e-14
3.00987e-14
1.90513e-14
2.71868e-14
3.07746e-14
2.14391e-14
1.50692e-14
6.53418e-15
1.0538e-14
1.06979e-14
7.47209e-15
9.36633e-15
9.99446e-15
3.93775e-15
3.90063e-15
6.94822e-15
6.25593e-15
1.40735e-14
8.66938e-15
3.68257e-15
6.66947e-15
9.07575e-15
1.89467e-14
1.46248e-14
1.67092e-14
1.57739e-14
2.61733e-14
3.37524e-14
3.89972e-14
4.07337e-14
3.79123e-14
3.57687e-14
3.07152e-14
2.00374e-14
6.00073e-15
3.67948e-14
3.52589e-14
3.64116e-14
3.66609e-14
3.20291e-14
2.59204e-14
2.67609e-14
2.78409e-14
2.32838e-14
1.11275e-14
9.07218e-15
2.25985e-14
2.91847e-14
3.04487e-14
3.49785e-14
3.70466e-14
3.96962e-14
4.15171e-14
4.45641e-14
5.0106e-14
5.35021e-14
5.27634e-14
5.38108e-14
5.09853e-14
4.72014e-14
4.05302e-14
3.55289e-14
3.534e-14
3.31527e-14
2.39686e-14
1.22482e-14
1.06111e-14
6.87737e-15
3.66247e-15
1.874e-15
4.43044e-15
6.43818e-15
1.02782e-14
1.27476e-14
1.20437e-14
1.49399e-14
1.99634e-14
2.18604e-14
1.95401e-14
1.0557e-14
2.37943e-14
4.65432e-14
6.27562e-14
7.2611e-14
8.12078e-14
8.21379e-14
8.48787e-14
8.35543e-14
8.54578e-14
8.85154e-14
9.08554e-14
8.56921e-14
6.17173e-14
3.13297e-14
1.2574e-14
1.81652e-14
2.44728e-14
2.09906e-14
1.14528e-14
4.32032e-15
3.21954e-15
8.25588e-15
1.0638e-14
1.08351e-14
1.05782e-14
9.19421e-15
7.83909e-15
1.08171e-14
1.43179e-14
1.60815e-14
1.09545e-14
1.29504e-14
1.05346e-14
6.21473e-15
3.13881e-15
8.53818e-15
2.14617e-14
2.69478e-14
3.04091e-14
3.76427e-14
4.237e-14
4.40462e-14
3.9322e-14
3.34728e-14
2.59754e-14
1.6455e-14
7.64277e-15
4.53073e-14
4.4919e-14
5.18056e-14
5.15909e-14
4.13299e-14
3.56302e-14
3.60076e-14
4.31079e-14
4.23471e-14
3.23966e-14
2.48128e-14
3.37883e-14
3.80845e-14
4.03504e-14
4.14234e-14
4.03623e-14
4.69333e-14
5.17814e-14
5.14049e-14
5.68463e-14
6.00807e-14
6.02418e-14
6.18018e-14
5.87783e-14
5.33788e-14
4.50407e-14
4.14921e-14
4.2968e-14
4.22377e-14
3.13347e-14
2.04838e-14
1.82252e-14
2.01064e-14
1.95694e-14
1.92758e-14
1.93743e-14
2.12819e-14
1.77641e-14
1.63038e-14
1.88812e-14
2.71454e-14
3.38653e-14
3.50669e-14
3.30265e-14
2.6009e-14
3.64273e-14
5.66815e-14
7.6691e-14
8.73569e-14
9.11652e-14
8.93483e-14
9.08318e-14
9.22819e-14
9.43162e-14
1.00249e-13
1.08859e-13
1.0463e-13
7.15555e-14
4.08639e-14
1.399e-14
2.38948e-14
3.40414e-14
3.33077e-14
2.24331e-14
1.86551e-14
1.9132e-14
2.41295e-14
2.74692e-14
2.75062e-14
2.56199e-14
2.69179e-14
3.09123e-14
3.25823e-14
2.98833e-14
3.3171e-14
2.58123e-14
3.1461e-14
2.66267e-14
2.44662e-14
2.49469e-14
2.6846e-14
3.66626e-14
3.9686e-14
3.49499e-14
4.34782e-14
4.73454e-14
5.07896e-14
4.81911e-14
4.18684e-14
3.358e-14
3.24397e-14
3.04246e-14
4.0866e-14
4.30777e-14
5.18932e-14
5.53563e-14
5.62449e-14
4.95315e-14
4.40747e-14
4.19052e-14
5.72538e-14
6.19911e-14
4.09694e-14
3.20596e-14
4.57602e-14
4.97303e-14
4.92922e-14
5.03804e-14
4.99979e-14
5.52963e-14
5.27751e-14
5.03953e-14
5.66701e-14
6.34007e-14
6.48484e-14
6.16546e-14
5.93585e-14
5.64157e-14
4.61522e-14
3.87208e-14
3.73301e-14
3.42261e-14
3.2204e-14
3.00766e-14
2.87914e-14
2.58197e-14
2.55972e-14
3.1303e-14
3.34768e-14
3.43286e-14
3.18362e-14
3.31882e-14
3.25769e-14
3.59194e-14
3.81245e-14
4.19429e-14
4.13838e-14
3.8959e-14
4.06584e-14
7.54035e-14
9.41615e-14
1.05498e-13
9.57945e-14
8.87132e-14
1.04488e-13
1.11655e-13
1.10353e-13
1.19717e-13
1.25962e-13
1.15924e-13
8.4327e-14
5.48136e-14
2.68106e-14
3.33898e-14
3.31205e-14
2.87855e-14
2.67322e-14
2.71427e-14
2.48727e-14
2.80648e-14
3.20909e-14
3.50305e-14
3.89705e-14
3.89765e-14
3.75467e-14
3.47754e-14
3.28785e-14
3.64033e-14
3.22405e-14
3.03493e-14
2.99689e-14
2.70169e-14
2.5114e-14
3.14513e-14
3.85507e-14
4.05905e-14
4.54564e-14
5.60319e-14
5.48835e-14
6.23121e-14
5.04145e-14
4.27634e-14
4.17606e-14
3.73943e-14
3.54893e-14
3.68142e-14
2.58773e-14
3.30868e-14
5.40731e-14
5.58558e-14
5.20646e-14
3.89861e-14
2.57104e-14
2.45074e-14
3.42071e-14
4.46885e-14
3.01451e-14
1.84265e-14
3.40397e-14
4.87382e-14
4.50317e-14
4.60421e-14
4.84239e-14
4.75477e-14
4.54459e-14
4.64458e-14
4.86952e-14
5.45093e-14
5.91164e-14
5.79882e-14
5.73407e-14
4.68491e-14
3.82346e-14
3.02517e-14
2.55448e-14
2.15698e-14
1.78443e-14
1.9329e-14
2.66341e-14
2.22576e-14
1.81336e-14
2.06376e-14
1.86645e-14
1.85744e-14
2.46138e-14
2.24373e-14
1.46203e-14
2.07538e-14
2.91968e-14
3.14941e-14
2.99374e-14
2.12883e-14
2.65852e-14
6.69668e-14
9.04435e-14
1.04497e-13
1.01985e-13
1.04397e-13
1.18782e-13
1.2617e-13
1.28269e-13
1.36698e-13
1.39339e-13
1.27469e-13
9.8211e-14
5.85101e-14
2.44179e-14
2.37685e-14
2.10857e-14
2.06279e-14
1.87893e-14
2.49797e-14
2.50606e-14
2.50363e-14
2.55513e-14
3.13897e-14
3.287e-14
3.22254e-14
3.2462e-14
3.46753e-14
3.72403e-14
3.36379e-14
3.38816e-14
2.75219e-14
2.59496e-14
2.19876e-14
1.5107e-14
2.25588e-14
3.21388e-14
3.42284e-14
4.02976e-14
4.04813e-14
4.24053e-14
4.29137e-14
3.7861e-14
3.14313e-14
2.65289e-14
1.9303e-14
1.78132e-14
1.78793e-14
1.498e-14
4.22485e-14
6.80044e-14
7.89472e-14
6.32362e-14
2.54231e-14
1.14693e-14
1.84513e-14
7.27383e-15
2.18811e-14
2.13832e-14
1.01498e-14
2.49523e-14
5.09767e-14
5.34434e-14
4.99962e-14
4.52562e-14
4.38941e-14
4.30823e-14
5.16792e-14
5.20739e-14
5.00788e-14
4.95776e-14
4.85182e-14
4.72765e-14
4.06184e-14
3.42935e-14
2.63851e-14
1.12509e-14
8.92762e-15
1.6745e-14
3.10253e-14
4.48984e-14
4.63072e-14
2.83174e-14
8.37763e-15
2.01207e-14
2.446e-14
2.31953e-14
1.09144e-14
7.65325e-15
2.43156e-14
3.08389e-14
3.16888e-14
3.22159e-14
1.83891e-14
1.99191e-14
5.29522e-14
9.2118e-14
1.1332e-13
1.15861e-13
1.21242e-13
1.27286e-13
1.32079e-13
1.39516e-13
1.53751e-13
1.58565e-13
1.47719e-13
1.12714e-13
6.96264e-14
2.97079e-14
1.71179e-14
1.7038e-14
1.73026e-14
1.72513e-14
2.15375e-14
2.30482e-14
2.22114e-14
2.90469e-14
3.47707e-14
3.82785e-14
3.93236e-14
4.91653e-14
5.31854e-14
5.40468e-14
5.19428e-14
5.49706e-14
4.92932e-14
4.01315e-14
3.69985e-14
3.05598e-14
2.91859e-14
3.00527e-14
3.18429e-14
3.17964e-14
2.91057e-14
2.84091e-14
2.74226e-14
2.76107e-14
1.96226e-14
1.25901e-14
9.44979e-15
5.52468e-15
9.83564e-15
1.41393e-14
4.01442e-14
8.00297e-14
9.62391e-14
7.46982e-14
1.95717e-14
3.06241e-14
4.19805e-14
2.40291e-14
8.24952e-15
1.68445e-14
1.15829e-14
1.90882e-14
4.70055e-14
5.33492e-14
5.00711e-14
3.89651e-14
3.66893e-14
3.83155e-14
4.58832e-14
5.79055e-14
4.92878e-14
4.71152e-14
4.16056e-14
3.79409e-14
3.24694e-14
3.31103e-14
2.6688e-14
1.13509e-14
8.45072e-15
1.11429e-14
3.90132e-14
6.21005e-14
6.31536e-14
3.41478e-14
6.86415e-15
3.06331e-14
3.02889e-14
2.49904e-14
1.77153e-14
8.23709e-15
2.99415e-14
2.51758e-14
3.03791e-14
2.95555e-14
1.43705e-14
1.3995e-14
4.72124e-14
8.94893e-14
1.2062e-13
1.23813e-13
1.3294e-13
1.35969e-13
1.31545e-13
1.39961e-13
1.62036e-13
1.68513e-13
1.57595e-13
1.14278e-13
6.80573e-14
2.95185e-14
1.54453e-14
2.65236e-15
4.69159e-15
4.03181e-15
4.82479e-15
6.08011e-15
1.38094e-14
2.29167e-14
3.19646e-14
4.048e-14
4.28661e-14
5.27613e-14
5.77728e-14
5.9176e-14
6.06498e-14
7.29234e-14
5.42198e-14
4.13003e-14
3.65403e-14
3.18496e-14
2.94459e-14
2.83788e-14
2.8646e-14
2.41708e-14
2.31842e-14
2.23159e-14
2.23437e-14
2.66233e-14
2.08587e-14
1.40903e-14
1.14908e-14
1.16673e-14
8.44435e-15
1.15546e-14
3.74826e-14
6.23255e-14
6.75875e-14
5.08758e-14
1.74511e-14
1.77934e-14
2.64164e-14
1.54274e-14
1.1478e-14
1.4008e-14
1.10766e-14
1.15589e-14
3.00578e-14
3.35095e-14
2.878e-14
1.70576e-14
1.7653e-14
1.99375e-14
2.44293e-14
3.25938e-14
3.3478e-14
2.99539e-14
2.6073e-14
2.20557e-14
1.88709e-14
1.60148e-14
1.44207e-14
6.74028e-15
1.66966e-14
2.28526e-14
3.94467e-14
4.92485e-14
4.71198e-14
3.01982e-14
5.81503e-15
1.84037e-14
2.41929e-14
2.43888e-14
1.72767e-14
1.42061e-14
1.16148e-14
1.48687e-14
1.90628e-14
1.294e-14
5.57703e-15
1.4665e-14
4.18001e-14
7.44084e-14
9.7957e-14
1.0202e-13
1.07886e-13
1.12329e-13
1.10588e-13
1.16864e-13
1.2864e-13
1.36692e-13
1.22646e-13
9.13277e-14
5.59523e-14
3.0665e-14
1.14763e-14
5.83738e-15
8.41819e-15
1.1413e-14
1.33945e-14
9.5661e-15
1.18042e-14
1.60314e-14
2.88681e-14
4.17239e-14
5.19516e-14
5.87757e-14
6.61385e-14
6.39876e-14
6.25332e-14
6.24349e-14
4.95968e-14
3.96627e-14
3.76342e-14
2.98198e-14
2.50688e-14
2.34649e-14
2.15209e-14
2.00784e-14
1.91152e-14
1.80273e-14
1.82765e-14
1.94931e-14
1.9207e-14
1.5035e-14
1.03599e-14
7.12967e-15
9.87286e-15
3.57958e-14
3.3075e-14
4.50866e-14
5.60757e-14
5.85229e-14
4.32534e-14
2.7562e-14
3.32187e-14
3.4506e-14
3.33175e-14
3.01922e-14
2.96963e-14
3.12698e-14
2.67032e-14
2.28825e-14
2.67327e-14
3.08319e-14
3.52009e-14
2.97922e-14
2.83655e-14
2.19131e-14
2.67934e-14
2.56093e-14
3.08922e-14
3.0265e-14
2.44643e-14
2.33694e-14
2.433e-14
2.77033e-14
3.43342e-14
4.00918e-14
4.2497e-14
4.62715e-14
4.82381e-14
4.56177e-14
3.67777e-14
2.30704e-14
1.82733e-14
2.46033e-14
2.88786e-14
3.53758e-14
3.70352e-14
3.76637e-14
3.44482e-14
3.07007e-14
2.86524e-14
2.83749e-14
3.06431e-14
5.00862e-14
6.73556e-14
7.87389e-14
7.67245e-14
8.0419e-14
8.43122e-14
8.5078e-14
8.51097e-14
8.99161e-14
9.70578e-14
8.54311e-14
6.62788e-14
5.49438e-14
3.98835e-14
2.91898e-14
3.00905e-14
2.38533e-14
2.10152e-14
2.52405e-14
2.36609e-14
2.22437e-14
2.08251e-14
3.2784e-14
4.9922e-14
6.27685e-14
7.02434e-14
7.35831e-14
7.3426e-14
7.07396e-14
6.32292e-14
5.60563e-14
4.60588e-14
4.09595e-14
3.16338e-14
2.81749e-14
3.14387e-14
2.95731e-14
2.5967e-14
2.25323e-14
2.11627e-14
2.461e-14
2.6096e-14
2.27479e-14
2.36814e-14
1.99563e-14
2.02326e-14
2.61946e-14
4.28263e-14
4.32422e-14
5.8003e-14
6.13065e-14
5.21314e-14
4.30747e-14
4.38445e-14
4.57094e-14
4.44169e-14
4.03612e-14
4.29041e-14
4.1355e-14
4.70857e-14
5.06937e-14
5.47394e-14
5.62581e-14
6.33117e-14
7.39833e-14
6.65356e-14
6.35688e-14
6.17589e-14
6.24148e-14
5.57421e-14
5.13544e-14
5.12823e-14
5.02132e-14
5.28675e-14
5.18091e-14
5.3692e-14
5.62287e-14
5.86172e-14
5.82362e-14
5.73441e-14
5.16775e-14
4.86778e-14
4.83117e-14
3.84621e-14
2.99233e-14
3.17671e-14
4.46684e-14
4.79709e-14
5.00015e-14
5.1675e-14
4.95254e-14
4.73337e-14
4.76958e-14
4.58581e-14
5.04856e-14
5.44643e-14
5.76056e-14
6.20152e-14
6.50027e-14
6.32908e-14
6.41133e-14
6.34761e-14
6.70195e-14
7.13611e-14
7.36971e-14
7.21067e-14
6.55925e-14
5.24913e-14
5.03135e-14
3.61781e-14
3.49626e-14
3.31304e-14
3.99374e-14
4.40575e-14
3.75488e-14
3.37449e-14
2.37446e-14
3.63969e-14
5.47261e-14
7.31422e-14
7.84622e-14
8.67287e-14
7.3224e-14
7.17734e-14
6.24065e-14
4.77399e-14
4.52342e-14
5.47669e-14
4.63351e-14
4.2488e-14
3.90987e-14
3.63439e-14
3.19331e-14
3.2981e-14
3.20507e-14
3.68153e-14
3.27098e-14
3.25968e-14
3.4219e-14
3.23027e-14
2.61503e-14
2.60534e-14
1.93877e-14
2.4009e-14
2.90104e-14
2.93946e-14
3.46129e-14
3.91499e-14
4.52614e-14
4.6522e-14
3.65392e-14
2.89753e-14
3.11572e-14
2.69929e-14
2.90166e-14
3.07847e-14
3.48067e-14
4.4822e-14
5.30584e-14
5.96329e-14
6.87753e-14
7.50937e-14
8.38746e-14
9.01248e-14
9.1391e-14
9.13337e-14
9.40762e-14
8.96395e-14
8.46199e-14
7.83577e-14
7.248e-14
7.11988e-14
7.15633e-14
7.17524e-14
6.98173e-14
7.05115e-14
6.90564e-14
6.46817e-14
5.70052e-14
4.77266e-14
3.94267e-14
3.53754e-14
2.5256e-14
2.66779e-14
3.16364e-14
4.30176e-14
4.59947e-14
5.19716e-14
5.39671e-14
5.44714e-14
5.57211e-14
4.95115e-14
4.1853e-14
3.98881e-14
3.75906e-14
3.65494e-14
3.54897e-14
3.33935e-14
2.82996e-14
3.25459e-14
2.85176e-14
3.53085e-14
4.16095e-14
4.8745e-14
5.16323e-14
5.08352e-14
4.16331e-14
3.72415e-14
2.52879e-14
1.91616e-14
2.39244e-14
3.28647e-14
3.13811e-14
2.83319e-14
2.72573e-14
1.97955e-14
2.38093e-14
3.773e-14
5.43484e-14
6.13539e-14
6.81702e-14
6.51732e-14
6.28854e-14
5.93993e-14
4.1325e-14
2.97274e-14
3.55235e-14
3.35654e-14
3.08908e-14
2.28688e-14
2.15842e-14
1.92769e-14
2.08825e-14
1.94443e-14
1.99045e-14
1.77538e-14
1.93651e-14
1.75088e-14
1.50735e-14
1.07234e-14
7.34052e-15
3.7247e-14
3.9433e-14
3.64773e-14
3.26306e-14
3.14882e-14
3.24559e-14
3.32515e-14
3.96091e-14
4.08566e-14
3.86704e-14
3.69448e-14
3.31326e-14
3.67742e-14
4.10169e-14
5.10597e-14
7.05183e-14
8.55348e-14
9.11664e-14
9.91265e-14
1.06695e-13
1.15571e-13
1.2241e-13
1.21653e-13
1.24683e-13
1.27531e-13
1.28972e-13
1.23493e-13
1.1632e-13
1.1203e-13
1.11328e-13
1.09674e-13
1.06509e-13
1.05768e-13
1.03044e-13
9.29131e-14
7.46916e-14
5.35841e-14
3.98558e-14
2.78199e-14
1.56306e-14
5.1509e-15
2.093e-14
2.932e-14
4.28925e-14
5.51993e-14
6.25311e-14
6.54988e-14
6.82012e-14
6.76827e-14
5.84836e-14
4.22164e-14
2.69803e-14
2.24147e-14
1.38581e-14
1.12046e-14
5.89897e-15
7.50527e-15
1.04969e-14
9.94916e-15
3.01324e-15
1.36208e-14
2.41388e-14
2.73699e-14
2.91968e-14
2.51501e-14
1.58321e-14
9.32305e-15
2.45298e-14
3.85022e-14
4.80752e-14
4.2969e-14
3.53882e-14
2.4144e-14
1.62795e-14
9.81169e-15
1.23644e-14
2.12728e-14
3.18401e-14
4.10144e-14
4.41913e-14
4.52198e-14
4.13378e-14
3.21501e-14
1.65325e-14
8.03144e-15
7.53511e-15
9.23068e-15
8.71417e-15
8.56169e-15
1.09194e-14
1.37336e-14
1.23446e-14
1.46301e-14
1.30275e-14
1.65006e-14
1.61253e-14
1.14046e-14
1.37934e-14
1.51686e-14
5.09489e-14
5.32316e-14
4.62468e-14
3.62534e-14
3.16503e-14
2.9477e-14
3.29108e-14
3.92281e-14
4.18197e-14
4.33744e-14
4.03778e-14
3.87744e-14
4.10305e-14
4.51237e-14
6.04345e-14
8.15202e-14
1.00489e-13
1.0214e-13
1.08223e-13
1.13445e-13
1.22573e-13
1.27505e-13
1.2868e-13
1.33058e-13
1.3537e-13
1.38557e-13
1.33599e-13
1.29594e-13
1.26198e-13
1.25383e-13
1.25872e-13
1.23279e-13
1.24248e-13
1.20508e-13
1.04542e-13
8.15151e-14
5.79468e-14
4.69503e-14
3.58668e-14
2.65656e-14
2.78883e-14
3.65861e-14
4.21511e-14
5.45464e-14
6.43977e-14
7.07599e-14
7.57425e-14
8.08744e-14
7.86502e-14
7.0847e-14
5.559e-14
4.17165e-14
3.17225e-14
2.73161e-14
2.85116e-14
3.2041e-14
3.18619e-14
3.32143e-14
3.22382e-14
3.74672e-14
3.88021e-14
3.92547e-14
4.06668e-14
3.85877e-14
3.79896e-14
3.16576e-14
3.39441e-14
4.59222e-14
5.58605e-14
6.75713e-14
5.87842e-14
5.35163e-14
4.46229e-14
3.3588e-14
2.75066e-14
2.18922e-14
2.84207e-14
3.78043e-14
4.42075e-14
5.2978e-14
5.29781e-14
4.97216e-14
4.27657e-14
3.6186e-14
3.51082e-14
3.6379e-14
3.28934e-14
3.41888e-14
3.78145e-14
3.57638e-14
3.58286e-14
3.74227e-14
3.94626e-14
3.79608e-14
3.89967e-14
4.20082e-14
4.07661e-14
4.20617e-14
4.14903e-14
4.11979e-14
4.22088e-14
3.72527e-14
3.42756e-14
3.69866e-14
3.70755e-14
4.2328e-14
4.84731e-14
4.70899e-14
4.35115e-14
3.54938e-14
3.64986e-14
3.36604e-14
3.27446e-14
3.45589e-14
3.73952e-14
3.79762e-14
3.80143e-14
3.77629e-14
4.29145e-14
4.69997e-14
5.65195e-14
7.84551e-14
9.86035e-14
1.09065e-13
1.174e-13
1.20248e-13
1.25794e-13
1.30828e-13
1.32192e-13
1.34143e-13
1.35029e-13
1.38255e-13
1.40582e-13
1.41758e-13
1.42304e-13
1.42365e-13
1.41326e-13
1.43881e-13
1.38684e-13
1.28788e-13
1.10473e-13
8.60146e-14
6.53591e-14
4.5825e-14
2.50812e-14
2.71697e-14
2.89867e-14
4.20673e-14
5.47267e-14
6.95799e-14
7.46182e-14
8.33925e-14
8.5817e-14
8.83662e-14
8.91898e-14
8.13343e-14
6.6859e-14
5.09642e-14
3.88759e-14
3.22747e-14
3.23425e-14
3.59044e-14
3.47413e-14
3.7983e-14
3.86527e-14
4.20067e-14
4.4888e-14
4.72266e-14
4.62314e-14
4.46804e-14
4.269e-14
4.16987e-14
4.96048e-14
5.13265e-14
5.81261e-14
6.60251e-14
6.26773e-14
5.73959e-14
4.94015e-14
4.19112e-14
3.39568e-14
3.02287e-14
2.78619e-14
3.19413e-14
4.29123e-14
4.50218e-14
4.86797e-14
5.03176e-14
4.26981e-14
4.59469e-14
4.30514e-14
3.94449e-14
4.2392e-14
4.22095e-14
4.2113e-14
3.78652e-14
3.69043e-14
3.76036e-14
4.01167e-14
4.3988e-14
4.56573e-14
4.57851e-14
5.11001e-14
4.8856e-14
4.71789e-14
3.49767e-14
3.69831e-14
3.61834e-14
3.46111e-14
3.57482e-14
3.51118e-14
3.47405e-14
3.23589e-14
2.92292e-14
2.27309e-14
2.49387e-14
2.14955e-14
1.92929e-14
1.96629e-14
2.48136e-14
3.19436e-14
3.22638e-14
2.80371e-14
3.12407e-14
3.11078e-14
3.67522e-14
5.1585e-14
7.47532e-14
9.44132e-14
1.09037e-13
1.15422e-13
1.18811e-13
1.24847e-13
1.30026e-13
1.31367e-13
1.32094e-13
1.35114e-13
1.35104e-13
1.42087e-13
1.4748e-13
1.49824e-13
1.52159e-13
1.52397e-13
1.52525e-13
1.45245e-13
1.29424e-13
1.0359e-13
7.14953e-14
4.64038e-14
2.832e-14
1.67663e-14
1.45944e-14
3.17392e-14
4.14876e-14
5.54542e-14
6.32228e-14
7.28247e-14
8.38715e-14
8.83131e-14
8.67479e-14
9.20843e-14
7.91906e-14
5.57415e-14
3.66766e-14
3.30351e-14
2.64508e-14
2.47992e-14
2.00393e-14
1.89811e-14
1.92984e-14
1.85874e-14
1.89956e-14
2.09934e-14
2.21187e-14
2.08893e-14
1.58802e-14
1.30982e-14
9.04809e-15
1.98822e-14
3.57549e-14
4.62908e-14
5.01544e-14
5.09151e-14
4.75202e-14
3.80934e-14
2.9767e-14
2.28278e-14
1.87277e-14
1.23779e-14
1.30057e-14
1.1459e-14
1.77745e-14
2.0367e-14
1.74686e-14
1.47335e-14
1.21385e-14
3.39446e-15
4.50991e-15
6.24808e-15
1.04123e-14
1.00649e-14
7.87359e-15
6.02046e-15
2.29147e-15
4.12159e-15
8.62923e-15
1.06595e-14
9.31424e-15
1.29185e-14
1.08903e-14
1.4353e-14
5.86935e-14
6.25796e-14
6.65879e-14
6.87011e-14
7.12008e-14
6.55297e-14
5.64112e-14
4.92186e-14
4.26911e-14
4.45448e-14
4.42343e-14
4.06463e-14
3.80618e-14
3.60067e-14
4.20023e-14
4.4303e-14
4.50815e-14
4.75557e-14
5.18213e-14
4.99286e-14
5.03169e-14
6.4105e-14
8.42763e-14
9.22334e-14
1.06513e-13
1.16543e-13
1.17511e-13
1.2345e-13
1.2513e-13
1.24737e-13
1.32257e-13
1.32257e-13
1.34633e-13
1.51384e-13
1.58978e-13
1.63163e-13
1.65957e-13
1.6754e-13
1.65609e-13
1.53259e-13
1.32267e-13
1.02021e-13
7.22383e-14
5.00571e-14
4.34843e-14
4.49909e-14
4.43733e-14
5.95424e-14
6.58042e-14
7.3627e-14
7.91836e-14
9.11977e-14
1.01471e-13
9.96381e-14
1.03576e-13
1.09951e-13
9.7738e-14
7.36058e-14
5.9671e-14
5.07323e-14
4.6357e-14
4.64479e-14
4.56949e-14
4.21527e-14
4.58394e-14
4.0084e-14
4.20035e-14
4.38331e-14
3.80931e-14
3.35985e-14
2.55709e-14
2.96474e-14
3.45001e-14
4.36286e-14
5.59884e-14
6.21594e-14
6.26744e-14
5.79187e-14
5.33314e-14
5.01786e-14
4.21046e-14
4.0706e-14
4.12489e-14
3.90903e-14
4.11797e-14
4.00716e-14
3.90311e-14
3.95969e-14
3.81089e-14
3.63183e-14
3.61454e-14
3.2332e-14
3.27735e-14
3.35156e-14
3.08541e-14
3.24446e-14
3.31463e-14
3.29268e-14
3.30371e-14
3.12666e-14
2.63488e-14
2.30566e-14
2.1275e-14
2.78783e-14
3.5864e-14
4.28618e-14
4.19293e-14
4.8018e-14
5.09296e-14
5.11398e-14
4.98101e-14
4.91907e-14
4.63914e-14
3.89442e-14
3.82078e-14
3.71466e-14
4.00743e-14
3.6267e-14
3.07784e-14
2.6005e-14
2.75874e-14
2.57225e-14
2.29097e-14
2.71721e-14
3.10146e-14
2.84749e-14
3.54179e-14
4.62799e-14
5.49132e-14
7.08793e-14
8.50412e-14
9.82452e-14
1.06822e-13
1.02698e-13
1.02258e-13
1.01471e-13
1.04944e-13
1.06628e-13
1.08072e-13
1.13256e-13
1.21867e-13
1.30316e-13
1.37196e-13
1.40925e-13
1.39227e-13
1.38865e-13
1.25969e-13
1.04967e-13
7.64216e-14
5.13233e-14
3.91136e-14
4.05471e-14
4.14502e-14
4.69915e-14
5.39381e-14
6.35784e-14
7.43051e-14
8.52661e-14
9.20486e-14
1.00735e-13
1.03765e-13
1.08416e-13
1.06383e-13
9.36704e-14
7.38129e-14
6.03752e-14
5.79488e-14
5.15624e-14
4.67491e-14
4.68909e-14
4.42418e-14
4.33057e-14
4.14045e-14
4.02338e-14
4.17508e-14
4.00104e-14
3.31902e-14
2.74155e-14
2.22146e-14
2.4603e-14
3.03579e-14
4.13566e-14
4.82936e-14
5.07318e-14
4.66569e-14
3.99718e-14
3.59571e-14
3.57194e-14
3.01084e-14
2.42659e-14
2.67936e-14
2.54532e-14
2.9207e-14
2.65197e-14
2.94022e-14
2.98924e-14
2.82779e-14
3.2299e-14
2.97625e-14
2.9631e-14
3.16317e-14
3.37167e-14
3.25451e-14
3.37718e-14
3.15798e-14
3.12592e-14
3.11012e-14
2.76187e-14
2.18263e-14
1.46792e-14
1.69389e-14
2.52616e-14
3.11999e-14
1.45998e-14
2.19897e-14
2.55853e-14
2.60561e-14
2.36013e-14
2.00513e-14
1.02864e-14
1.48898e-14
3.03211e-14
4.6071e-14
5.4195e-14
5.39357e-14
5.10701e-14
4.63933e-14
4.01485e-14
3.15888e-14
2.03956e-14
9.5872e-15
1.20544e-14
2.28611e-14
3.18461e-14
4.0008e-14
5.07987e-14
6.10515e-14
6.63123e-14
7.40778e-14
7.68628e-14
7.17593e-14
6.65079e-14
6.5029e-14
6.66507e-14
6.72007e-14
6.88928e-14
7.38771e-14
8.22609e-14
8.90389e-14
9.4593e-14
9.90428e-14
9.78196e-14
9.27458e-14
7.67694e-14
5.32436e-14
2.52178e-14
1.34394e-14
1.62239e-14
1.76401e-14
2.55179e-14
3.33412e-14
4.34707e-14
5.59462e-14
7.08038e-14
8.52727e-14
9.37363e-14
1.00539e-13
1.015e-13
1.02165e-13
1.01042e-13
9.58326e-14
8.8277e-14
8.50981e-14
8.48931e-14
8.17587e-14
7.85714e-14
7.24633e-14
7.11402e-14
6.85265e-14
6.64138e-14
6.03597e-14
5.46361e-14
4.19085e-14
2.95201e-14
1.99411e-14
1.39057e-14
1.07106e-14
1.15586e-14
1.39641e-14
1.51073e-14
1.70778e-14
1.58965e-14
1.30011e-14
1.13006e-14
9.21584e-15
1.40046e-14
1.6969e-14
1.86248e-14
1.94176e-14
2.0164e-14
2.36531e-14
2.49644e-14
2.53212e-14
3.03636e-14
2.87043e-14
3.37024e-14
3.86747e-14
3.7928e-14
3.27801e-14
3.10872e-14
2.63188e-14
2.6089e-14
2.30102e-14
2.26192e-14
2.24019e-14
1.98744e-14
2.37586e-14
2.34246e-14
3.49231e-14
4.57709e-14
5.50661e-14
5.19721e-14
4.39528e-14
4.46757e-14
3.71288e-14
3.54544e-14
3.31293e-14
4.76075e-14
5.57106e-14
6.38621e-14
8.33214e-14
9.22111e-14
9.22937e-14
8.66506e-14
7.67252e-14
6.55255e-14
6.11756e-14
5.32027e-14
4.22511e-14
4.46249e-14
5.42e-14
5.96251e-14
6.55319e-14
6.43776e-14
6.74115e-14
6.43828e-14
5.781e-14
5.6385e-14
5.46197e-14
5.90214e-14
6.40689e-14
6.64513e-14
6.7227e-14
6.6478e-14
6.39076e-14
6.25961e-14
7.0016e-14
7.09172e-14
6.60401e-14
6.2395e-14
6.64651e-14
5.82843e-14
4.19233e-14
5.27228e-14
6.32109e-14
6.37359e-14
5.9356e-14
6.27853e-14
6.18447e-14
6.89004e-14
7.1282e-14
8.29136e-14
9.77959e-14
1.10236e-13
1.16042e-13
1.15651e-13
1.17891e-13
1.16206e-13
1.17183e-13
1.18673e-13
1.23366e-13
1.21213e-13
1.21826e-13
1.17105e-13
1.11238e-13
1.08354e-13
1.03605e-13
1.02996e-13
9.67128e-14
8.77717e-14
7.29098e-14
5.96119e-14
4.76016e-14
4.93037e-14
4.87095e-14
4.87134e-14
4.92881e-14
4.86448e-14
4.83963e-14
4.0473e-14
3.67662e-14
4.29029e-14
5.11294e-14
5.07585e-14
5.61602e-14
5.57872e-14
5.94446e-14
5.81927e-14
6.12699e-14
5.73041e-14
5.84615e-14
6.27891e-14
7.46971e-14
7.70971e-14
7.81128e-14
7.17505e-14
6.46455e-14
4.90239e-14
4.66467e-14
4.17465e-14
4.71612e-14
5.38014e-14
6.29603e-14
5.95508e-14
6.13486e-14
4.91543e-14
5.4011e-14
6.39459e-14
7.22255e-14
7.44284e-14
7.01457e-14
7.05959e-14
6.65319e-14
6.13946e-14
5.99966e-14
6.87427e-14
6.99071e-14
8.44652e-14
1.00074e-13
1.1719e-13
1.16579e-13
1.05861e-13
8.66431e-14
7.50079e-14
7.64414e-14
7.18622e-14
5.8543e-14
6.26947e-14
6.52458e-14
7.11662e-14
7.93521e-14
7.93254e-14
7.64889e-14
7.13384e-14
6.41792e-14
6.80964e-14
6.84135e-14
7.15063e-14
7.17087e-14
6.95122e-14
7.1993e-14
6.96376e-14
6.55839e-14
6.59746e-14
6.75674e-14
6.76449e-14
7.08547e-14
6.94987e-14
6.55106e-14
6.73207e-14
6.86797e-14
7.81914e-14
8.32225e-14
8.72438e-14
8.01279e-14
8.2874e-14
8.48742e-14
9.09765e-14
9.03771e-14
9.72877e-14
1.10117e-13
1.19972e-13
1.2069e-13
1.27208e-13
1.22602e-13
1.18425e-13
1.18591e-13
1.31849e-13
1.478e-13
1.44799e-13
1.46403e-13
1.32986e-13
1.29652e-13
1.265e-13
1.22211e-13
1.2027e-13
1.15573e-13
1.01947e-13
8.6969e-14
7.36836e-14
6.74752e-14
6.84219e-14
6.74387e-14
6.65012e-14
6.94988e-14
7.22741e-14
7.68638e-14
7.37323e-14
6.5477e-14
6.97385e-14
7.52981e-14
7.44993e-14
8.06902e-14
8.36005e-14
8.78585e-14
8.81851e-14
8.93592e-14
8.38295e-14
8.51317e-14
9.11003e-14
1.04197e-13
1.04381e-13
1.04049e-13
9.3561e-14
8.03538e-14
7.31173e-14
7.24136e-14
6.83017e-14
7.63601e-14
8.6486e-14
9.04158e-14
8.72465e-14
8.99959e-14
8.36075e-14
8.23402e-14
8.7777e-14
4.30247e-14
4.52924e-14
4.89849e-14
4.51105e-14
4.99776e-14
4.98075e-14
4.76693e-14
4.35579e-14
5.04396e-14
6.33779e-14
7.1224e-14
7.74877e-14
7.54605e-14
6.47703e-14
4.59022e-14
3.4542e-14
3.02008e-14
3.12274e-14
2.70402e-14
2.37231e-14
3.18242e-14
4.19634e-14
4.85672e-14
5.50638e-14
5.34282e-14
5.42068e-14
5.95617e-14
5.70569e-14
4.4789e-14
4.03396e-14
3.80294e-14
3.99245e-14
3.79285e-14
3.54844e-14
3.83142e-14
4.20428e-14
3.6234e-14
3.45303e-14
3.96057e-14
4.23565e-14
3.49578e-14
3.43958e-14
4.28537e-14
4.45491e-14
4.52416e-14
4.64236e-14
4.87531e-14
4.64218e-14
5.70748e-14
6.24862e-14
7.43367e-14
8.6501e-14
9.66667e-14
9.96369e-14
1.01016e-13
1.073e-13
1.0385e-13
1.01623e-13
1.02175e-13
1.04762e-13
1.09447e-13
1.11015e-13
1.12114e-13
1.1355e-13
1.14544e-13
1.09588e-13
1.09032e-13
1.05643e-13
1.06303e-13
9.91595e-14
8.20502e-14
6.15383e-14
5.4377e-14
4.52605e-14
4.13611e-14
3.66591e-14
3.65132e-14
3.73569e-14
4.21654e-14
4.98473e-14
5.17115e-14
5.4212e-14
5.10481e-14
5.60508e-14
5.5545e-14
6.15163e-14
6.30826e-14
6.76747e-14
6.65418e-14
6.92831e-14
6.67147e-14
6.82026e-14
6.62878e-14
6.60169e-14
6.16939e-14
5.99848e-14
5.30313e-14
6.02754e-14
6.76217e-14
7.00397e-14
7.06163e-14
6.93212e-14
5.94905e-14
6.56503e-14
6.6283e-14
7.33443e-14
7.19392e-14
7.55253e-14
2.00847e-14
2.09448e-14
2.25703e-14
2.51713e-14
2.60106e-14
3.2226e-14
3.43779e-14
4.81972e-14
5.16969e-14
5.37515e-14
5.63707e-14
4.95577e-14
4.26986e-14
3.65605e-14
2.9718e-14
2.67236e-14
3.10766e-14
2.87805e-14
2.81901e-14
3.45471e-14
3.4662e-14
3.78664e-14
4.39957e-14
4.86043e-14
5.39017e-14
6.0198e-14
5.84524e-14
4.78304e-14
4.24942e-14
3.40014e-14
3.04508e-14
2.625e-14
2.36223e-14
2.42824e-14
2.08031e-14
1.73025e-14
2.20505e-14
2.18517e-14
1.94227e-14
1.92494e-14
2.008e-14
2.3161e-14
2.19775e-14
2.30333e-14
2.0241e-14
2.50208e-14
2.18252e-14
2.27747e-14
3.30224e-14
5.07e-14
6.41633e-14
7.55694e-14
8.32226e-14
8.63274e-14
8.97134e-14
9.21403e-14
9.23712e-14
9.01741e-14
8.81799e-14
8.8475e-14
8.95151e-14
9.13087e-14
9.42752e-14
9.54218e-14
9.55237e-14
9.52192e-14
9.47099e-14
9.47948e-14
9.49831e-14
9.19495e-14
8.14103e-14
6.87298e-14
5.69371e-14
5.29421e-14
4.57215e-14
3.95456e-14
3.54412e-14
2.96626e-14
2.19532e-14
2.23574e-14
2.03028e-14
2.30816e-14
2.63213e-14
2.80163e-14
3.25588e-14
3.76778e-14
3.95585e-14
4.2839e-14
4.3236e-14
3.75522e-14
3.25549e-14
3.34562e-14
3.14925e-14
2.81773e-14
2.51193e-14
1.76676e-14
1.90015e-14
2.65937e-14
2.81643e-14
3.24392e-14
3.17903e-14
2.61944e-14
1.52831e-14
1.64117e-14
1.5175e-14
1.39318e-14
8.03406e-15
7.06282e-15
3.98562e-14
4.10965e-14
4.63087e-14
4.36421e-14
4.15571e-14
4.39463e-14
4.20046e-14
4.83106e-14
4.74464e-14
5.10852e-14
5.32359e-14
5.31897e-14
5.44113e-14
5.06595e-14
4.76167e-14
4.71356e-14
4.64768e-14
4.33755e-14
4.2005e-14
3.76643e-14
4.71009e-14
5.42464e-14
5.39917e-14
5.29023e-14
5.43977e-14
5.14551e-14
5.74557e-14
5.27288e-14
4.80695e-14
4.51745e-14
4.87404e-14
5.12773e-14
4.96234e-14
4.90412e-14
4.80317e-14
4.92885e-14
5.13852e-14
4.77205e-14
4.51794e-14
4.77445e-14
4.60325e-14
4.68525e-14
4.39193e-14
4.16671e-14
3.86146e-14
3.5713e-14
3.28858e-14
3.38067e-14
4.49336e-14
5.5711e-14
6.78924e-14
7.95887e-14
8.58868e-14
8.57651e-14
8.78329e-14
9.26765e-14
9.0017e-14
8.39589e-14
8.16551e-14
8.08123e-14
7.94347e-14
7.80323e-14
8.57947e-14
9.20767e-14
9.59523e-14
9.5936e-14
9.45167e-14
9.62246e-14
9.92491e-14
9.55109e-14
9.42093e-14
8.80268e-14
7.97871e-14
6.808e-14
6.42455e-14
5.46301e-14
4.6088e-14
4.6224e-14
4.57134e-14
4.41222e-14
4.38225e-14
4.16665e-14
4.53234e-14
4.64679e-14
4.53618e-14
4.86969e-14
5.11743e-14
5.09589e-14
5.52435e-14
5.58637e-14
4.71491e-14
4.78678e-14
4.7639e-14
4.60301e-14
4.025e-14
4.00246e-14
4.38207e-14
5.00525e-14
5.0322e-14
4.91746e-14
4.34711e-14
4.34066e-14
4.22493e-14
3.59789e-14
3.29082e-14
2.96561e-14
2.85491e-14
2.60677e-14
2.73563e-14
2.53122e-14
2.1937e-14
1.71705e-14
1.70026e-14
1.41288e-14
1.49067e-14
1.99701e-14
2.05373e-14
2.34096e-14
2.39433e-14
2.04517e-14
1.54997e-14
1.18579e-14
1.16356e-14
1.02084e-14
1.18243e-14
1.45792e-14
1.6448e-14
1.97472e-14
2.36825e-14
3.10392e-14
3.57705e-14
3.86984e-14
4.01917e-14
4.01879e-14
3.97841e-14
3.52775e-14
2.69516e-14
1.9149e-14
1.26623e-14
1.22213e-14
9.0197e-15
1.03063e-14
7.61919e-15
6.34163e-15
5.67881e-15
9.63647e-15
6.14834e-15
6.74436e-15
5.39408e-15
5.48249e-15
5.92158e-15
7.0876e-15
7.89331e-15
1.0869e-14
1.86192e-14
2.62247e-14
3.4502e-14
4.59098e-14
5.58149e-14
6.33041e-14
6.61406e-14
6.57718e-14
6.55881e-14
6.43908e-14
6.30424e-14
5.93513e-14
5.72999e-14
5.68256e-14
5.68853e-14
5.82724e-14
6.24082e-14
6.65244e-14
6.9611e-14
7.21074e-14
7.43719e-14
7.56427e-14
7.57546e-14
7.46886e-14
7.24658e-14
6.5169e-14
5.77837e-14
4.75909e-14
4.1842e-14
3.05034e-14
1.73078e-14
1.0532e-14
3.38445e-15
3.73815e-15
6.17316e-15
5.91475e-15
4.73076e-15
8.30901e-15
9.99292e-15
1.01803e-14
1.28725e-14
1.33622e-14
1.20634e-14
1.69707e-14
1.60218e-14
1.53857e-14
1.73797e-14
1.84225e-14
2.27257e-14
2.30942e-14
2.71397e-14
3.41087e-14
3.7176e-14
3.8232e-14
3.80545e-14
3.58441e-14
3.19392e-14
2.52494e-14
1.86942e-14
1.9856e-14
2.01278e-14
1.88343e-14
9.37286e-14
9.26648e-14
8.92861e-14
8.18986e-14
7.50244e-14
6.56984e-14
6.06451e-14
5.83757e-14
5.64638e-14
5.27292e-14
5.47225e-14
5.27739e-14
5.26305e-14
5.33039e-14
5.60348e-14
5.53903e-14
5.84862e-14
6.00082e-14
6.30513e-14
6.30441e-14
6.90385e-14
6.97828e-14
7.326e-14
7.46615e-14
7.40783e-14
7.31219e-14
7.10943e-14
6.64233e-14
6.48973e-14
6.10577e-14
6.3606e-14
6.1481e-14
6.22378e-14
6.49871e-14
6.51959e-14