/*--------------------------------*- C++ -*----------------------------------*\
| =========                 |                                                 |
| \\      /  F ield         | OpenFOAM: The Open Source CFD Toolbox           |
|  \\    /   O peration     | Version:  2406                                  |
|   \\  /    A nd           | Website:  www.openfoam.com                      |
|    \\/     M anipulation  |                                                 |
\*---------------------------------------------------------------------------*/
FoamFile
{
    version     2.0;
    format      ascii;
    arch        "LSB;label=32;scalar=64";
    class       volVectorField;
    location    "0.085";
    object      U;
}
// * * * * * * * * * * * * * * * * * * * * * * * * * * * * * * * * * * * * * //

dimensions      [0 1 -1 0 0 0 0];

internalField   nonuniform List<vector> 
13946
(
(1.72714e-12 -1.01704e-12 1.63534e-11)
(1.83351e-12 -1.15342e-12 1.33236e-11)
(1.26128e-12 -1.0891e-12 1.22941e-11)
(1.01802e-12 -1.43895e-12 1.08023e-11)
(2.72154e-12 -6.43092e-13 9.45426e-12)
(2.79747e-12 1.53818e-12 7.23956e-12)
(7.43233e-13 7.66956e-13 6.54832e-12)
(7.15503e-13 8.12599e-13 6.52642e-12)
(1.71802e-14 7.67722e-13 2.63428e-12)
(8.18422e-13 2.99444e-12 3.99373e-13)
(7.68312e-13 2.90908e-12 -3.51903e-12)
(-2.55051e-12 1.70219e-12 -6.38402e-12)
(-3.44538e-12 -6.98932e-13 -7.29091e-12)
(-2.04091e-12 -1.19085e-12 -8.43163e-12)
(-1.65997e-12 -8.14271e-13 -1.09823e-11)
(3.7681e-13 -9.55787e-14 -1.27751e-11)
(6.34423e-14 1.64905e-12 -1.33446e-11)
(-1.00687e-12 7.68333e-13 -1.45733e-11)
(-6.31554e-13 9.529e-13 -1.5844e-11)
(-1.59565e-12 1.60151e-12 -1.64338e-11)
(-2.40526e-12 9.19017e-13 -1.68217e-11)
(-1.64592e-12 2.20204e-12 -1.69091e-11)
(-4.4418e-13 3.42579e-12 -1.67979e-11)
(-5.3982e-13 4.27724e-12 -1.70647e-11)
(-1.91382e-13 3.1726e-12 -1.83962e-11)
(-7.39618e-13 3.23994e-12 -1.44254e-11)
(-2.32724e-12 2.45706e-12 -1.18666e-11)
(-2.36665e-12 3.69919e-12 -1.27335e-11)
(-3.84445e-13 4.34808e-12 -1.15651e-11)
(-1.73738e-12 3.58367e-12 -6.43136e-12)
(-2.04538e-13 2.14292e-12 -4.65745e-12)
(3.22499e-12 3.19899e-12 -3.84803e-12)
(9.57804e-13 3.39381e-12 -2.73576e-12)
(-6.81342e-13 4.40183e-12 -3.09473e-12)
(3.04905e-14 3.78298e-12 -4.94242e-12)
(3.98968e-13 4.35888e-12 -4.14319e-12)
(1.55439e-12 4.11018e-12 -1.70795e-12)
(3.05138e-12 4.21996e-12 1.56743e-12)
(5.63469e-13 5.12213e-12 3.94735e-12)
(-3.01797e-13 3.39915e-12 4.88106e-12)
(1.90659e-12 4.00605e-12 3.52336e-12)
(2.44505e-12 3.75205e-12 7.10952e-12)
(4.33867e-12 4.51217e-12 5.6792e-12)
(5.75101e-12 2.46253e-12 3.50122e-12)
(3.53908e-12 2.4373e-12 -1.18728e-12)
(3.18775e-12 2.31646e-12 -8.05659e-12)
(3.81212e-12 2.71553e-12 -1.2886e-11)
(2.73831e-12 4.78022e-12 -1.30257e-11)
(5.63799e-13 3.70923e-12 -1.68295e-11)
(6.64538e-13 3.93681e-12 -2.19006e-11)
(1.23375e-12 6.39147e-12 -2.45798e-11)
(-1.79461e-12 6.6905e-12 -2.8222e-11)
(-3.59161e-12 6.38623e-12 -2.74958e-11)
(-2.80868e-12 5.84201e-12 -2.92208e-11)
(-1.70316e-12 4.90022e-12 -2.74178e-11)
(-2.58989e-13 4.36507e-12 -2.55865e-11)
(8.9459e-13 6.71997e-12 -2.29873e-11)
(-1.04187e-12 6.17342e-12 -1.77925e-11)
(-2.69962e-12 6.41981e-12 -7.64807e-12)
(-2.37981e-12 4.96662e-12 3.54055e-12)
(5.1855e-13 4.05357e-12 8.40201e-12)
(-4.63979e-13 2.63612e-12 1.02318e-11)
(-1.69534e-12 2.00501e-12 6.8841e-12)
(3.35791e-13 2.04903e-12 4.74427e-12)
(-4.74603e-13 1.76212e-12 1.30852e-12)
(-2.57229e-12 2.39659e-12 -8.69008e-13)
(-3.11497e-12 1.47796e-12 -1.27634e-12)
(-1.71125e-12 1.64146e-12 -9.85526e-13)
(-2.52774e-12 1.9362e-12 4.72027e-13)
(-1.98189e-12 2.68608e-12 -8.09028e-13)
(-2.15091e-13 1.05354e-12 -8.21654e-13)
(-1.23191e-12 -4.82368e-13 2.16042e-13)
(-2.32502e-12 -7.28304e-14 -5.39288e-13)
(-1.24912e-12 8.33921e-13 -1.53834e-12)
(1.44311e-12 8.6657e-13 -4.53416e-12)
(1.87964e-12 1.06932e-12 -2.0494e-12)
(-2.57192e-13 1.06255e-12 -6.3757e-13)
(4.08255e-13 1.88641e-12 -1.23625e-12)
(1.73174e-12 1.81576e-12 1.85266e-12)
(2.37583e-13 2.82641e-12 5.86106e-12)
(1.17554e-13 5.00218e-12 -4.74424e-13)
(8.83539e-13 3.33067e-12 -4.59353e-12)
(-6.76972e-13 2.80692e-12 -4.58794e-12)
(-6.01834e-13 4.58509e-12 -7.71504e-12)
(-7.66505e-14 3.48206e-12 -1.10642e-11)
(1.79886e-13 2.97687e-12 -1.30659e-11)
(2.48291e-12 2.68812e-12 -1.3512e-11)
(2.39081e-12 2.73861e-12 -1.25116e-11)
(3.78964e-13 9.95554e-13 -1.22462e-11)
(1.1567e-12 2.60668e-12 -1.01632e-11)
(2.85527e-12 -6.85166e-13 -6.2287e-12)
(1.80048e-12 -8.17272e-13 -5.85794e-13)
(9.80878e-13 -3.10415e-12 1.22188e-11)
(8.11331e-13 -2.90616e-12 1.17355e-11)
(1.04318e-12 -3.0347e-12 1.20949e-11)
(6.76941e-13 -2.86901e-12 1.22493e-11)
(2.29315e-12 -1.15643e-12 1.07035e-11)
(3.04837e-12 -6.84251e-13 8.34208e-12)
(6.28959e-13 -6.70896e-13 9.15067e-12)
(-4.54472e-13 -3.26732e-15 9.55711e-12)
(7.01473e-13 1.09215e-12 7.89581e-12)
(6.43267e-13 -3.11682e-13 3.75672e-12)
(3.96312e-13 1.21939e-12 -2.84193e-12)
(-2.03995e-12 8.71022e-13 -7.4428e-12)
(-2.98953e-12 -6.53498e-13 -9.55151e-12)
(-1.76453e-12 -1.0761e-12 -1.0258e-11)
(-1.19498e-12 -7.25978e-13 -1.19393e-11)
(-2.98515e-13 -1.87414e-12 -1.25894e-11)
(-3.23138e-13 -7.06282e-13 -1.362e-11)
(-9.50648e-13 -1.8712e-12 -1.41127e-11)
(-1.37515e-12 -9.7425e-13 -1.52221e-11)
(-8.23893e-13 -7.044e-15 -1.71999e-11)
(-4.88404e-13 -5.16397e-13 -1.8373e-11)
(-1.0872e-13 -1.67684e-12 -1.80549e-11)
(-5.89151e-13 -2.46149e-12 -1.83188e-11)
(-1.46642e-12 -7.62994e-13 -1.74437e-11)
(-2.34602e-12 5.83971e-13 -1.60402e-11)
(-1.72018e-12 1.66304e-12 -1.37217e-11)
(-6.64739e-13 9.86356e-13 -1.21519e-11)
(-1.49423e-12 -5.1657e-13 -1.20418e-11)
(-1.42892e-12 2.92228e-13 -1.12997e-11)
(-1.53725e-12 1.8483e-12 -7.87852e-12)
(6.84553e-13 8.74338e-13 -4.06016e-12)
(2.67542e-12 5.5596e-13 -2.41475e-12)
(1.41148e-12 1.24158e-12 -1.43261e-12)
(1.84224e-13 3.98427e-13 -1.17964e-12)
(-2.82751e-13 5.41613e-13 -2.03663e-13)
(-2.23138e-13 1.48304e-12 -2.62806e-13)
(2.20763e-13 2.04936e-12 8.04266e-13)
(1.24749e-12 3.00502e-12 1.37494e-12)
(1.59037e-12 3.56373e-12 1.99066e-12)
(1.22772e-12 2.17695e-12 3.2992e-12)
(2.89646e-12 1.41498e-12 3.99617e-12)
(3.61049e-12 1.00003e-12 5.74749e-12)
(4.47988e-12 1.42009e-13 6.02911e-12)
(4.77646e-12 4.93666e-13 4.69426e-12)
(3.48663e-12 9.80944e-13 2.09657e-13)
(2.84328e-12 -2.27959e-13 -7.66362e-12)
(1.93135e-12 2.08781e-12 -1.57403e-11)
(2.13199e-12 4.5434e-12 -2.0975e-11)
(8.90062e-13 4.38807e-12 -2.45488e-11)
(4.15038e-13 3.08243e-12 -2.77344e-11)
(6.41654e-13 3.40762e-12 -2.80141e-11)
(3.69635e-13 3.88429e-12 -2.89076e-11)
(-9.40013e-13 1.45985e-12 -2.86621e-11)
(-2.08978e-12 -1.27243e-12 -2.92667e-11)
(-2.56883e-12 -2.16426e-13 -3.03101e-11)
(-1.7667e-12 1.26449e-12 -3.11481e-11)
(-1.05108e-12 2.473e-12 -2.93264e-11)
(-1.09492e-12 2.3048e-12 -2.1056e-11)
(-3.55005e-12 2.52776e-12 -9.84547e-12)
(-1.53913e-12 4.03132e-12 2.29082e-13)
(4.6953e-13 7.43882e-13 6.18044e-12)
(2.36886e-14 6.84419e-13 8.38249e-12)
(-1.06281e-12 -1.80819e-12 6.90207e-12)
(-1.59613e-12 9.41516e-13 3.47237e-12)
(-6.99461e-13 8.58596e-13 9.88947e-13)
(-8.00928e-13 -1.14324e-14 -7.63278e-13)
(-1.71479e-12 -2.23281e-12 -3.522e-13)
(-2.50701e-12 -1.95623e-12 -1.80377e-12)
(-3.18668e-12 -2.92963e-13 -1.90388e-12)
(-2.5507e-12 8.28258e-13 -2.45432e-12)
(-3.90605e-13 1.09042e-12 -2.93977e-12)
(2.72525e-13 -5.57295e-13 -2.62161e-12)
(-4.61382e-14 -2.46459e-12 -2.78262e-12)
(3.64802e-13 -3.99348e-12 -2.85145e-12)
(3.69323e-13 -4.11064e-12 -3.67559e-12)
(-6.86265e-14 -1.56774e-12 -3.422e-12)
(-1.06115e-12 -5.10744e-13 -4.29195e-12)
(-4.94839e-13 -1.99052e-13 -3.58085e-12)
(9.29437e-13 8.87771e-13 -1.70575e-12)
(6.11792e-13 4.22891e-13 7.81317e-13)
(1.19249e-12 3.60677e-13 -2.65666e-12)
(1.22277e-12 -1.07175e-12 -7.19414e-12)
(-1.00783e-12 -3.88688e-13 -9.19777e-12)
(-1.5906e-12 6.72761e-13 -1.03068e-11)
(-7.9269e-13 2.52332e-12 -1.26632e-11)
(8.17157e-13 1.47925e-12 -1.44626e-11)
(3.25318e-12 5.85659e-13 -1.47718e-11)
(4.49582e-12 8.60195e-14 -1.27435e-11)
(2.20911e-12 -2.45862e-12 -1.10183e-11)
(1.76867e-12 -1.38118e-12 -8.64016e-12)
(1.47466e-12 -3.37039e-12 -4.29474e-12)
(-1.19724e-13 -2.57324e-12 5.1269e-13)
(7.04566e-13 -1.11063e-11 1.08901e-11)
(7.99308e-13 -9.40989e-12 1.22114e-11)
(1.05563e-12 -1.18014e-11 1.32885e-11)
(3.65376e-13 -1.12372e-11 1.37092e-11)
(2.16105e-12 -9.03337e-12 1.07457e-11)
(3.65047e-12 -8.98224e-12 7.47855e-12)
(9.65389e-13 -8.09267e-12 9.31159e-12)
(-5.64739e-13 -8.94963e-12 1.17923e-11)
(-6.40582e-13 -8.70965e-12 1.16416e-11)
(6.87752e-13 -9.43059e-12 5.87765e-12)
(1.14553e-12 -7.75586e-12 -3.35388e-12)
(-1.26616e-12 -8.26591e-12 -8.05644e-12)
(-1.9695e-12 -6.81516e-12 -1.0999e-11)
(-2.30839e-12 -8.04347e-12 -1.10575e-11)
(-1.05857e-12 -6.80364e-12 -1.24598e-11)
(-6.18834e-13 -7.62048e-12 -1.15737e-11)
(-1.22184e-12 -9.14122e-12 -1.32325e-11)
(-8.81641e-13 -1.09786e-11 -1.39775e-11)
(-1.32224e-12 -9.83143e-12 -1.46179e-11)
(-1.03199e-12 -9.72154e-12 -1.6914e-11)
(-2.60039e-13 -8.68979e-12 -1.87281e-11)
(5.48017e-14 -8.33528e-12 -1.89508e-11)
(-1.0822e-12 -8.72259e-12 -1.9335e-11)
(-2.5045e-12 -8.19852e-12 -1.82907e-11)
(-2.54659e-12 -8.69583e-12 -1.59504e-11)
(-1.72705e-12 -7.35504e-12 -1.35098e-11)
(-6.44095e-13 -7.83319e-12 -1.18977e-11)
(-1.63215e-12 -8.27229e-12 -1.21226e-11)
(-1.48027e-12 -8.40762e-12 -1.17398e-11)
(-1.22378e-12 -6.7722e-12 -8.28267e-12)
(4.99167e-13 -6.41134e-12 -2.86374e-12)
(2.70876e-12 -5.61372e-12 -6.15089e-13)
(1.36992e-12 -6.77149e-12 -1.2716e-13)
(7.50124e-13 -6.48819e-12 1.60324e-12)
(3.50729e-13 -5.72888e-12 3.30752e-12)
(-3.66295e-13 -6.23779e-12 2.29955e-12)
(4.63287e-13 -7.10939e-12 1.65348e-12)
(1.15943e-12 -5.99114e-12 1.7813e-13)
(1.2717e-12 -5.45242e-12 -2.191e-13)
(6.71652e-13 -6.35636e-12 1.1181e-12)
(3.30697e-12 -7.89658e-12 3.70621e-12)
(3.93725e-12 -8.61874e-12 6.75759e-12)
(5.18117e-12 -8.56929e-12 6.70486e-12)
(5.37536e-12 -8.4776e-12 5.29709e-12)
(3.40707e-12 -8.23659e-12 6.66737e-13)
(2.62511e-12 -9.01984e-12 -8.27472e-12)
(8.72398e-13 -7.47619e-12 -1.79664e-11)
(1.29575e-12 -7.92219e-12 -2.51037e-11)
(1.01351e-12 -5.24184e-12 -2.95429e-11)
(1.13022e-13 -5.61063e-12 -3.08235e-11)
(4.43604e-13 -6.25328e-12 -3.00591e-11)
(8.70826e-13 -4.49602e-12 -3.08779e-11)
(5.25554e-13 -4.91284e-12 -3.13267e-11)
(-1.61278e-12 -6.60896e-12 -3.16912e-11)
(-3.13443e-12 -7.49056e-12 -3.34815e-11)
(-2.06059e-12 -6.20375e-12 -3.68355e-11)
(1.40033e-13 -4.60624e-12 -3.56611e-11)
(-9.00072e-13 -5.04319e-12 -2.40515e-11)
(-3.79457e-12 -5.39152e-12 -1.23997e-11)
(-8.42947e-13 -3.55236e-12 -3.12823e-12)
(1.64101e-13 -6.67617e-12 4.7786e-12)
(9.97015e-13 -8.22805e-12 8.25632e-12)
(-1.18493e-12 -9.21691e-12 6.68358e-12)
(-1.98349e-12 -6.96265e-12 2.65012e-12)
(1.8247e-13 -6.2982e-12 1.18377e-12)
(-7.53032e-13 -6.49054e-12 -7.32183e-13)
(-2.08468e-12 -7.99258e-12 -7.3312e-13)
(-2.59255e-12 -8.69825e-12 -2.59539e-12)
(-3.43224e-12 -8.37711e-12 -2.7204e-12)
(-2.47403e-12 -7.12556e-12 -4.54176e-12)
(3.9095e-14 -7.87242e-12 -4.85792e-12)
(6.39714e-13 -9.57482e-12 -4.55758e-12)
(7.95615e-13 -1.04623e-11 -3.91007e-12)
(1.03778e-12 -9.46107e-12 -3.85746e-12)
(4.65248e-13 -1.05248e-11 -4.35479e-12)
(-3.66487e-13 -7.53596e-12 -4.66532e-12)
(-1.40094e-12 -9.01812e-12 -5.79744e-12)
(-1.18587e-12 -7.75173e-12 -4.71576e-12)
(8.47215e-13 -7.87367e-12 -2.8257e-12)
(4.06366e-13 -8.553e-12 -4.28376e-13)
(7.65394e-13 -8.38458e-12 -3.77254e-12)
(1.28009e-12 -9.48256e-12 -8.19713e-12)
(-1.21336e-12 -8.91113e-12 -1.02534e-11)
(-1.42264e-12 -5.78655e-12 -1.04287e-11)
(-8.75492e-14 -6.88969e-12 -1.32584e-11)
(1.16743e-12 -6.04733e-12 -1.50602e-11)
(3.08825e-12 -8.08433e-12 -1.51581e-11)
(5.33436e-12 -9.01312e-12 -1.28294e-11)
(2.59325e-12 -9.32945e-12 -1.06429e-11)
(1.20622e-12 -8.90656e-12 -7.23847e-12)
(1.97472e-12 -1.04543e-11 -3.33075e-12)
(4.19269e-13 -1.03603e-11 1.34685e-12)
(3.39069e-12 -1.2954e-11 4.23507e-12)
(-6.37778e-13 -1.13363e-11 9.49989e-12)
(1.20282e-12 -1.1876e-11 1.32499e-11)
(2.30327e-12 -1.12753e-11 1.51485e-11)
(-1.44165e-12 -1.14006e-11 1.55426e-11)
(1.55826e-12 -1.25704e-11 1.13716e-11)
(2.57864e-12 -1.26704e-11 7.88933e-12)
(8.0623e-13 -1.1475e-11 8.66446e-12)
(8.4255e-13 -1.23052e-11 1.53304e-11)
(4.04756e-13 -1.20486e-11 1.75651e-11)
(-2.24031e-13 -1.08548e-11 8.96444e-12)
(6.44696e-13 -1.09246e-11 -1.2758e-12)
(-3.19576e-12 -1.26644e-11 -8.75852e-12)
(-2.9136e-12 -9.98699e-12 -1.35594e-11)
(-2.60666e-12 -1.0805e-11 -1.27836e-11)
(-2.54777e-12 -1.17464e-11 -1.24621e-11)
(6.54498e-13 -1.17852e-11 -1.24867e-11)
(2.48528e-12 -1.33729e-11 -1.32709e-11)
(-2.21287e-13 -1.20649e-11 -1.35402e-11)
(-1.81352e-12 -1.1946e-11 -1.24078e-11)
(-1.1266e-12 -1.28478e-11 -1.45931e-11)
(-1.80785e-12 -1.32067e-11 -1.72353e-11)
(2.03797e-14 -1.20003e-11 -1.87793e-11)
(-2.63965e-13 -1.01181e-11 -1.86147e-11)
(-1.58807e-12 -8.69013e-12 -1.83874e-11)
(-1.94157e-12 -1.06749e-11 -1.60678e-11)
(-1.03576e-12 -8.9521e-12 -1.3052e-11)
(-4.2166e-13 -8.00955e-12 -1.06181e-11)
(-1.44633e-12 -8.54386e-12 -9.46012e-12)
(-2.06639e-12 -7.99509e-12 -8.37615e-12)
(-3.30497e-12 -8.78978e-12 -5.85692e-12)
(-5.98339e-13 -1.03149e-11 -2.85659e-13)
(2.86608e-12 -9.10318e-12 2.61158e-12)
(2.02962e-12 -7.82663e-12 3.65517e-12)
(-2.83358e-14 -8.01936e-12 3.61573e-12)
(3.99875e-14 -9.635e-12 4.78473e-12)
(9.02415e-13 -1.09692e-11 3.34983e-12)
(6.62729e-13 -1.17778e-11 -1.57967e-13)
(4.26756e-13 -1.07831e-11 -1.80221e-12)
(1.9096e-12 -1.12422e-11 -2.3083e-13)
(2.59841e-12 -1.07234e-11 -1.89646e-12)
(4.64027e-12 -1.11752e-11 2.44169e-12)
(4.00941e-12 -1.06222e-11 6.53882e-12)
(5.06411e-12 -1.13066e-11 7.36795e-12)
(4.86903e-12 -1.19219e-11 6.03581e-12)
(2.27246e-12 -1.3157e-11 9.95032e-13)
(1.19019e-12 -1.08185e-11 -8.76259e-12)
(2.04561e-12 -1.27159e-11 -2.24862e-11)
(-8.17433e-14 -1.2068e-11 -3.00253e-11)
(-1.10385e-12 -8.89662e-12 -3.51299e-11)
(1.32079e-12 -8.0498e-12 -3.18945e-11)
(-3.70121e-13 -7.389e-12 -2.95763e-11)
(-1.02997e-12 -7.66915e-12 -3.5065e-11)
(9.27736e-13 -7.50696e-12 -3.7619e-11)
(4.21374e-13 -7.51226e-12 -3.71704e-11)
(-2.43827e-12 -8.19104e-12 -4.0245e-11)
(-4.44271e-12 -8.6456e-12 -4.21832e-11)
(-3.28156e-14 -8.53089e-12 -3.89148e-11)
(1.60651e-13 -6.76949e-12 -2.8178e-11)
(-3.94769e-12 -9.50955e-12 -1.57745e-11)
(-5.53157e-13 -8.41554e-12 -3.7105e-12)
(2.97848e-12 -1.01665e-11 4.40941e-12)
(2.37202e-12 -7.84717e-12 7.89639e-12)
(-1.71596e-12 -7.71045e-12 5.9554e-12)
(-3.67638e-12 -8.29025e-12 1.46805e-12)
(-1.31331e-12 -9.23206e-12 -2.35768e-13)
(4.38085e-13 -8.28007e-12 -2.07709e-12)
(-1.74344e-13 -9.14861e-12 -3.04889e-12)
(-2.46955e-12 -9.16142e-12 -5.62117e-12)
(-4.15529e-12 -9.7826e-12 -5.65378e-12)
(-2.02266e-12 -1.11891e-11 -7.07656e-12)
(2.12272e-12 -1.19888e-11 -5.58418e-12)
(1.49557e-12 -1.06615e-11 -7.11306e-12)
(-7.13542e-13 -9.53084e-12 -7.17509e-12)
(9.26283e-14 -9.24862e-12 -6.4904e-12)
(-8.71827e-13 -1.03408e-11 -6.98713e-12)
(-7.65605e-13 -9.6543e-12 -5.38263e-12)
(1.10378e-13 -9.86929e-12 -3.37183e-12)
(-5.9253e-13 -9.26691e-12 -4.45505e-12)
(9.57023e-13 -8.90256e-12 -2.45657e-12)
(-6.64076e-14 -8.42085e-12 -1.89085e-12)
(9.76103e-13 -9.02381e-12 -5.86902e-12)
(1.00865e-12 -8.71286e-12 -9.92932e-12)
(-3.28942e-12 -8.06083e-12 -1.08991e-11)
(-2.52927e-12 -8.70713e-12 -1.27211e-11)
(-4.24076e-13 -1.14765e-11 -1.54567e-11)
(1.95236e-12 -1.16848e-11 -1.46768e-11)
(5.84614e-12 -1.19244e-11 -1.67991e-11)
(5.1891e-12 -1.09581e-11 -1.23762e-11)
(9.53062e-13 -1.1221e-11 -9.44245e-12)
(2.02289e-12 -1.29588e-11 -5.82621e-12)
(3.09501e-12 -1.22909e-11 -2.12271e-12)
(2.52838e-13 -1.21932e-11 1.15127e-13)
(1.23454e-12 -1.24872e-11 1.61626e-12)
(2.50333e-12 -8.50973e-12 6.36335e-13)
(-5.37194e-13 -5.64464e-12 9.85613e-12)
(4.2549e-13 -8.18149e-12 1.66796e-11)
(1.9015e-12 -5.58845e-12 1.82654e-11)
(1.58124e-13 -7.10767e-12 1.64197e-11)
(2.23246e-12 -8.57395e-12 1.00505e-11)
(2.13488e-12 -7.01005e-12 4.93677e-12)
(6.136e-13 -7.05103e-12 4.5653e-12)
(6.71816e-13 -6.91898e-12 9.48019e-12)
(-1.03738e-12 -6.93747e-12 1.36623e-11)
(-4.69262e-13 -6.31562e-12 8.19864e-12)
(1.55967e-12 -6.10454e-12 -6.34848e-13)
(-3.14356e-12 -6.68366e-12 -9.07168e-12)
(-2.58798e-12 -8.05916e-12 -1.44534e-11)
(-1.82893e-12 -6.10925e-12 -1.41008e-11)
(-1.52027e-12 -7.96821e-12 -1.35854e-11)
(8.18795e-14 -9.98535e-12 -1.33127e-11)
(7.61042e-14 -8.97865e-12 -1.36524e-11)
(-9.54754e-13 -6.62477e-12 -1.41112e-11)
(-1.3437e-12 -5.59843e-12 -1.48872e-11)
(-6.86795e-13 -5.37564e-12 -1.5833e-11)
(-5.73244e-13 -7.62408e-12 -1.71016e-11)
(-8.42096e-13 -7.44303e-12 -1.88849e-11)
(-2.2512e-12 -5.05254e-12 -1.91454e-11)
(-2.34315e-12 -3.58529e-12 -1.92348e-11)
(-2.4035e-12 -3.67295e-12 -1.54904e-11)
(-1.69416e-12 -2.54923e-12 -1.27784e-11)
(-4.82488e-13 -9.1836e-13 -1.03445e-11)
(-8.51882e-13 -1.76797e-12 -8.55665e-12)
(-8.45749e-13 -1.78976e-12 -7.14356e-12)
(-7.13439e-13 -4.56259e-12 -4.03493e-12)
(-2.03327e-14 -5.82417e-12 3.19434e-12)
(5.93688e-14 -4.66394e-12 7.87561e-12)
(9.99745e-13 -2.01155e-12 7.31187e-12)
(2.8135e-12 -3.45986e-12 4.35313e-12)
(1.05956e-12 -6.50779e-12 2.61312e-12)
(5.28605e-13 -6.33858e-12 -8.28575e-13)
(3.62338e-13 -6.0459e-12 -2.01563e-12)
(8.18428e-13 -7.67242e-12 -3.46649e-12)
(1.3777e-12 -7.54964e-12 -7.50167e-13)
(1.18286e-12 -4.87566e-12 2.72448e-13)
(3.93399e-12 -4.23671e-12 4.17666e-12)
(4.04834e-12 -4.48362e-12 8.01169e-12)
(5.43759e-12 -4.4636e-12 8.22524e-12)
(5.65971e-12 -5.36603e-12 6.71007e-12)
(2.43569e-12 -6.55864e-12 2.13915e-12)
(1.69835e-12 -4.97592e-12 -7.47188e-12)
(2.10585e-12 -9.04067e-12 -2.1059e-11)
(-6.26694e-13 -5.59643e-12 -3.05678e-11)
(-1.31858e-12 -5.19652e-12 -3.55094e-11)
(-9.85287e-13 -3.81649e-12 -3.48263e-11)
(-2.12859e-13 -3.93446e-12 -3.56605e-11)
(2.25382e-13 -5.4383e-12 -4.04567e-11)
(2.25586e-13 -5.12807e-12 -4.30551e-11)
(-1.1806e-12 -3.52903e-12 -4.39243e-11)
(-1.69338e-12 -2.1471e-12 -4.68984e-11)
(-1.91882e-12 -3.47802e-12 -4.77208e-11)
(-5.75445e-13 -4.57572e-12 -4.35631e-11)
(4.60423e-13 -4.05813e-12 -3.35036e-11)
(-2.20723e-12 -6.3367e-12 -1.89552e-11)
(8.23649e-13 -5.47921e-12 -6.30224e-12)
(2.39885e-13 -7.78865e-12 2.44991e-12)
(9.56563e-13 -4.26449e-12 5.78009e-12)
(-1.07295e-12 -4.23441e-12 5.58333e-12)
(-2.42373e-12 -5.35846e-12 2.66612e-12)
(-1.20583e-12 -8.49304e-12 -3.31893e-13)
(5.70797e-14 -7.97143e-12 -3.25985e-12)
(-5.25591e-13 -6.309e-12 -5.82672e-12)
(-2.36521e-12 -5.10848e-12 -6.73917e-12)
(-2.98644e-12 -6.19902e-12 -8.30804e-12)
(-1.08081e-12 -6.82216e-12 -8.93838e-12)
(9.52535e-13 -5.89087e-12 -9.32952e-12)
(-2.22404e-13 -4.35037e-12 -1.02704e-11)
(-8.23389e-13 -2.92362e-12 -1.15231e-11)
(1.17594e-12 -3.4634e-12 -1.22644e-11)
(6.19918e-13 -3.56168e-12 -1.09803e-11)
(-5.50187e-13 -5.6412e-12 -1.01713e-11)
(-1.30458e-12 -3.32414e-12 -8.75828e-12)
(-1.59999e-12 -3.66092e-12 -7.97291e-12)
(4.37932e-13 -2.75905e-12 -7.021e-12)
(5.85389e-15 -1.28448e-12 -5.03032e-12)
(9.89893e-13 -2.10702e-12 -7.39489e-12)
(4.18356e-13 -2.1749e-12 -1.08206e-11)
(-1.98978e-12 -3.32574e-12 -1.11063e-11)
(-1.86145e-13 -6.39577e-12 -1.22821e-11)
(1.78777e-12 -7.1096e-12 -1.18237e-11)
(1.71321e-12 -8.03427e-12 -1.20371e-11)
(2.91992e-12 -6.62477e-12 -1.28486e-11)
(4.09829e-12 -5.06523e-12 -1.12626e-11)
(2.95324e-12 -5.96884e-12 -8.50471e-12)
(1.79834e-12 -7.31076e-12 -5.14189e-12)
(1.67675e-12 -6.08585e-12 -2.03895e-12)
(6.82154e-13 -6.08316e-12 -7.54814e-14)
(1.79575e-12 -5.83258e-12 7.14831e-13)
(1.83181e-12 -4.75357e-12 7.42238e-13)
(2.03647e-13 -5.03235e-12 1.36178e-11)
(1.97858e-12 -4.036e-12 2.29343e-11)
(2.0396e-12 -2.51503e-12 2.69374e-11)
(-1.63521e-13 -3.87981e-12 2.13823e-11)
(1.40512e-12 -3.895e-12 7.6935e-12)
(1.46225e-12 -1.17571e-12 -3.46637e-12)
(-1.98338e-13 -2.23219e-12 -5.93184e-12)
(1.07293e-12 -2.2214e-12 -4.03705e-13)
(8.55414e-14 -2.59042e-12 7.05895e-12)
(-6.88456e-13 -4.0353e-12 6.10288e-12)
(8.44618e-13 -2.176e-12 2.59205e-12)
(-7.73793e-13 -3.11683e-12 -7.95116e-12)
(-3.05088e-12 -4.44799e-12 -1.66679e-11)
(-3.23317e-12 -3.1718e-12 -1.77994e-11)
(-8.19181e-13 -3.4719e-12 -1.68075e-11)
(5.21268e-13 -5.00853e-12 -1.47152e-11)
(-1.63451e-12 -4.22008e-12 -1.439e-11)
(-3.78178e-12 -2.4782e-12 -1.40986e-11)
(-2.55709e-12 -2.17674e-12 -1.74399e-11)
(2.84643e-13 5.59442e-13 -1.78849e-11)
(-8.88206e-14 -2.03065e-12 -1.70899e-11)
(-2.39968e-12 -2.45198e-12 -1.6689e-11)
(-3.36653e-12 -2.70316e-12 -1.61053e-11)
(-2.34412e-12 -3.07032e-12 -1.57813e-11)
(-2.11844e-12 -8.4312e-13 -1.37716e-11)
(-2.93806e-12 -1.03466e-12 -1.13664e-11)
(-7.1318e-13 2.49518e-12 -8.68833e-12)
(3.40151e-13 1.04473e-12 -3.70715e-12)
(3.13289e-13 -2.67977e-12 -1.4608e-12)
(-6.70352e-13 -4.66327e-12 3.30461e-12)
(-9.10015e-13 -2.00309e-12 1.04328e-11)
(-1.31992e-13 1.04974e-12 1.53936e-11)
(3.53862e-13 -5.46504e-13 1.59008e-11)
(2.91866e-12 -1.70904e-12 9.12503e-12)
(1.91575e-12 -2.02468e-12 -7.20938e-13)
(7.74267e-13 -1.12429e-12 -6.77869e-12)
(1.65373e-12 -2.89705e-12 -7.7158e-12)
(1.58257e-12 -4.0816e-12 -6.66177e-12)
(7.45462e-13 -9.50703e-13 -3.55099e-12)
(8.59933e-13 1.76593e-12 1.7492e-12)
(3.96239e-12 6.96457e-13 7.3242e-12)
(4.14724e-12 -1.08696e-12 9.69232e-12)
(5.56635e-12 -4.00767e-13 9.35166e-12)
(6.53612e-12 -2.63884e-12 8.53773e-12)
(2.17161e-12 -3.14781e-12 5.03128e-12)
(1.71558e-12 -5.11949e-12 -4.20812e-12)
(5.47804e-13 -4.84981e-12 -1.75311e-11)
(-2.32083e-12 -2.3083e-12 -3.1488e-11)
(-1.83165e-12 -3.55107e-13 -3.88992e-11)
(2.82512e-13 -2.05729e-12 -3.9763e-11)
(1.40948e-12 -2.54924e-14 -4.16426e-11)
(5.77805e-13 -2.79495e-13 -4.37388e-11)
(1.22188e-12 -4.26908e-12 -4.5173e-11)
(-2.76335e-12 -4.84823e-12 -4.76208e-11)
(-3.80003e-12 -1.25201e-12 -5.26872e-11)
(-1.93995e-12 -8.40978e-13 -5.44522e-11)
(1.42422e-13 -2.03063e-12 -5.07248e-11)
(1.07804e-12 -4.41252e-12 -3.84685e-11)
(-3.68857e-12 -5.99195e-12 -2.28702e-11)
(4.9913e-14 -5.28444e-13 -1.01957e-11)
(1.51661e-12 -5.10647e-12 -2.49627e-12)
(7.39423e-13 -5.48722e-12 1.90495e-12)
(-7.96024e-13 -4.9333e-12 3.22292e-12)
(-1.32929e-12 -5.76647e-12 3.60202e-13)
(-3.72606e-13 -7.35415e-12 -7.4999e-13)
(-8.74183e-13 -7.45658e-12 -2.52481e-12)
(-2.0051e-12 -5.6534e-12 -4.72075e-12)
(-1.96573e-12 -5.06812e-12 -8.37244e-12)
(-2.61451e-12 -5.38268e-12 -1.03431e-11)
(-2.60488e-12 -2.6127e-12 -1.2627e-11)
(-1.20378e-13 -3.42614e-13 -1.35092e-11)
(-2.15577e-13 -2.94664e-12 -1.6636e-11)
(-1.38202e-12 -2.57973e-12 -1.80421e-11)
(1.07528e-12 -4.23569e-12 -1.80525e-11)
(4.21236e-13 -3.43537e-12 -1.75121e-11)
(-1.173e-12 -1.02609e-12 -1.8827e-11)
(-1.06372e-12 -2.47721e-12 -1.67244e-11)
(-1.78804e-12 -4.298e-12 -1.29824e-11)
(-2.54527e-12 -1.61711e-12 -1.23523e-11)
(-1.45775e-12 -8.65679e-13 -1.03646e-11)
(1.0073e-12 -2.42167e-14 -9.97939e-12)
(2.36372e-12 -1.30772e-12 -9.96851e-12)
(9.19726e-13 -2.00846e-12 -1.0718e-11)
(6.23313e-13 -3.35998e-12 -1.03792e-11)
(1.90049e-12 -1.46839e-12 -9.70997e-12)
(1.8071e-12 -2.11229e-12 -9.35909e-12)
(2.85319e-12 1.46098e-13 -8.9807e-12)
(4.01495e-12 -9.99583e-13 -8.53924e-12)
(2.29453e-12 -1.45762e-12 -6.17142e-12)
(1.83494e-12 -1.60132e-12 -3.57628e-12)
(2.36068e-12 -1.07947e-12 -1.95155e-12)
(9.82519e-13 -8.62547e-13 -1.37676e-12)
(1.65113e-12 -2.06847e-12 -2.10254e-12)
(4.67441e-12 -1.31104e-12 -2.06375e-13)
(2.92566e-13 -2.24996e-12 1.36083e-11)
(-1.04997e-12 -1.54905e-12 2.74396e-11)
(2.49972e-12 2.92014e-13 3.2978e-11)
(1.95713e-12 -1.78109e-12 2.55343e-11)
(-1.91464e-14 -1.8771e-12 6.45882e-12)
(-2.29851e-13 -2.77859e-13 -1.05182e-11)
(5.94096e-13 -8.88693e-13 -1.43875e-11)
(1.16823e-12 -5.87998e-13 -8.15371e-12)
(1.06006e-12 -4.72383e-13 2.58664e-12)
(-5.73215e-13 -1.75219e-12 5.48745e-12)
(3.39728e-14 -9.47217e-13 3.86614e-12)
(4.44614e-13 -1.11481e-12 -6.44921e-12)
(-3.59717e-12 -2.02998e-12 -1.56171e-11)
(-2.34471e-12 -3.2938e-12 -1.78828e-11)
(6.63776e-13 -2.84537e-12 -1.69578e-11)
(8.36855e-13 4.03174e-13 -1.33587e-11)
(-3.41046e-12 1.16017e-12 -1.20832e-11)
(-3.74827e-12 2.65439e-12 -1.23407e-11)
(-3.9263e-12 1.83477e-12 -1.51612e-11)
(-1.26206e-13 3.14431e-12 -1.96497e-11)
(1.58809e-12 3.98481e-12 -1.63863e-11)
(-1.93265e-12 4.16036e-12 -1.55284e-11)
(-3.51083e-12 3.56695e-12 -1.33938e-11)
(-3.14485e-12 2.35625e-12 -1.24327e-11)
(-3.22335e-12 2.72328e-12 -1.03299e-11)
(-4.81939e-12 2.47593e-12 -1.0006e-11)
(-1.66895e-12 3.0354e-12 -8.49241e-12)
(2.22302e-12 3.10893e-12 7.80776e-13)
(2.36431e-12 9.31537e-13 1.40595e-12)
(-4.35911e-13 -3.03599e-14 3.80439e-12)
(-3.43286e-12 1.38878e-13 1.29598e-11)
(-1.12394e-12 1.10996e-12 2.12832e-11)
(2.26145e-12 2.19994e-12 2.14731e-11)
(3.8595e-12 1.66514e-13 1.10813e-11)
(4.09737e-13 1.66468e-12 -1.62038e-12)
(1.25123e-12 3.31563e-13 -1.04476e-11)
(3.11045e-12 5.16852e-13 -9.92017e-12)
(-2.65597e-13 4.00863e-13 -8.57482e-12)
(-3.18685e-12 2.53395e-12 -4.52638e-12)
(7.73444e-13 2.48836e-12 1.106e-12)
(6.11789e-12 2.82497e-12 7.77632e-12)
(4.77167e-12 2.19435e-12 6.87557e-12)
(6.37932e-12 1.22847e-12 8.17268e-12)
(7.88022e-12 6.07356e-13 6.37977e-12)
(3.74979e-12 7.67518e-13 3.12092e-12)
(1.64523e-12 -1.52467e-12 -4.25449e-12)
(5.35256e-14 8.04854e-13 -1.62051e-11)
(-5.0376e-12 5.88008e-13 -3.03332e-11)
(-7.60874e-13 -5.04082e-13 -4.14428e-11)
(1.17183e-13 -3.64343e-12 -4.23937e-11)
(-7.68738e-13 -1.05798e-12 -4.5668e-11)
(2.72972e-12 -3.5609e-13 -4.66464e-11)
(2.9661e-12 -7.69506e-13 -4.51032e-11)
(-3.40796e-12 -8.82468e-13 -4.79705e-11)
(-5.52041e-12 -3.51125e-12 -5.53003e-11)
(-2.84248e-12 -2.41694e-12 -5.77915e-11)
(8.79286e-13 -3.35753e-12 -5.40483e-11)
(2.95369e-12 -5.03974e-13 -3.91588e-11)
(-5.55897e-12 -5.3246e-13 -2.27124e-11)
(-3.72963e-13 3.11074e-13 -1.01328e-11)
(3.96286e-12 2.65407e-13 -3.52138e-12)
(9.04468e-13 7.79906e-14 -8.19936e-14)
(-4.60657e-13 5.55426e-13 1.44184e-12)
(-9.28177e-13 4.8705e-13 9.06158e-13)
(-4.6225e-13 1.5918e-12 4.24902e-14)
(-8.8982e-13 9.17168e-13 -1.65321e-12)
(-1.57402e-12 5.22968e-13 -4.44651e-12)
(-2.23398e-12 -2.50772e-12 -7.12368e-12)
(-4.52935e-12 -1.33544e-12 -9.91835e-12)
(-5.58294e-12 -2.25211e-12 -1.25415e-11)
(6.57265e-13 -6.50316e-13 -1.47025e-11)
(1.36052e-12 5.94631e-13 -1.80713e-11)
(3.41454e-13 5.2002e-13 -1.98447e-11)
(2.66869e-12 -4.83594e-14 -2.01607e-11)
(-1.54419e-12 9.56539e-13 -2.07639e-11)
(-1.89719e-12 1.22082e-12 -2.49594e-11)
(7.6813e-13 1.56449e-12 -1.85517e-11)
(-3.17755e-12 1.47936e-12 -1.37538e-11)
(-3.34906e-12 2.30386e-12 -1.18815e-11)
(-1.21951e-12 1.81936e-12 -1.07242e-11)
(1.87616e-12 1.86618e-12 -9.76737e-12)
(2.77693e-12 1.63763e-12 -9.20454e-12)
(8.32705e-13 2.12741e-12 -9.57586e-12)
(-3.13601e-13 3.31471e-13 -8.29408e-12)
(5.52233e-13 4.81963e-13 -7.9338e-12)
(3.34726e-13 1.76685e-13 -7.65983e-12)
(2.01798e-12 2.16662e-12 -7.08495e-12)
(5.9814e-12 2.0336e-12 -6.61816e-12)
(3.30206e-12 2.85804e-12 -5.68454e-12)
(1.04426e-12 2.76055e-12 -3.83889e-12)
(1.24909e-12 3.28354e-12 -1.80352e-12)
(2.19194e-12 3.32244e-12 -4.83718e-13)
(1.55704e-12 2.41513e-12 -4.05567e-13)
(2.21721e-12 -2.94638e-12 1.47339e-12)
(1.11011e-12 -1.84403e-12 1.27003e-11)
(1.20505e-12 -1.75757e-12 2.13128e-11)
(3.25484e-12 -1.21427e-12 2.29661e-11)
(1.88474e-12 -9.39332e-13 1.73569e-11)
(-8.09828e-13 -3.02183e-12 5.1167e-12)
(-3.84978e-13 -3.51828e-12 -4.98658e-12)
(1.36307e-13 -4.05925e-12 -8.11916e-12)
(1.00502e-12 -3.15831e-12 -4.13819e-12)
(3.3674e-13 -3.52612e-12 1.73574e-12)
(-3.31621e-13 -3.70383e-12 3.05721e-12)
(1.10501e-12 -3.24624e-12 1.65263e-12)
(3.54239e-13 -1.73609e-12 -3.5553e-12)
(-2.50205e-12 -2.94613e-12 -9.57938e-12)
(-3.03203e-12 -3.09379e-12 -1.06702e-11)
(-2.84901e-12 -4.00722e-12 -8.58198e-12)
(-1.76475e-12 -7.59352e-14 -5.58961e-12)
(-3.69033e-12 2.30723e-12 -4.22646e-12)
(-4.12916e-12 2.22499e-12 -4.99464e-12)
(-3.27029e-12 3.18768e-12 -7.04472e-12)
(-3.11287e-12 1.11426e-12 -1.07022e-11)
(-1.85591e-12 4.38397e-12 -1.04741e-11)
(-1.21452e-12 3.85756e-12 -9.46636e-12)
(-5.62376e-13 3.97434e-12 -8.01102e-12)
(-2.50512e-13 1.9579e-12 -7.31824e-12)
(-9.35464e-13 1.91861e-12 -6.1239e-12)
(-1.77632e-12 9.84006e-13 -5.11541e-12)
(-8.81306e-13 -2.61207e-12 -4.11837e-12)
(6.35271e-13 -1.5981e-12 1.55183e-12)
(1.10707e-12 -1.03544e-12 5.5342e-12)
(-6.20434e-13 6.11019e-13 7.80521e-12)
(-1.69062e-12 3.48184e-13 1.34461e-11)
(-1.14075e-12 -1.16777e-12 1.6846e-11)
(8.11584e-13 5.70453e-13 1.6163e-11)
(2.3932e-12 4.34901e-13 1.0089e-11)
(1.2921e-12 1.17953e-12 9.65837e-13)
(1.72214e-12 -1.52274e-12 -5.89211e-12)
(1.72162e-12 1.16545e-12 -8.05011e-12)
(9.29013e-13 2.25577e-12 -8.01864e-12)
(5.76688e-13 -2.47111e-13 -5.90415e-12)
(2.05275e-12 -3.34575e-12 -2.90298e-12)
(3.88239e-12 -7.95322e-13 -4.76741e-13)
(5.04902e-12 -6.91021e-13 3.74376e-13)
(5.96162e-12 -2.39244e-12 1.28593e-12)
(4.3313e-12 8.47992e-13 5.44673e-13)
(1.1804e-12 1.0511e-12 -1.08411e-12)
(1.74565e-13 1.62079e-12 -4.76891e-12)
(-9.23929e-13 1.1439e-12 -1.42897e-11)
(4.36612e-14 7.70096e-13 -2.55599e-11)
(3.26175e-12 -2.93363e-12 -3.33772e-11)
(1.52866e-12 -2.26457e-12 -3.49539e-11)
(-5.93229e-13 -4.53874e-12 -3.67928e-11)
(6.7996e-13 -4.12035e-12 -3.83768e-11)
(8.53821e-13 -1.32873e-12 -3.79724e-11)
(1.72273e-13 -1.4879e-12 -4.01341e-11)
(-2.81883e-12 -4.40562e-12 -4.38985e-11)
(-3.58593e-12 -5.73217e-12 -4.64869e-11)
(-2.05932e-12 -4.63043e-12 -4.18433e-11)
(-2.609e-12 -6.158e-13 -3.12714e-11)
(-4.38725e-12 1.23195e-13 -1.87212e-11)
(-1.71393e-12 -3.32637e-12 -9.85174e-12)
(-4.98635e-13 -6.57552e-13 -3.85669e-12)
(-8.98121e-13 1.76545e-12 -3.17807e-13)
(-4.59033e-13 2.34278e-12 1.6341e-12)
(-1.12055e-12 3.18413e-12 1.99739e-12)
(-8.47839e-14 4.18537e-12 1.91446e-12)
(9.23487e-13 3.13658e-12 3.41863e-13)
(2.48435e-12 1.22411e-12 -2.96414e-12)
(-6.42183e-14 -1.73388e-12 -5.22908e-12)
(-2.46926e-12 -2.14252e-12 -9.36681e-12)
(-3.15905e-12 -5.89658e-12 -1.2683e-11)
(-1.39164e-12 -5.7998e-12 -1.68282e-11)
(-8.55989e-13 -8.28337e-13 -2.0164e-11)
(-1.34429e-12 -1.35739e-12 -2.2649e-11)
(1.18203e-13 -1.30671e-12 -2.19511e-11)
(-5.84696e-13 -5.17427e-13 -2.14762e-11)
(-1.76978e-12 -2.29538e-12 -2.126e-11)
(-2.37502e-12 -5.84941e-14 -1.68783e-11)
(-2.49661e-12 1.72999e-12 -1.32879e-11)
(-1.01702e-12 1.33038e-12 -1.28247e-11)
(-1.08507e-13 1.38816e-12 -1.0153e-11)
(4.5793e-13 3.11112e-14 -8.60301e-12)
(2.26621e-13 1.59763e-12 -7.90094e-12)