/*--------------------------------*- C++ -*----------------------------------*\
| =========                 |                                                 |
| \\      /  F ield         | OpenFOAM: The Open Source CFD Toolbox           |
|  \\    /   O peration     | Version:  2406                                  |
|   \\  /    A nd           | Website:  www.openfoam.com                      |
|    \\/     M anipulation  |                                                 |
\*---------------------------------------------------------------------------*/
FoamFile
{
    version     2.0;
    format      ascii;
    arch        "LSB;label=32;scalar=64";
    class       volVectorField;
    location    "0.1";
    object      U;
}
// * * * * * * * * * * * * * * * * * * * * * * * * * * * * * * * * * * * * * //

dimensions      [0 1 -1 0 0 0 0];

internalField   nonuniform List<vector> 
13988
(
(4.6929e-12 -1.15079e-11 -1.28592e-11)
(1.2704e-12 -1.12996e-11 -9.15369e-12)
(-1.98852e-12 -1.0873e-11 -5.6904e-12)
(-2.93474e-12 -9.24912e-12 3.81274e-12)
(-2.1411e-12 -5.88645e-12 7.87679e-12)
(-3.44426e-12 -5.85205e-12 9.50481e-12)
(-4.92203e-12 -5.56382e-12 1.00617e-11)
(-1.79866e-12 -2.49385e-12 1.09898e-11)
(-2.85753e-12 -2.10887e-12 1.27201e-11)
(-7.60535e-12 -2.06473e-12 1.49465e-11)
(-7.9118e-12 -2.67817e-12 1.78669e-11)
(-6.2403e-12 -1.67546e-12 1.39101e-11)
(-6.74402e-12 -5.51769e-12 2.7333e-12)
(-4.24769e-12 -5.35154e-12 -2.92521e-12)
(-3.34732e-12 -5.68503e-12 -3.80215e-12)
(-1.07638e-12 -4.5193e-12 -1.32681e-11)
(3.1383e-12 -3.29826e-12 -2.23847e-11)
(-2.22692e-13 -2.17119e-12 -2.2942e-11)
(-3.35848e-12 -3.47061e-12 -2.53851e-11)
(-5.13359e-12 -5.34205e-12 -2.11132e-11)
(-3.201e-12 -9.47363e-12 -1.53772e-11)
(-1.0738e-12 -1.25367e-11 -1.07534e-11)
(-3.14743e-12 -1.04588e-11 -8.74788e-12)
(-6.44217e-12 -9.51975e-12 -3.37385e-12)
(-3.72731e-12 -1.25791e-11 2.95312e-12)
(-4.41901e-13 -1.15709e-11 1.00459e-11)
(-2.53208e-12 -1.15273e-11 1.59098e-11)
(1.19865e-14 -1.24655e-11 1.17975e-11)
(2.37333e-12 -1.2875e-11 8.56021e-12)
(-6.8214e-13 -1.19497e-11 7.52307e-12)
(-9.26307e-13 -1.36762e-11 6.97454e-12)
(1.07976e-12 -1.33479e-11 8.60001e-12)
(-1.07823e-12 -1.49444e-11 1.48093e-11)
(2.39123e-13 -1.54136e-11 1.36439e-11)
(8.09436e-13 -1.56413e-11 1.599e-11)
(-2.92473e-12 -1.55482e-11 9.30982e-12)
(-2.53853e-13 -1.59115e-11 -2.41293e-12)
(-2.38868e-12 -1.79902e-11 -1.01644e-11)
(-4.57355e-12 -1.94836e-11 -1.07509e-11)
(-1.10211e-12 -1.89186e-11 -8.41972e-12)
(6.28471e-14 -1.78929e-11 -4.95803e-12)
(1.08772e-12 -1.83556e-11 -4.06363e-12)
(-7.07102e-13 -1.83019e-11 -4.47924e-12)
(-3.71845e-12 -1.69186e-11 -4.24884e-12)
(-5.37642e-12 -1.76999e-11 -2.59563e-12)
(-5.7943e-12 -1.6209e-11 -4.05169e-12)
(3.39258e-13 -1.80852e-11 -7.59559e-12)
(3.48064e-12 -1.90326e-11 -1.29825e-11)
(4.70723e-12 -1.86887e-11 -8.00267e-12)
(3.25795e-12 -1.68945e-11 -6.11336e-12)
(1.44422e-12 -1.82864e-11 -7.77371e-12)
(-4.2585e-14 -1.80441e-11 -6.79625e-12)
(-4.74351e-13 -1.81192e-11 -7.62519e-12)
(2.08447e-12 -1.67332e-11 -2.46724e-12)
(1.9455e-12 -1.77967e-11 3.23872e-12)
(1.30872e-12 -2.0134e-11 2.73566e-12)
(9.36391e-13 -2.15545e-11 3.67105e-12)
(2.7684e-13 -2.26228e-11 4.99305e-12)
(1.60516e-13 -1.99255e-11 6.17909e-12)
(-1.22131e-12 -1.95155e-11 1.06655e-11)
(-1.54034e-12 -1.78338e-11 3.11889e-12)
(3.11987e-12 -1.93894e-11 -7.10406e-12)
(1.72367e-12 -1.91285e-11 -1.40317e-11)
(-5.78307e-13 -1.82777e-11 -1.65418e-11)
(7.23198e-13 -2.01274e-11 -1.5567e-11)
(5.06303e-13 -1.79481e-11 -1.59055e-11)
(-2.42326e-12 -1.64871e-11 -1.46785e-11)
(-2.69642e-12 -1.68223e-11 -1.29505e-11)
(-1.5295e-12 -1.42986e-11 -1.0105e-11)
(-2.28023e-13 -1.39744e-11 -7.71112e-12)
(2.94328e-13 -1.50075e-11 -8.60866e-12)
(-1.80313e-12 -1.52691e-11 -6.67958e-12)
(-3.19799e-12 -1.57943e-11 -1.02083e-11)
(-8.8108e-14 -1.51366e-11 -1.21949e-11)
(5.29771e-13 -1.34947e-11 -1.18916e-11)
(-1.39548e-12 -1.53094e-11 -8.6374e-12)
(-2.74529e-12 -1.40852e-11 -8.87282e-12)
(-4.80015e-13 -1.55664e-11 -6.30091e-12)
(1.10094e-09 9.54694e-11 -9.29907e-12)
(1.95069e-06 1.93559e-07 -7.93964e-09)
(0.000441483 4.10997e-05 -1.72459e-06)
(0.0177383 0.00152551 -6.51675e-05)
(0.186563 0.0148284 -0.000645077)
(0.767994 0.0580105 -0.00258308)
(1.75352 0.131105 -0.00601583)
(2.83601 0.21602 -0.0102466)
(3.75495 0.295611 -0.0144679)
(4.41181 0.361605 -0.0181793)
(4.8197 0.412922 -0.0212208)
(5.0428 0.452242 -0.0236546)
(5.15858 0.488073 -0.0259248)
(5.20297 0.512489 -0.0275321)
(5.17638 0.533048 -0.0289198)
(5.07124 0.546205 -0.0299555)
(4.90272 0.55602 -0.0309025)
(4.72881 0.56889 -0.0319655)
(4.60459 0.591973 -0.0334899)
(4.55816 0.622624 -0.0353595)
(4.62609 0.660782 -0.0375946)
(4.82802 0.727468 -0.041196)
(5.63313 0.87904 -0.0485496)
(3.36635e-12 -1.45013e-11 -1.30829e-11)
(1.44842e-12 -1.20556e-11 -8.10937e-12)
(-3.01045e-12 -1.30036e-11 -3.85846e-12)
(-4.8865e-12 -9.84516e-12 2.00792e-12)
(-3.25088e-12 -9.33312e-12 6.83247e-12)
(-3.39727e-12 -8.40578e-12 8.95229e-12)
(-5.38782e-12 -9.22173e-12 9.70214e-12)
(-5.1078e-12 -5.6629e-12 1.26434e-11)
(-4.59269e-12 -2.12945e-12 1.65179e-11)
(-6.43619e-12 -1.70099e-12 1.77876e-11)
(-6.57497e-12 -3.71593e-12 1.63586e-11)
(-5.38766e-12 -1.44487e-12 8.9475e-12)
(-4.18122e-12 -6.00388e-12 7.18859e-13)
(-4.3385e-12 -9.80164e-12 -2.56583e-12)
(-3.6832e-12 -7.20109e-12 -5.80755e-12)
(-1.14875e-12 -9.06275e-12 -1.08712e-11)
(1.55536e-12 -7.98752e-12 -1.77245e-11)
(-5.72151e-13 -6.77134e-12 -2.25731e-11)
(-2.52311e-12 -6.87142e-12 -2.4613e-11)
(-3.21337e-12 -7.77588e-12 -2.08903e-11)
(-5.21731e-13 -1.22814e-11 -1.6729e-11)
(7.15996e-13 -1.65341e-11 -1.30619e-11)
(-3.91057e-12 -1.6519e-11 -5.86032e-12)
(-6.19084e-12 -1.2967e-11 1.74096e-12)
(-4.14282e-12 -1.66981e-11 8.24083e-12)
(-2.4114e-12 -1.43632e-11 1.40904e-11)
(-1.3434e-12 -1.51579e-11 1.81197e-11)
(1.44255e-12 -1.62591e-11 1.52802e-11)
(1.47875e-12 -1.75197e-11 1.16058e-11)
(-9.7042e-13 -1.66253e-11 9.60629e-12)
(-3.75176e-13 -1.66253e-11 8.81955e-12)
(6.4993e-13 -1.75719e-11 9.66623e-12)
(-2.03162e-13 -1.71813e-11 1.12172e-11)
(3.15076e-13 -1.87673e-11 1.20399e-11)
(-2.76625e-13 -1.81411e-11 1.25339e-11)
(-1.72081e-12 -1.76664e-11 7.94863e-12)
(2.23303e-13 -2.14991e-11 -5.15701e-13)
(-9.03265e-13 -2.01513e-11 -7.24493e-12)
(-1.88496e-12 -2.38615e-11 -6.485e-12)
(-2.55135e-12 -2.32863e-11 -4.16809e-12)
(-1.91854e-12 -2.05415e-11 -2.85428e-12)
(-1.06672e-12 -2.09098e-11 -4.20832e-12)
(-2.31605e-12 -1.81205e-11 -5.34711e-12)
(-4.48932e-12 -1.77428e-11 -3.47217e-12)
(-4.69741e-12 -1.75922e-11 -2.8462e-13)
(-3.92379e-12 -1.89927e-11 -3.51995e-12)
(1.60562e-12 -2.07473e-11 -6.41792e-12)
(4.41733e-12 -2.14389e-11 -9.8266e-12)
(3.61509e-12 -2.18836e-11 -7.30131e-12)
(1.70573e-12 -1.91847e-11 -6.10992e-12)
(1.01815e-12 -1.95355e-11 -6.85733e-12)
(-7.85372e-14 -1.8198e-11 -7.60395e-12)
(3.49474e-13 -1.86975e-11 -8.78082e-12)
(2.11295e-12 -1.84093e-11 -4.28893e-12)
(3.13548e-12 -1.9172e-11 4.60697e-13)
(3.25255e-12 -2.01354e-11 3.09633e-12)
(2.08508e-12 -2.33714e-11 3.97163e-12)
(-1.5108e-13 -2.44209e-11 4.9159e-12)
(-9.43153e-13 -2.21196e-11 6.73896e-12)
(-1.14451e-12 -2.14952e-11 6.55145e-12)
(-1.26699e-12 -2.17287e-11 9.71466e-13)
(1.90689e-12 -2.22947e-11 -8.93288e-12)
(1.63937e-12 -2.15529e-11 -1.45201e-11)
(9.09895e-13 -2.24199e-11 -1.70381e-11)
(3.14329e-13 -2.34888e-11 -1.5111e-11)
(-1.50279e-12 -2.16456e-11 -1.75532e-11)
(-1.4631e-12 -1.98763e-11 -1.79225e-11)
(-1.7467e-12 -2.13878e-11 -1.62149e-11)
(-2.39835e-12 -1.98239e-11 -1.09392e-11)
(-7.43426e-13 -1.82837e-11 -7.94857e-12)
(4.68661e-13 -1.84154e-11 -7.9017e-12)
(-1.25739e-12 -1.73369e-11 -7.95938e-12)
(-1.76859e-12 -2.15176e-11 -1.09042e-11)
(-2.16788e-13 -2.36434e-11 -1.3469e-11)
(-1.41264e-12 -1.98386e-11 -1.4677e-11)
(-1.28976e-12 -1.66311e-11 -1.19728e-11)
(-3.50213e-14 -1.92633e-11 -9.21083e-12)
(-1.43836e-13 -2.12833e-11 -5.58019e-12)
(7.28675e-10 6.42697e-11 -8.36207e-12)
(1.42912e-06 1.55331e-07 -6.29848e-09)
(0.000353857 3.60045e-05 -1.50111e-06)
(0.0153003 0.00143478 -6.10653e-05)
(0.169966 0.0146873 -0.000637101)
(0.72567 0.0593983 -0.00263527)
(1.69386 0.136924 -0.00625202)
(2.77486 0.228309 -0.0107698)
(3.70188 0.314713 -0.0153228)
(4.36957 0.386697 -0.019355)
(4.7872 0.442813 -0.0226749)
(5.01741 0.485735 -0.0253287)
(5.13635 0.524697 -0.0277913)
(5.18625 0.55166 -0.0295574)
(5.16286 0.574307 -0.0310679)
(5.06261 0.588853 -0.0321874)
(4.89502 0.599282 -0.0331856)
(4.7176 0.612296 -0.0342768)
(4.58661 0.635625 -0.0358195)
(4.5321 0.668065 -0.0377765)
(4.59013 0.708344 -0.0401129)
(4.7653 0.775256 -0.0437052)
(1.0599e-12 -1.4639e-11 -1.33782e-11)
(8.78658e-13 -1.48693e-11 -8.8301e-12)
(-3.00672e-12 -1.61006e-11 -5.00539e-12)
(-4.72802e-12 -1.48392e-11 9.06067e-13)
(-2.32459e-12 -1.20231e-11 4.85226e-12)
(-2.43123e-12 -9.4757e-12 7.79046e-12)
(-7.50073e-12 -1.02349e-11 8.76996e-12)
(-8.09988e-12 -1.00598e-11 1.43501e-11)
(-5.82124e-12 -6.18856e-12 2.05984e-11)
(-6.03578e-12 -5.12864e-12 1.96942e-11)
(-6.43601e-12 -7.83966e-12 1.47312e-11)
(-5.03232e-12 -9.45734e-12 3.18833e-12)
(-1.91544e-12 -1.21361e-11 -8.442e-13)
(-4.42587e-12 -1.34282e-11 -2.11605e-12)
(-4.92933e-12 -1.04562e-11 -4.8574e-12)
(-1.18081e-12 -1.10827e-11 -7.83258e-12)
(1.3399e-12 -9.05739e-12 -1.00706e-11)
(-8.76423e-13 -1.06293e-11 -1.8024e-11)
(-2e-12 -1.24664e-11 -2.43434e-11)
(-1.64412e-12 -1.25692e-11 -1.85175e-11)
(1.02491e-12 -1.59909e-11 -1.19061e-11)
(1.6834e-12 -2.09742e-11 -8.75952e-12)
(-4.56293e-12 -2.12556e-11 -2.60135e-12)
(-6.67191e-12 -1.99639e-11 4.80016e-12)
(-2.93818e-12 -2.09896e-11 1.18667e-11)
(-2.03389e-12 -1.93984e-11 1.57659e-11)
(-1.39862e-12 -1.84412e-11 1.99674e-11)
(1.61399e-12 -1.87918e-11 1.69814e-11)
(2.15422e-12 -1.84208e-11 1.34725e-11)
(-1.31474e-12 -1.90489e-11 1.2277e-11)
(2.31412e-13 -2.09759e-11 1.09721e-11)
(1.32125e-12 -2.01609e-11 1.07247e-11)
(1.48299e-13 -2.2164e-11 1.00533e-11)
(8.12393e-13 -2.37262e-11 1.23477e-11)
(-7.95005e-13 -2.28373e-11 1.32624e-11)
(-1.12202e-12 -2.28047e-11 1.00076e-11)
(2.29965e-13 -2.55138e-11 4.25093e-12)
(-6.25757e-13 -2.48997e-11 -1.75206e-12)
(-1.68375e-12 -2.77927e-11 -1.72234e-12)
(-4.89223e-12 -2.77556e-11 -1.65855e-12)
(-2.00399e-12 -2.53483e-11 -1.98484e-12)
(-1.19535e-12 -2.37959e-11 -3.54192e-12)
(-3.40983e-12 -2.20514e-11 -6.84448e-12)
(-3.62033e-12 -2.10442e-11 -3.09233e-12)
(-4.46608e-12 -2.05278e-11 6.08559e-13)
(-4.12099e-12 -2.16197e-11 -3.28822e-12)
(1.67702e-12 -2.22081e-11 -4.89473e-12)
(5.18757e-12 -2.22125e-11 -5.98085e-12)
(3.10861e-12 -2.24396e-11 -5.94945e-12)
(1.91218e-12 -2.40851e-11 -6.03344e-12)
(9.95575e-13 -2.39826e-11 -6.08864e-12)
(-4.02302e-13 -2.33989e-11 -6.94949e-12)
(3.9264e-13 -2.29747e-11 -7.78679e-12)
(3.12114e-12 -2.17418e-11 -4.25514e-12)
(3.34262e-12 -2.12591e-11 1.36197e-13)
(4.37439e-12 -2.15163e-11 2.71712e-12)
(3.48202e-12 -2.36679e-11 3.85762e-12)
(-7.27993e-13 -2.45469e-11 4.48678e-12)
(-1.24819e-12 -2.49565e-11 7.47489e-12)
(-1.93071e-12 -2.641e-11 5.16089e-12)
(-2.90183e-12 -2.47214e-11 -1.75949e-13)
(2.01822e-12 -2.31217e-11 -6.51593e-12)
(1.74433e-12 -2.23997e-11 -1.25219e-11)
(8.10137e-13 -2.37109e-11 -1.51972e-11)
(2.31704e-13 -2.29801e-11 -1.58039e-11)
(-2.04813e-12 -2.29351e-11 -1.7253e-11)
(-1.77785e-12 -2.40534e-11 -1.79589e-11)
(-1.53408e-12 -2.11476e-11 -1.49066e-11)
(-1.80323e-12 -2.13549e-11 -9.95245e-12)
(-5.72327e-13 -1.9643e-11 -9.10422e-12)
(-9.28123e-13 -2.10905e-11 -8.80103e-12)
(-1.57176e-13 -2.11513e-11 -9.32839e-12)
(1.08833e-12 -2.13026e-11 -1.15673e-11)
(-2.00032e-12 -2.40602e-11 -1.43859e-11)
(-5.51568e-12 -2.34343e-11 -1.83368e-11)
(-1.68269e-12 -2.14729e-11 -1.33268e-11)
(1.92053e-12 -2.49357e-11 -9.30941e-12)
(1.8793e-12 -2.34936e-11 -3.54562e-12)
(4.49844e-10 3.385e-11 -7.43323e-12)
(9.98299e-07 1.17304e-07 -4.69763e-09)
(0.000274059 3.02163e-05 -1.25135e-06)
(0.0128932 0.001312 -5.56209e-05)
(0.152553 0.0143031 -0.000618512)
(0.679452 0.0602382 -0.00266251)
(1.62724 0.142208 -0.00646141)
(2.7059 0.240427 -0.0112797)
(3.64195 0.334129 -0.0161852)
(4.32205 0.412543 -0.0205607)
(4.75096 0.473781 -0.0241785)
(4.98936 0.520509 -0.0270678)
(5.11212 0.562596 -0.0297263)
(5.16824 0.592362 -0.0316696)
(5.14839 0.617225 -0.0333124)
(5.05395 0.63317 -0.0345172)
(4.88786 0.644197 -0.0355679)
(4.70697 0.657289 -0.0366894)
(4.5686 0.680658 -0.0382437)
(4.50505 0.714816 -0.0402901)
(4.55104 0.757297 -0.0427345)
(4.70116 0.823762 -0.0462905)
(1.58883e-12 -1.12408e-11 -8.34201e-12)
(-1.95538e-12 -1.37628e-11 -3.8982e-12)
(-5.7641e-12 -1.2519e-11 -7.22175e-14)
(-6.18092e-12 -1.28926e-11 2.93312e-12)
(-3.40862e-12 -8.04233e-12 3.94779e-12)
(-6.10774e-12 -5.20471e-12 7.52941e-12)
(-8.94586e-12 -5.46856e-12 1.33166e-11)
(-7.40305e-12 -4.1844e-12 1.69387e-11)
(-5.97985e-12 -7.3115e-12 1.38383e-11)
(-4.11613e-12 -6.51944e-12 6.04976e-12)
(-2.33406e-12 -1.10673e-11 -1.51808e-12)
(-2.44247e-12 -1.03812e-11 -2.74227e-12)
(-5.68518e-12 -8.67305e-12 -2.40412e-12)
(-5.31119e-12 -1.0018e-11 -5.02813e-12)
(-1.87448e-12 -1.11342e-11 -1.00786e-11)
(1.12192e-12 -9.83059e-12 -1.07696e-11)
(2.59025e-12 -1.10046e-11 -1.43705e-11)
(2.19499e-13 -1.48288e-11 -1.85849e-11)
(-3.38989e-14 -1.37924e-11 -1.26633e-11)
(4.42875e-12 -1.50271e-11 -7.92949e-12)
(4.02797e-12 -1.8446e-11 -4.27502e-12)
(-3.27223e-12 -1.91645e-11 1.57855e-12)
(-6.4849e-12 -1.96078e-11 8.55418e-12)
(-4.04543e-12 -1.76943e-11 1.07746e-11)
(-3.24552e-12 -1.86056e-11 1.41501e-11)
(-1.84225e-12 -2.03623e-11 1.56157e-11)
(1.1407e-12 -2.04779e-11 1.52219e-11)
(1.14954e-12 -1.8028e-11 1.4711e-11)
(8.06402e-13 -1.82089e-11 1.3897e-11)
(4.42567e-13 -2.06953e-11 1.22541e-11)
(1.16224e-12 -1.97982e-11 1.10791e-11)
(1.89793e-12 -2.1349e-11 9.71866e-12)
(7.65815e-13 -2.15598e-11 1.14508e-11)
(-1.22401e-12 -2.00832e-11 1.38027e-11)
(-9.01371e-13 -2.10484e-11 1.0881e-11)
(4.70629e-14 -2.18674e-11 7.29742e-12)
(4.15479e-13 -2.60389e-11 3.51878e-12)
(-3.43413e-13 -2.45363e-11 5.10174e-13)
(-4.59659e-12 -2.4527e-11 -8.56242e-13)
(-3.84454e-12 -2.37844e-11 -2.014e-12)
(-2.5919e-12 -2.37008e-11 -2.71802e-12)
(-4.01743e-12 -2.22809e-11 -3.49305e-12)
(-5.02439e-12 -2.14043e-11 -2.36979e-12)
(-4.49438e-12 -1.87287e-11 -3.02598e-12)
(-2.75045e-12 -2.1461e-11 -3.55165e-12)
(1.76771e-12 -2.15095e-11 -4.24942e-12)
(4.62108e-12 -2.04877e-11 -4.88682e-12)
(4.1584e-12 -1.90864e-11 -5.03363e-12)
(2.88121e-12 -2.09723e-11 -4.91068e-12)
(1.65954e-12 -2.06408e-11 -4.69937e-12)
(3.48094e-13 -2.20023e-11 -4.44349e-12)
(-7.31919e-14 -2.18424e-11 -4.03959e-12)
(2.22183e-12 -2.18819e-11 -3.00064e-12)
(3.57753e-12 -2.03652e-11 -1.78333e-13)
(4.31031e-12 -2.13451e-11 1.49151e-12)
(3.43592e-12 -1.90441e-11 2.79827e-12)
(-1.11291e-13 -2.02806e-11 5.00444e-12)
(-5.1523e-13 -2.24077e-11 8.09262e-12)
(-1.95677e-12 -2.31985e-11 4.22624e-12)
(-4.61058e-12 -2.08098e-11 2.48335e-13)
(-1.33323e-13 -2.05414e-11 -4.43412e-12)
(2.06162e-12 -1.8714e-11 -1.03582e-11)
(1.28756e-12 -2.03531e-11 -1.42994e-11)
(-3.02145e-13 -1.88323e-11 -1.49751e-11)
(-1.45075e-12 -1.98615e-11 -1.70833e-11)
(-2.45395e-12 -2.03407e-11 -1.49347e-11)
(-2.10453e-12 -1.77012e-11 -1.27589e-11)
(-2.21929e-12 -1.83879e-11 -1.1049e-11)
(-7.03482e-13 -1.73044e-11 -1.11296e-11)
(1.31653e-12 -1.8626e-11 -9.09866e-12)
(-1.29321e-12 -1.9449e-11 -1.0141e-11)
(-6.43095e-13 -1.72475e-11 -1.20864e-11)
(1.55626e-14 -1.85811e-11 -1.37561e-11)
(-3.43574e-12 -2.15467e-11 -1.53294e-11)
(-6.93602e-14 -2.24198e-11 -1.29651e-11)
(1.35902e-12 -2.4297e-11 -9.74928e-12)
(-8.93287e-13 -2.25454e-11 -6.66017e-12)
(2.60228e-10 1.30617e-11 -6.81065e-12)
(6.61168e-07 8.3831e-08 -3.30061e-09)
(0.000204121 2.43519e-05 -9.99014e-07)
(0.0105754 0.00116634 -4.91768e-05)
(0.13455 0.0136697 -0.000588845)
(0.62936 0.0603273 -0.00265575)
(1.55305 0.146365 -0.00661673)
(2.62801 0.251384 -0.0117262)
(3.57371 0.352614 -0.0169856)
(4.26767 0.437807 -0.0217142)
(4.70929 0.504555 -0.0256465)
(4.95692 0.555477 -0.0287916)
(5.08412 0.600767 -0.0316511)
(5.1471 0.63385 -0.0338015)
(5.13111 0.661238 -0.0355944)
(5.04344 0.67877 -0.0368935)
(4.87951 0.690533 -0.0380036)
(4.6954 0.703621 -0.039154)
(4.54932 0.72646 -0.0406939)
(4.47574 0.762097 -0.0428085)
(4.50715 0.806713 -0.0453492)
(1.588e-12 -9.11342e-12 -5.36867e-12)
(-9.76699e-13 -1.02436e-11 -2.88632e-12)
(-4.06302e-12 -9.18488e-12 -9.65439e-13)
(-6.21683e-12 -1.05725e-11 -9.28001e-13)
(-8.74551e-12 -7.24965e-12 1.12383e-12)
(-8.91153e-12 -2.48426e-12 5.4814e-12)
(-8.03415e-12 -2.23354e-12 8.48436e-12)
(-4.1673e-12 -3.23703e-12 8.5822e-12)
(-3.62155e-12 -7.06886e-12 6.37295e-12)
(-3.09086e-12 -6.54701e-12 5.28358e-13)
(-2.28855e-12 -8.38575e-12 -1.20572e-12)
(-4.25507e-12 -8.79203e-12 -1.92163e-12)
(-4.72445e-12 -6.30085e-12 -2.39286e-12)
(-3.12813e-12 -1.10089e-11 -3.31557e-12)
(-4.2014e-13 -1.1631e-11 -6.59856e-12)
(1.77115e-12 -1.42742e-11 -8.50778e-12)
(3.96767e-12 -1.49899e-11 -7.67993e-12)
(1.36203e-12 -1.52237e-11 -6.81235e-12)
(-1.25335e-13 -1.60187e-11 -5.19753e-12)
(2.11351e-12 -1.81012e-11 -4.40158e-12)
(2.31686e-12 -1.56439e-11 -2.22087e-12)
(-3.03462e-12 -1.23745e-11 2.93739e-12)
(-6.95637e-12 -1.42138e-11 8.73081e-12)
(-4.01165e-12 -1.48082e-11 1.03561e-11)
(-7.43533e-13 -1.66133e-11 1.30171e-11)
(1.50622e-13 -1.99206e-11 1.24486e-11)
(-1.9778e-13 -1.95674e-11 1.41163e-11)
(6.78769e-14 -1.70535e-11 1.50069e-11)
(8.56828e-13 -1.72495e-11 1.41189e-11)
(1.3934e-12 -1.81393e-11 1.23455e-11)
(2.2273e-12 -2.0842e-11 1.16109e-11)
(1.39161e-12 -2.02181e-11 1.05402e-11)
(-6.43762e-13 -1.99874e-11 1.01191e-11)
(-1.49826e-12 -1.95939e-11 1.12464e-11)
(9.47594e-14 -2.00578e-11 9.61998e-12)
(2.5122e-12 -1.88345e-11 9.43781e-12)
(1.98839e-12 -2.21862e-11 5.8198e-12)
(-2.11737e-12 -2.04394e-11 1.94725e-12)
(-5.7334e-12 -1.92371e-11 -9.08395e-13)
(-3.54492e-12 -1.90264e-11 -2.3694e-12)
(-3.47616e-12 -2.06569e-11 -2.8257e-12)
(-5.17613e-12 -1.89092e-11 -2.87984e-12)
(-5.65699e-12 -1.7605e-11 -5.41875e-13)
(-4.81865e-12 -1.63745e-11 -2.3944e-12)
(-8.76758e-13 -1.80179e-11 -3.56755e-12)
(1.87799e-12 -1.95493e-11 -4.96958e-12)
(3.08926e-12 -1.81941e-11 -4.77335e-12)
(3.07522e-12 -1.6468e-11 -3.96834e-12)
(2.89437e-12 -1.56712e-11 -5.01154e-12)
(2.36804e-12 -1.6934e-11 -3.64821e-12)
(8.2913e-13 -1.75884e-11 -3.70274e-12)
(4.54422e-13 -1.80655e-11 -3.97402e-12)
(3.49068e-12 -1.96553e-11 -1.49672e-12)
(3.78995e-12 -2.09448e-11 9.19288e-13)
(2.41767e-12 -1.86006e-11 7.87599e-13)
(2.25259e-12 -1.65696e-11 1.42788e-12)
(2.51532e-12 -1.87868e-11 4.53169e-12)
(6.43456e-13 -2.06741e-11 6.68187e-12)
(-3.83874e-12 -1.96613e-11 5.09342e-12)
(-4.77241e-12 -1.76925e-11 6.21626e-13)
(1.18043e-13 -1.86133e-11 -2.78697e-12)
(2.63477e-12 -1.63712e-11 -7.2063e-12)
(2.46311e-13 -1.5673e-11 -9.94237e-12)
(-8.27115e-13 -1.60899e-11 -1.16935e-11)
(-1.19158e-12 -1.76289e-11 -1.27714e-11)
(-3.03056e-12 -1.55227e-11 -1.24943e-11)
(-2.3085e-12 -1.584e-11 -1.16742e-11)
(-1.59148e-12 -1.56855e-11 -1.13498e-11)
(-8.45088e-13 -1.72679e-11 -1.14869e-11)
(7.95437e-13 -1.48376e-11 -1.00448e-11)
(-1.1093e-12 -1.51592e-11 -1.00656e-11)
(-4.71362e-13 -1.6196e-11 -1.10397e-11)
(1.11195e-12 -1.50929e-11 -1.23208e-11)
(-6.64161e-13 -1.6702e-11 -1.38289e-11)
(8.47161e-13 -2.03613e-11 -1.35351e-11)
(1.44578e-12 -2.08425e-11 -1.08512e-11)
(-1.32379e-12 -2.08753e-11 -8.70032e-12)
(1.37074e-10 4.1556e-12 -6.98571e-12)
(4.11909e-07 5.62328e-08 -2.20196e-09)
(0.000145323 1.87243e-05 -7.58633e-07)
(0.00840595 0.0010031 -4.19989e-05)
(0.116263 0.0127797 -0.000547968)
(0.575609 0.059562 -0.0026108)
(1.47087 0.149242 -0.00671165)
(2.54026 0.261177 -0.0121097)
(3.4962 0.370446 -0.0177377)
(4.2057 0.463004 -0.0228432)
(4.66186 0.535728 -0.0271143)
(4.92013 0.591208 -0.0305388)
(5.05262 0.639633 -0.0335995)
(5.1231 0.676576 -0.0359913)
(5.11157 0.706646 -0.0379476)
(5.03177 0.725875 -0.0393482)
(4.87088 0.738533 -0.0405273)
(4.68396 0.7516 -0.041712)
(4.53009 0.773582 -0.0432254)
(4.44526 0.810293 -0.0453932)
(4.45843 0.856979 -0.0480301)
(-4.66019e-13 -1.21689e-11 -2.27131e-12)
(-1.76925e-12 -1.18064e-11 -4.11052e-13)
(-4.44726e-12 -9.65929e-12 -1.38113e-12)
(-7.76655e-12 -8.09322e-12 -4.08285e-12)
(-1.00264e-11 -7.04278e-12 -2.1797e-12)
(-8.24397e-12 -5.57687e-12 1.40387e-12)
(-6.47739e-12 -6.94397e-12 3.22094e-12)
(-3.81419e-12 -7.71497e-12 2.37576e-12)
(-3.72572e-12 -6.69567e-12 7.33736e-13)
(-3.03257e-12 -8.45623e-12 -6.47963e-13)
(-1.80077e-12 -8.39609e-12 -1.15788e-12)
(-4.61066e-12 -7.05043e-12 -7.83255e-13)
(-4.02033e-12 -5.95513e-12 -1.40422e-12)
(6.23831e-13 -7.80366e-12 -1.34842e-12)
(1.20284e-12 -1.40723e-11 -7.14172e-13)
(2.45123e-12 -1.41634e-11 -2.40903e-12)
(2.89428e-12 -1.48046e-11 7.45732e-14)
(7.58002e-13 -1.61513e-11 2.73016e-12)
(3.07828e-12 -1.69577e-11 8.97061e-14)
(3.94823e-12 -1.97014e-11 -5.49332e-13)
(-2.20272e-12 -1.77257e-11 3.29217e-13)
(-4.45067e-12 -1.29542e-11 3.53687e-12)
(-4.93319e-12 -1.43772e-11 8.3917e-12)
(-2.92297e-12 -1.69333e-11 1.17839e-11)
(6.38288e-13 -1.84995e-11 1.28228e-11)
(4.76369e-13 -2.03194e-11 1.38296e-11)
(-1.34325e-12 -1.92789e-11 1.54259e-11)
(-4.83859e-13 -1.98141e-11 1.67853e-11)
(1.69508e-12 -1.90515e-11 1.43358e-11)
(3.77612e-12 -1.87619e-11 1.21004e-11)
(3.42522e-12 -2.24331e-11 1.1272e-11)
(1.66933e-12 -2.13088e-11 9.84823e-12)
(1.33703e-13 -2.43399e-11 9.49912e-12)
(-1.76806e-12 -2.35756e-11 9.82407e-12)
(-9.57729e-13 -2.2328e-11 9.7869e-12)
(1.88002e-12 -2.04881e-11 7.4833e-12)
(2.6371e-12 -1.89713e-11 4.8309e-12)
(-2.40993e-12 -2.03143e-11 3.78617e-12)
(-6.20697e-12 -2.01315e-11 1.77748e-12)
(-3.3653e-12 -1.8795e-11 1.01994e-12)
(-3.32709e-12 -1.67451e-11 1.34264e-12)
(-7.24639e-12 -1.84279e-11 1.34636e-12)
(-8.88059e-12 -1.55358e-11 1.37798e-12)
(-4.34126e-12 -1.47516e-11 -4.80129e-13)
(1.46909e-12 -1.6942e-11 -2.32463e-12)
(2.14825e-12 -1.87778e-11 -3.71798e-12)
(2.35778e-12 -1.77624e-11 -5.25708e-12)
(2.59595e-12 -1.64442e-11 -5.31084e-12)
(3.19452e-12 -1.53603e-11 -6.38564e-12)
(3.44331e-12 -1.54405e-11 -5.40742e-12)
(1.095e-12 -1.76084e-11 -3.62261e-12)
(2.42078e-12 -1.75455e-11 -2.05643e-12)
(5.08165e-12 -2.16726e-11 3.94e-14)
(2.75834e-12 -2.23258e-11 1.72025e-12)
(1.22956e-12 -1.95127e-11 2.64557e-12)
(3.75541e-12 -1.91713e-11 3.43809e-12)
(3.95399e-12 -2.12316e-11 5.17429e-12)
(1.40374e-13 -2.08908e-11 6.39935e-12)
(-4.83158e-12 -2.10044e-11 4.3421e-12)
(-5.10112e-12 -1.80795e-11 9.10095e-13)
(-1.30139e-12 -1.97343e-11 -1.56586e-12)
(5.31401e-13 -1.82557e-11 -4.95844e-12)
(1.06902e-12 -1.71574e-11 -7.03494e-12)
(1.23739e-12 -1.80964e-11 -9.27453e-12)
(-2.59528e-12 -1.87893e-11 -9.83746e-12)
(-4.84495e-12 -1.52901e-11 -1.12869e-11)
(-2.04793e-12 -1.70911e-11 -1.15295e-11)
(-8.5154e-13 -1.77155e-11 -1.16318e-11)
(-1.33721e-12 -1.77899e-11 -1.10584e-11)
(-5.99629e-13 -1.66577e-11 -1.03307e-11)
(-5.0449e-13 -1.78751e-11 -9.85967e-12)
(-3.29127e-13 -1.81125e-11 -1.03816e-11)
(1.47865e-12 -1.72096e-11 -1.10908e-11)
(1.55875e-12 -1.69801e-11 -1.13402e-11)
(2.6322e-12 -1.70805e-11 -1.09597e-11)
(8.76259e-13 -1.84628e-11 -9.52038e-12)
(-3.20805e-12 -1.93851e-11 -8.67081e-12)
(6.29158e-11 -6.38541e-12 -8.29771e-12)
(2.39161e-07 3.50738e-08 -1.37285e-09)
(9.81879e-05 1.36388e-05 -5.43525e-07)
(0.00644075 0.000830459 -3.44615e-05)
(0.0980651 0.0116488 -0.000496676)
(0.518606 0.0578536 -0.00252398)
(1.3804 0.150537 -0.00673341)
(2.4417 0.269294 -0.0124073)
(3.40826 0.386961 -0.0184088)
(4.13504 0.487404 -0.023907)
(4.60758 0.566568 -0.028537)
(4.87801 0.627031 -0.0322649)
(5.01689 0.678634 -0.0355325)
(5.09461 0.720261 -0.0382162)
(5.08895 0.752543 -0.0403075)
(5.01781 0.774177 -0.0418529)
(4.86109 0.788072 -0.043119)
(4.67198 0.801089 -0.0443416)
(4.50977 0.821935 -0.0458234)
(4.41303 0.859427 -0.0480336)
(4.40623 0.906472 -0.0506661)
(-8.71315e-13 -1.46758e-11 -2.10027e-13)
(-3.4027e-12 -1.15237e-11 2.78075e-12)
(-5.36925e-12 -9.94272e-12 -7.39768e-13)
(-7.63667e-12 -8.98613e-12 -3.15748e-12)
(-9.69144e-12 -9.78324e-12 -2.93987e-12)
(-8.78206e-12 -1.03821e-11 -2.35362e-12)
(-6.86336e-12 -1.04953e-11 -1.9855e-12)
(-6.05278e-12 -7.71732e-12 -1.88375e-12)
(-3.62469e-12 -6.34067e-12 -2.3491e-12)
(-1.40531e-12 -7.05178e-12 -1.75435e-12)
(-3.37627e-12 -7.33875e-12 -1.54611e-12)
(-6.82814e-12 -5.0165e-12 -1.29432e-12)
(-3.7907e-12 -8.44407e-12 -7.49045e-13)
(4.85915e-12 -9.83741e-12 6.11013e-13)
(5.01476e-12 -1.27042e-11 4.41836e-12)
(2.27341e-12 -1.53805e-11 3.73726e-12)
(4.18523e-12 -1.42092e-11 3.91168e-12)
(2.73154e-12 -1.53782e-11 6.03069e-12)
(3.20831e-12 -1.57781e-11 2.30687e-12)
(3.82942e-12 -1.46048e-11 7.30754e-13)
(-2.71848e-12 -1.5149e-11 1.37773e-12)
(-6.45012e-12 -1.71186e-11 4.80746e-12)
(-4.12576e-12 -1.89559e-11 9.57457e-12)
(-5.9962e-13 -2.05768e-11 1.35172e-11)
(3.30691e-12 -2.0621e-11 1.33784e-11)
(1.07833e-12 -1.89248e-11 1.38987e-11)
(-8.44483e-13 -1.95294e-11 1.61626e-11)
(3.66013e-13 -2.05547e-11 2.01925e-11)
(5.5194e-14 -2.06066e-11 1.50351e-11)
(5.01209e-12 -2.139e-11 1.28824e-11)
(4.25449e-12 -2.13093e-11 1.16266e-11)
(3.65187e-12 -2.16992e-11 6.18203e-12)
(1.03252e-12 -2.36448e-11 6.66016e-12)
(-3.40684e-12 -2.05288e-11 1.00784e-11)
(-1.68889e-12 -1.97047e-11 9.25501e-12)
(-1.77218e-13 -1.89897e-11 4.9706e-12)
(1.04924e-12 -1.63684e-11 4.97888e-12)
(-1.63076e-12 -1.49774e-11 4.28729e-12)
(-6.45826e-12 -1.56935e-11 3.8322e-12)
(-6.29598e-12 -1.49148e-11 4.41107e-12)
(-4.08341e-12 -1.16209e-11 4.39475e-12)
(-6.62004e-12 -1.30657e-11 4.34253e-12)
(-1.00801e-11 -1.35843e-11 3.36469e-12)
(-2.80524e-12 -1.5395e-11 1.48764e-12)
(2.96737e-12 -1.63452e-11 -1.30015e-12)
(2.06517e-12 -1.75821e-11 -3.16762e-12)
(1.47663e-12 -1.51732e-11 -4.89418e-12)
(1.59053e-12 -1.36013e-11 -5.66231e-12)
(2.03883e-12 -1.42636e-11 -6.93462e-12)
(4.07755e-12 -1.34717e-11 -7.89911e-12)
(2.51659e-12 -1.3637e-11 -5.06163e-12)
(4.61142e-12 -1.5961e-11 -2.67289e-12)
(7.22724e-12 -1.60779e-11 1.26121e-13)
(2.4978e-12 -1.5936e-11 2.11968e-12)
(1.29747e-12 -1.72067e-11 4.34846e-12)
(4.09872e-12 -1.83218e-11 5.35522e-12)
(4.11501e-12 -1.59319e-11 5.98996e-12)
(2.62772e-13 -1.70957e-11 7.10638e-12)
(-5.69668e-12 -1.7637e-11 4.42934e-12)
(-5.4349e-12 -1.91378e-11 1.41383e-12)
(-1.01924e-13 -1.9387e-11 -3.97628e-13)
(2.99575e-13 -2.13363e-11 -2.06592e-12)
(3.21811e-13 -2.03476e-11 -4.20296e-12)
(-2.41657e-13 -1.91442e-11 -6.8118e-12)
(-4.06828e-12 -1.50884e-11 -8.23811e-12)
(-4.78823e-12 -1.5089e-11 -9.90939e-12)
(-2.08056e-13 -1.54079e-11 -1.05006e-11)
(-1.21479e-12 -1.50418e-11 -1.15731e-11)
(-2.09177e-12 -1.53592e-11 -1.30964e-11)
(6.64141e-13 -1.66182e-11 -1.08363e-11)
(-1.14822e-13 -1.696e-11 -9.56728e-12)
(-1.42746e-12 -1.7249e-11 -9.48617e-12)
(4.27855e-14 -1.80227e-11 -9.1625e-12)
(-5.88008e-13 -1.6208e-11 -9.69935e-12)
(1.87605e-12 -1.45292e-11 -9.67279e-12)
(2.1102e-12 -1.37488e-11 -1.02049e-11)
(-2.36692e-12 -1.43592e-11 -9.05814e-12)
(2.46731e-11 -8.72717e-12 -8.43556e-12)
(1.28018e-07 2.01156e-08 -7.88259e-10)
(6.24261e-05 9.32973e-06 -3.64735e-07)
(0.00472713 0.000657671 -2.69821e-05)
(0.0803883 0.0103086 -0.000436512)
(0.458978 0.0551401 -0.0023929)
(1.28149 0.149987 -0.00667109)
(2.33136 0.275351 -0.0126028)
(3.30859 0.401826 -0.0189832)
(4.05455 0.510842 -0.0248951)
(4.54568 0.597073 -0.02991)
(4.83008 0.663019 -0.0339694)
(4.97693 0.717866 -0.0374525)
(5.06128 0.764835 -0.0404692)
(5.06331 0.798973 -0.0426786)
(5.00157 0.823771 -0.0444149)
(4.85047 0.839266 -0.0457857)
(4.66017 0.852207 -0.0470478)
(4.48938 0.871731 -0.0485021)
(4.37891 0.908769 -0.0506984)
(4.35296 0.956176 -0.0533282)
(-4.79871e-12 -1.7226e-11 -3.34573e-12)
(-5.16958e-12 -1.46749e-11 -1.39745e-12)
(-5.77864e-12 -1.35986e-11 -2.64965e-12)
(-6.76359e-12 -1.41144e-11 -3.42203e-12)
(-6.99308e-12 -1.41843e-11 -3.50023e-12)
(-6.74164e-12 -1.5374e-11 -3.2558e-12)
(-8.64463e-12 -1.45345e-11 -3.23037e-12)
(-7.80802e-12 -1.10844e-11 -3.57027e-12)
(-5.16634e-12 -1.12801e-11 -3.34146e-12)
(-3.4156e-12 -9.13293e-12 -3.24251e-12)
(-2.50974e-12 -8.46765e-12 -2.80106e-12)
(-4.01131e-12 -1.17876e-11 -1.66354e-12)
(-9.72778e-13 -1.48731e-11 -1.33753e-12)
(3.83686e-12 -1.64138e-11 5.09333e-13)
(5.91267e-12 -1.5195e-11 4.11303e-12)
(3.64795e-12 -1.80371e-11 6.85437e-12)
(3.09745e-12 -1.7128e-11 4.05183e-12)
(2.83247e-12 -1.66281e-11 3.00642e-12)
(2.07563e-12 -1.66986e-11 1.80785e-12)
(3.6906e-12 -1.75138e-11 2.04038e-12)
(2.14093e-13 -1.89437e-11 2.46353e-12)
(-3.06953e-12 -2.23375e-11 5.39068e-12)
(-3.29513e-12 -2.59624e-11 8.75039e-12)
(-6.53035e-13 -2.72887e-11 1.17487e-11)
(8.77907e-13 -2.58121e-11 1.29014e-11)
(-6.40225e-13 -2.10395e-11 1.33325e-11)
(7.55445e-13 -2.12902e-11 1.37649e-11)
(1.24009e-12 -2.27504e-11 1.48599e-11)
(2.27512e-12 -2.26153e-11 1.2717e-11)
(4.66371e-12 -2.58558e-11 1.17621e-11)
(4.27899e-12 -2.42135e-11 9.54302e-12)
(4.82418e-12 -2.4321e-11 5.58855e-12)
(-1.35341e-12 -2.20738e-11 4.11071e-12)
(-7.26865e-12 -2.00145e-11 3.90781e-12)
(-2.87792e-12 -1.9336e-11 3.96981e-12)
(-6.04752e-13 -1.85354e-11 4.03176e-12)
(-1.20148e-12 -1.63582e-11 4.61424e-12)
(-3.46034e-12 -1.39167e-11 5.12396e-12)
(-5.07696e-12 -1.47471e-11 5.6519e-12)
(-6.00491e-12 -1.46456e-11 7.26537e-12)
(-5.13441e-12 -1.26765e-11 7.2791e-12)
(-5.76198e-12 -1.15818e-11 7.4012e-12)
(-6.90077e-12 -1.4616e-11 5.26041e-12)
(-1.89438e-12 -1.93046e-11 2.64262e-12)
(2.72559e-12 -1.79873e-11 4.80622e-15)
(5.14912e-13 -1.85043e-11 -2.38729e-12)
(-1.19874e-12 -1.54153e-11 -3.96045e-12)
(1.98407e-12 -1.49483e-11 -5.36914e-12)
(3.38703e-12 -1.54844e-11 -5.58319e-12)
(2.59082e-12 -1.44077e-11 -5.91186e-12)
(3.14616e-12 -1.28757e-11 -4.45689e-12)
(5.03629e-12 -1.40062e-11 -3.04208e-12)
(5.89959e-12 -1.21379e-11 2.75454e-13)
(3.71016e-12 -1.2618e-11 3.42793e-12)
(3.5148e-12 -1.6011e-11 4.85169e-12)
(3.45791e-12 -1.65754e-11 5.52428e-12)
(2.22695e-12 -1.43022e-11 5.27934e-12)
(1.58169e-12 -1.50725e-11 5.10126e-12)
(-2.85266e-12 -1.64875e-11 3.51683e-12)
(-3.25264e-12 -2.2607e-11 2.05705e-12)
(-1.52269e-13 -2.20256e-11 6.06355e-13)
(8.18137e-13 -2.3743e-11 -7.74398e-13)
(3.22695e-13 -2.10488e-11 -2.70551e-12)
(-3.78499e-12 -2.0356e-11 -5.41754e-12)
(-6.32522e-12 -1.63043e-11 -6.50308e-12)
(-4.415e-12 -1.91397e-11 -7.48764e-12)
(-2.43653e-12 -1.86709e-11 -8.62315e-12)
(-2.01938e-12 -1.51154e-11 -9.39763e-12)