/*--------------------------------*- C++ -*----------------------------------*\
| =========                 |                                                 |
| \\      /  F ield         | OpenFOAM: The Open Source CFD Toolbox           |
|  \\    /   O peration     | Version:  2406                                  |
|   \\  /    A nd           | Website:  www.openfoam.com                      |
|    \\/     M anipulation  |                                                 |
\*---------------------------------------------------------------------------*/
FoamFile
{
    version     2.0;
    format      ascii;
    arch        "LSB;label=32;scalar=64";
    class       volScalarField;
    location    "0.1";
    object      p;
}
// * * * * * * * * * * * * * * * * * * * * * * * * * * * * * * * * * * * * * //

dimensions      [1 -1 -2 0 0 0 0];

internalField   nonuniform List<scalar> 
14020
(
330018
330016
330015
330014
330012
330011
330010
330010
330012
330015
330020
330024
330029
330032
330036
330039
330042
330046
330052
330057
330062
330066
330070
330072
330073
330074
330075
330079
330083
330084
330082
330079
330074
330072
330072
330075
330079
330082
330083
330083
330082
330082
330083
330084
330085
330086
330085
330084
330081
330078
330074
330069
330065
330062
330061
330060
330059
330057
330055
330056
330057
330058
330058
330059
330060
330060
330059
330057
330057
330056
330055
330055
330055
330055
330054
330052
330051
330050
330049
330046
330043
330039
330035
330034
330034
330036
330037
330038
330039
330040
330039
330039
330040
330042
330042
330041
330038
330034
330030
330027
330026
330026
330027
330028
330028
330029
330029
330029
330028
330028
330028
330028
330026
330025
330024
330023
330022
330022
330023
330025
330025
330024
330022
330020
330017
330015
330015
330015
330016
330016
330016
330016
330015
330013
330011
330011
330011
330010
330010
330010
330010
330008
330008
330008
330009
330009
330009
330008
330006
330001
329990
329987
329989
329998
330017
330058
330071
330035
329849
329402
328677
327749
326706
325608
324488
323358
322226
321089
319954
318813
317676
316534
315399
314259
313127
311990
310862
309729
308606
307479
306361
305237
304124
303005
301897
300782
299679
298570
297472
296368
295275
294176
293090
291996
290916
289830
288757
287677
286610
285536
284476
283406
282352
281288
280241
279183
278143
277092
276058
275012
273984
272943
271920
270885
269869
268840
267831
266807
265805
264787
263794
262782
261797
260791
259814
258811
257843
256838
255897
254811
254128
330018
330016
330015
330014
330012
330011
330010
330010
330012
330015
330020
330024
330029
330032
330036
330039
330042
330046
330052
330057
330062
330066
330070
330072
330073
330074
330075
330079
330083
330084
330082
330079
330074
330072
330072
330075
330079
330082
330083
330083
330082
330082
330083
330084
330085
330086
330085
330084
330081
330078
330074
330069
330065
330062
330061
330060
330059
330057
330055
330056
330057
330058
330058
330059
330060
330060
330059
330057
330057
330056
330055
330055
330055
330055
330054
330052
330051
330050
330049
330046
330043
330039
330035
330034
330034
330036
330037
330038
330039
330040
330039
330039
330040
330042
330042
330041
330038
330034
330030
330027
330026
330026
330027
330028
330028
330029
330029
330029
330028
330028
330028
330028
330026
330025
330024
330023
330022
330022
330023
330025
330025
330024
330022
330020
330017
330015
330015
330015
330016
330016
330016
330016
330015
330013
330011
330011
330011
330010
330010
330010
330010
330008
330008
330008
330009
330009
330009
330008
330006
330001
329990
329987
329989
329998
330017
330058
330071
330035
329849
329402
328677
327749
326706
325608
324488
323358
322226
321089
319954
318813
317676
316534
315399
314259
313127
311990
310862
309729
308607
307478
306361
305237
304124
303005
301897
300782
299679
298569
297472
296367
295276
294176
293090
291996
290917
289829
288757
287676
286611
285536
284476
283406
282352
281288
280241
279183
278143
277092
276058
275012
273984
272942
271921
270884
269870
268839
267831
266806
265806
264786
263794
262781
261798
260790
259814
258810
257844
256836
255897
254811
254125
330018
330016
330015
330014
330012
330011
330010
330010
330012
330015
330020
330024
330029
330032
330036
330039
330042
330046
330052
330057
330062
330066
330070
330072
330073
330074
330075
330079
330083
330084
330082
330079
330074
330072
330072
330075
330079
330082
330083
330083
330082
330082
330083
330084
330085
330086
330085
330084
330081
330078
330074
330069
330065
330062
330061
330060
330059
330057
330055
330056
330057
330058
330058
330059
330060
330060
330059
330057
330057
330056
330055
330055
330055
330055
330054
330052
330051
330050
330049
330046
330043
330039
330035
330034
330034
330036
330037
330038
330039
330040
330039
330039
330040
330042
330042
330041
330038
330034
330030
330027
330026
330026
330027
330028
330028
330029
330029
330029
330028
330028
330028
330028
330026
330025
330024
330023
330022
330022
330023
330025
330025
330024
330022
330020
330017
330015
330015
330015
330016
330016
330016
330016
330015
330013
330011
330011
330010
330010
330010
330010
330010
330008
330008
330008
330009
330009
330009
330008
330006
330001
329990
329987
329989
329998
330017
330058
330071
330035
329849
329402
328677
327749
326706
325608
324488
323358
322226
321089
319954
318813
317676
316534
315399
314259
313127
311990
310862
309729
308607
307478
306361
305237
304124
303005
301897
300782
299679
298569
297472
296367
295276
294176
293090
291996
290917
289829
288757
287676
286611
285535
284476
283406
282352
281288
280241
279183
278144
277091
276058
275011
273984
272942
271921
270884
269870
268838
267832
266805
265806
264786
263795
262780
261798
260789
259815
258808
257845
256834
255899
254810
254124
330018
330016
330015
330014
330012
330011
330010
330010
330012
330015
330020
330024
330029
330032
330036
330039
330042
330046
330052
330057
330062
330066
330070
330072
330073
330074
330075
330079
330083
330084
330082
330079
330074
330072
330072
330075
330079
330082
330083
330083
330082
330082
330083
330084
330085
330086
330085
330084
330081
330078
330074
330069
330065
330062
330061
330060
330059
330057
330055
330056
330057
330058
330058
330059
330060
330060
330059
330057
330057
330055
330055
330055
330055
330055
330054
330052
330051
330050
330049
330046
330043
330039
330035
330034
330034
330036
330037
330038
330039
330040
330039
330039
330040
330042
330042
330041
330038
330034
330030
330027
330026
330026
330027
330028
330028
330029
330029
330029
330028
330028
330028
330028
330026
330025
330024
330023
330022
330022
330023
330025
330025
330024
330022
330020
330017
330015
330015
330015
330016
330016
330016
330016
330015
330013
330011
330011
330010
330010
330010
330010
330010
330008
330008
330008
330009
330009
330009
330008
330006
330001
329990
329987
329989
329998
330017
330058
330071
330035
329849
329402
328677
327749
326706
325607
324488
323358
322226
321089
319954
318813
317676
316534
315399
314258
313127
311989
310862
309729
308607
307478
306361
305237
304124
303005
301897
300782
299680
298569
297472
296367
295276
294176
293090
291996
290917
289829
288757
287676
286611
285535
284476
283405
282352
281287
280241
279183
278144
277091
276059
275011
273984
272941
271921
270883
269871
268838
267832
266805
265807
264785
263795
262779
261799
260787
259816
258806
257847
256832
255902
254808
254121
330018
330016
330015
330014
330012
330011
330010
330010
330012
330015
330020
330024
330029
330032
330036
330039
330042
330046
330052
330057
330062
330066
330070
330072
330073
330074
330075
330079
330083
330084
330082
330079
330074
330072
330072
330075
330079
330082
330083
330083
330082
330082
330083
330084
330085
330086
330085
330084
330081
330078
330074
330069
330065
330062
330061
330060
330059
330057
330055
330056
330057
330058
330058
330059
330060
330060
330059
330057
330056
330055
330055
330055
330055
330055
330054
330052
330051
330050
330049
330046
330043
330039
330035
330034
330034
330036
330037
330038
330039
330040
330039
330039
330040
330042
330042
330041
330038
330034
330030
330027
330026
330026
330027
330028
330028
330029
330029
330029
330028
330028
330028
330028
330026
330025
330024
330023
330022
330022
330023
330025
330025
330024
330022
330020
330017
330015
330015
330015
330016
330016
330016
330016
330015
330013
330011
330011
330010
330010
330010
330010
330010
330008
330008
330008
330009
330009
330009
330008
330006
330001
329990
329987
329989
329998
330017
330058
330071
330035
329849
329402
328677
327749
326706
325607
324488
323358
322226
321089
319954
318813
317676
316534
315399
314258
313127
311989
310862
309729
308607
307478
306361
305237
304124
303005
301897
300782
299680
298569
297472
296367
295276
294176
293090
291996
290917
289829
288757
287676
286611
285535
284476
283405
282352
281287
280242
279182
278144
277091
276059
275010
273984
272941
271922
270883
269871
268838
267833
266804
265807
264784
263796
262778
261800
260786
259818
258804
257849
256828
255905
254802
254119
330018
330016
330015
330014
330012
330011
330010
330010
330012
330015
330020
330024
330029
330032
330036
330039
330042
330046
330052
330057
330062
330066
330070
330072
330073
330074
330075
330079
330083
330084
330082
330079
330074
330072
330072
330075
330079
330082
330083
330083
330082
330082
330083
330084
330085
330086
330085
330084
330081
330078
330074
330069
330065
330062
330061
330060
330059
330057
330055
330056
330057
330058
330058
330059
330060
330060
330059
330057
330056
330055
330055
330055
330055
330055
330053
330052
330051
330050
330049
330046
330043
330039
330035
330034
330034
330036
330037
330038
330039
330040
330039
330039
330040
330042
330042
330041
330038
330034
330030
330027
330026
330026
330027
330028
330028
330029
330029
330029
330028
330028
330028
330028
330026
330025
330024
330023
330022
330022
330023
330025
330025
330024
330022
330020
330017
330015
330015
330015
330016
330016
330016
330016
330015
330013
330011
330011
330010
330010
330010
330010
330010
330008
330008
330008
330009
330009
330009
330008
330006
330001
329990
329987
329989
329998
330017
330058
330071
330035
329849
329402
328677
327749
326706
325607
324488
323358
322226
321089
319954
318813
317676
316534
315398
314258
313127
311990
310863
309729
308607
307478
306361
305236
304124
303005
301897
300782
299680
298569
297472
296367
295276
294175
293090
291996
290917
289829
288758
287676
286611
285534
284476
283405
282353
281287
280242
279182
278144
277091
276059
275010
273985
272940
271922
270883
269871
268837
267833
266804
265808
264784
263797
262777
261801
260784
259819
258802
257852
256823
255911
254791
254116
330018
330017
330015
330014
330012
330011
330010
330010
330012
330015
330020
330024
330029
330032
330036
330039
330042
330046
330052
330057
330062
330066
330070
330072
330073
330074
330075
330079
330083
330084
330082
330079
330074
330072
330072
330075
330079
330082
330083
330083
330082
330082
330083
330084
330085
330086
330085
330084
330081
330078
330074
330069
330065
330062
330061
330060
330059
330057
330055
330056
330057
330058
330059
330059
330060
330060
330059
330058
330056
330055
330055
330055
330055
330055
330053
330052
330051
330050
330049
330046
330043
330039
330035
330034
330034
330036
330037
330038
330039
330039
330039
330039
330040
330042
330042
330041
330038
330034
330030
330027
330026
330026
330027
330028
330028
330029
330029
330029
330028
330028
330028
330028
330026
330025
330024
330023
330022
330022
330023
330025
330025
330024
330022
330020
330017
330015
330015
330015
330016
330016
330016
330016
330015
330013
330011
330011
330010
330010
330010
330010
330010
330008
330008
330008
330009
330009
330009
330008
330006
330001
329990
329987
329989
329998
330017
330058
330071
330035
329849
329402
328677
327749
326706
325607
324488
323358
322227
321089
319954
318813
317676
316534
315398
314258
313127
311990
310863
309729
308607
307478
306361
305236
304124
303004
301897
300782
299680
298569
297472
296367
295276
294175
293090
291996
290917
289829
288758
287676
286611
285534
284476
283405
282353
281287
280242
279182
278144
277090
276059
275010
273985
272940
271922
270882
269872
268837
267834
266803
265809
264783
263797
262776
261801
260782
259821
258799
257854
256817
255917
254771
254116
330018
330017
330015
330014
330012
330011
330010
330010
330012
330015
330020
330024
330029
330032
330036
330039
330042
330046
330052
330057
330062
330066
330070
330072
330073
330074
330075
330079
330083
330084
330082
330079
330074
330072
330072
330075
330079
330082
330083
330083
330082
330082
330083
330084
330085
330086
330085
330084
330081
330078
330074
330069
330065
330062
330061
330060
330059
330057
330055
330056
330057
330058
330059
330059
330060
330060
330059
330058
330056
330055
330055
330055
330055
330055
330053
330052
330051
330050
330049
330046
330043
330039
330035
330034
330034
330036
330037
330038
330039
330039
330039
330039
330040
330042
330042
330041
330038
330034
330030
330027
330026
330026
330027
330028
330028
330029
330029
330029
330028
330028
330028
330028
330026
330025
330024
330023
330022
330022
330023
330025
330025
330024
330022
330020
330017
330015
330015
330015
330016
330016
330016
330016
330015
330013
330011
330011
330010
330010
330010
330010
330010
330008
330008
330008
330009
330009
330009
330008
330006
330001
329990
329987
329989
329998
330017
330058
330071
330035
329849
329402
328677
327749
326706
325607
324488
323358
322227
321089
319954
318813
317676
316534
315398
314258
313127
311990
310863
309729
308607
307478
306361
305236
304124
303004
301898
300782
299680
298569
297472
296367
295275
294175
293090
291996
290918
289829
288758
287675
286611
285534
284476
283404
282353
281287
280242
279182
278144
277090
276059
275010
273985
272940
271922
270882
269872
268837
267834
266803
265809
264782
263798
262775
261802
260781
259822
258797
257856
256813
255922
254745
254121
330018
330017
330015
330014
330012
330011
330010
330010
330012
330015
330020
330024
330029
330032
330036
330039
330042
330046
330052
330057
330062
330066
330070
330072
330073
330074
330075
330079
330083
330084
330082
330079
330074
330072
330072
330075
330079
330082
330083
330083
330082
330082
330083
330084
330085
330086
330085
330084
330081
330078
330074
330069
330065
330062
330061
330060
330059
330057
330055
330056
330057
330058
330059
330059
330060
330060
330059
330058
330056
330055
330055
330055
330055
330055
330053
330052
330051
330050
330049
330046
330043
330039
330035
330034
330034
330036
330037
330038
330039
330039
330039
330039
330040
330042
330042
330041
330038
330034
330030
330027
330026
330026
330027
330028
330028
330029
330029
330029
330028
330028
330028
330028
330026
330025
330024
330023
330022
330022
330023
330025
330025
330024
330022
330020
330017
330015
330015
330015
330016
330016
330016
330016
330015
330013
330011
330011
330010
330010
330010
330010
330009
330008
330008
330008
330009
330009
330009
330008
330006
330001
329990
329987
329989
329998
330017
330058
330071
330035
329849
329402
328677
327749
326706
325607
324488
323358
322227
321089
319954
318813
317676
316534
315398
314258
313127
311990
310863
309729
308607
307478
306361
305236
304124
303004
301898
300782
299680
298569
297472
296367
295275
294175
293091
291996
290918
289829
288758
287675
286611
285534
284476
283404
282353
281287
280242
279182
278145
277090
276059
275009
273985
272940
271922
270882
269872
268836
267834
266803
265809
264781
263799
262774
261802
260780
259823
258795
257859
256809
255927
254714
254133
105292
106106
106947
107776
108648
109654
110853
112205
113582
114875
116077
117265
118543
119969
121527
123185
124951
126866
128942
131130
133308
135355
136479
135431
129728
120039
108907
95068.1
87194.1
82281.2
71785.8
59909.3
55747.4
55063.3
56461.7
61417.5
67239.4
73510.6
80129.4
86924.4
92898.4
98376.4
102994
107157
110581
113081
114823
116056
116065
114807
112599
110338
108195
106436
104934
103653
102562
101622
101117
100367
100682
101265
102106
103452
104120
103444
102920
102706
102664
102552
102342
101905
101327
100742
99920.1
99202.6
99391.4
99466.8
99063
99986.4
100805
101695
102468
102622
102695
103017
103355
103858
104296
104825
105015
105055
104883
104793
104951
105100
105154
105094
105020
106368
104622
105211
106008
106841
107661
108511
109481
110634
111945
113296
114569
115740
116875
118078
119418
120894
122471
124142
125935
127862
129887
131882
133654
134344
132683
126466
116409
104698
90530
84396.8
79417.7
71557.3
61343.2
56236.4
55321.4
56249.3
60458.5
66237.4
72759.7
79672.1
86643.3
92972
98985.7
103794
107860
111051
113343
114823
115627
115348
114126
112207
110022
108076
106329
104966
103841
102975
102218
101753
101371
101395
101855
102112
102675
102980
102848
102647
102516
102413
102262
102114
101894
101525
101150
100470
99904.6
99858.6
100109
99933.1
100407
101052
101384
101874
102293
102459
102897
103155
103557
104086
104456
104767
104901
104841
104796
104874
104969
104923
104828
104748
104571
105123
105899
106723
107533
108362
109293
110396
111661
112979
114230
115371
116453
117577
118821
120198
121678
123236
124884
126631
128441
130180
131578
131740
129474
123195
113198
100876
87439.5
82255.8
76825.3
70030.2
61927.3
56441.1
55435
56251.1
59665
65309.2
71641
78639.3
86022.4
92861.1
98738.8
103851
107815
111029
113240
114503
115037
114620
113515
111967
110212
108446
106806
105400
104244
103387
102674
102161
101925
101848
102145
102335
102617
102741
102644
102598
102552
102490
102355
102236
102070
101843
101543
101019
100432
100169
100286
100340
100400
100747
101104
101467
101898
102259
102702
103161
103608
104105
104559
104346
104518
105028
105779
106593
107392
108200
109092
110141
111351
112631
113857
114970
116001
117044
118182
119445
120809
122239
123725
125262
126814
128241
129248
128959
126181
120038
110421
98018.9
85193.8
80126.6
74229.9
67410
60743.4
55698.8
54634.7
55449.1
58426.6
64484.3
70692.3
77649.7
85342.1
91766
97889
103389
107459
110535
112659
113857
114302
113852
112856
111493
109962
108400
106884
105523
104380
103510
104328
104466
104926
105647
106448
107237
108025
108877
109868
111018
112252
113449
114533
115517
116480
117506
118641
119872
121158
122467
123776
125039
126118
126748
126134
123118
117397
108349
95852.8
83707.7
77840.8
72260.2
65675.1
59653.7
55358.8
53822.3
54382.9
56634.9
62652
69088.7
76344.3
84589.4
91588.2
97993.9
102867
106661
109579
111634
112792
113183
112932
112173
111060
109807
108455
107117
105860
104311
104415
104819
105502
106288
107068
107836
108649
109580
110662
111842
113005
114061
115002
115889
116803
117799
118882
120009
121132
122205
123167
123883
124184
123303
120270
115064
107656
94856.1
83306.7
76332.1
70628.3
64271.5
58211.8
54455.4
52713.5
53053.1
55581.6
61318
68004.4
75436.1
83583.2
90563.2
96536.7
101714
105797
108671
110503
111534
111926
111782
111166
110225
109171
108039
106910
104294
104367
104709
105346
106113
106883
107634
108409
109279
110288
111404
112526
113552
114455
115272
116077
116932
117854
118810
119742
120584
121263
121665
121651
120509
117740
113042
106064
96543.7
84843.5
76373.9
69468.2
63149.4
57605.2
54059.6
52509.2
52601.7
55220
60802.9
67715.5
75380.2
83414.5
90464.3
96465.4
101387
104762
107396
109180
110210
110642
110584
110153
109411
108508
107550
106574
104278
104323
104598
105180
105921
106681
107416
108157
108968
109899
110942
112013
113008
113875
114633
115338
116054
116810
117588
118327
118951
119376
119548
119207
117841
115278
111295
105265
97371.2
88403.8
80049.9
72403.3
65702.3
60268.7
56593.5
54867.4
54688
57134.1
62729.7
69426.9
76592.1
83969.1
90532.7
95943.1
100402
103683
106215
107946
108914
109307
109300
109020
108456
107699
106923
106119
104262
104284
104490
105005
105713
106460
107182
107894
108647
109499
110461
111470
112428
113264
113971
114591
115179
115773
116371
116921
117346
117568
117530
116928
115503
113204
109795
104867
98528.6
91020.4
83713.9
77583.1
71332.9
65117.3
60466.3
58244
58022.5
60327.3
65870.4
72604.9
78850.4
84922.5
90703.1
95661.6
99689.1
102771
104963
106468
107435
107944
108071
107940
107565
106977
106335
105659
104248
104249
104391
104827
105490
106220
106931
107617
108320
109094
109968
110904
111816
112622
113289
113838
114316
114763
115189
115559
115805
115881
115635
114854
113495
111439
108462
104468
99498.5
93728.1
87496.8
81507.6
75985.1
71371.5
67648.9
65218.8
64433.6
65501.3
69671.2
76248.8
82157.7
87059.9
91655.3
95806.4
99206.9
101865
103839
105251
106181
106711
106910
106878
106653
106232
105739
105228
104235
104219
104305
104649
105252
105960
106661
107327
107986
108688
109470
110323
111178
111950
112586
113083
113473
113795
114069
114279
114382
114302
113875
113043
111797
109962
107385
104102
100140
95703.8
90860.4
85973.5
81253.8
76843.3
73354.6
71568.4
71168.5
71630.7
74138.1
79395.3
84716.7
88846.4
92468.2
95832.4
98710.9
101039
102838
104156
105050
105578
105829
105885
105783
105518
105163
104799
104223
104192
104234
104481
105006
105680
106370
107022
107647
108284
108978
109738
110523
111255
111864
112325
112651
112876
113028
113110
113095
112852
112295
111482
110354
108732
106519
103781
100602
97069.9
93283.8
89385.8
85603.3
82082.6
79230
77390.2
76646.8
76895.9
78747.5
82853.8
87279.7
90715.6
93610.5
96294.7
98650.1
100584
102103
103263
104099
104654
104970
105099
105098
104966
104717
104438
104213
104169
104178
104332
104760
105383
106056
106698
107298
107884
108497
109162
109865
110544
111126
111564
111850
112008
112074
112076
111943
111555
110935
110149
109126
107713
105835
103555
100966
98114.8
95100.5
92005.4
88992
86215
83898.3
82303.1
81624.6
81703.5
82913.6
85907.3
89481.7
92350.9
94680
96777.5
98648.1
100225
101518
102536
103307
103858
104214
104407
104474
104446
104323
104130
104206
104150
104133
104212
104525
105074
105720
106353
106938
107486
108031
108606
109217
109830
110378
110799
111066
111188
111213
111157
110929
110455
109797
109030
108096
106871
105293
103405
101281
98966.2
96528.8
94060.5
91658
89453.3
87595.3
86268.5
85603.8
85504
86274.5
88494.5
91362.5
93737.3
95643.2
97322.4
98825.6
100114
101187
102053
102735
103249
103613
103846
103969
104009
103976
103871
104203
104133
104098
104124
104316
104764
105364
105985
106562
107086
107580
108077
108597
109131
109630
110034
110297
110410
110422
110336
110063
109547
108871
108121
107260
106190
104863
103305
101563
99679.2
97702.6
95704.9
93774.6
92009.8
90519.3
89427
88831.5
88678.5
89130.5
90643.6
92852.8
94805.4
96402.7
97801.3
99045.1
100121
101022
101759
102348
102806
103145
103381
103528
103602
103619
103580
104206
104122
104070
104061
104153
104473
104997
105593
106164
106678
107140
107578
108017
108465
108902
109277
109539
109663
109681
109597
109327
108812
108139
107413
106615
105670
104541
103249
101815
100280
98675.8
97056.8
95490.2
94053.7
92837.8
91928.9
91399.1
91225.8
91448.1
92426.5
94134.6
95747.2
97076.9
98246
99289.2
100197
100967
101610
102129
102534
102843
103067
103216
103303
103339
103336
104215
104117
104048
104016
104041
104224
104636
105183
105743
106254
106703
107103
107480
107850
108214
108546
108799
108938
108973
108913
108688
108216
107573
106881
106144
105306
104335
103246
102057
100796
99487.3
98170.5
96894.8
95718.4
94707.6
93931.5
93449.8
93267.7
93351.9
93939
95210.1
96544.1
97663
98651.1
99539.1
100315
100983
101542
102007
102378
102665
102876
103021
103111
103155
103168
104231
104120
104035
103982
103969
104042
104311
104769
105300
105809
106257
106642
106980
107291
107587
107862
108089
108236
108289
108264
108107
107718
107136
106493
105818
105074
104238
103310
102315
101265
100185
99102.3
98054
97081.6
96233.7
95562.3
95114.1
94911.1
94905.1
95219.1
96096.6
97197.5
98157.2
98999.5
99763.7
100438
101022
101517
101934
102277
102549
102757
102906
103006
103062
103086
104254
104133
104031
103958
103920
103929
104056
104382
104846
105340
105792
106180
106504
106781
107025
107245
107433
107570
107636
107639
107548
107266
106783
106211
105603
104944
104222
103435
102596
101715
100812
99910.3
99036.5
98221.2
97499.4
96909.3
96488
96260.5
96200.5
96336.5
96862
97729.4
98559.3
99284.9
99948.3
100544
101061
101504
101879
102193
102451
102657
102814
102929
103004
103045
104284
104155
104039
103947
103886
103861
103893
104066
104414
104858
105304
105701
106033
106302
106521
106701
106849
106961
107026
107043
106999
106819
106459
105989
105463
104886
104261
103593
102885
102145
101388
100630
99893.5
99200.5
98577
98050.8
97650.4
97399
97299.6
97324.6
97575.9
98182.7
98885.9
99515.7
100092
100623
101091
101493
101834
102121
102361
102559
102718
102841
102933
102994
104319
104188
104062
103952
103869
103818
103803
103855
104052
104395
104802
105200
105547
105829
106049
106216
106340
106427
106479
106497
106476
106366
106121
105773
105351
104867
104334
103766
103167
102544
101908
101269
100645
100051
99508.1
99035.5
98654.9
98386.2
98242
98204
98288
98619.5
99164.8
99705.8
100202
100668
101094
101470
101791
102060
102284
102468
102619
102742
102838
102911
104357
104228
104097
103974
103870
103795
103752
103744
103807
104006
104322
104687
105038
105341
105581
105761
105886
105964
106005
106018
106004
105930
105766
105525
105217
104841
104407
103935
103432
102908
102371
101831
101299
100789
100314
99888.9
99530.2
99252.9
99070.1
98986
98980
99100.6
99439.5
99877.2
100296
100693
101070
101417
101724
101988
102206
102385
102530
102648
102742
102817
104393
104273
104142
104012
103894
103796
103726
103687
103682
103744
103924
104203
104522
104830
105095
105302
105451
105545
105592
105605
105595
105544
105426
105253
105038
104769
104440
104069
103662
103229
102779
102323
101869
101429
101012
100631
100297
100021
99813.9
99684.3
99630.8
99641.5
99774
100068
100405
100732
101048
101349
101629
101883
102104
102289
102440
102562
102658
102735
104417
104316
104193
104063
103936
103822
103728
103662
103624
103617
103667
103815
104047
104320
104587
104820
105002
105130
105205
105236
105237
105210
105129
104997
104835
104644
104413
104136
103828
103486
103121
102743
102360
101982
101617
101276
100967
100699
100482
100322
100224
100185
100202
100323
100554
100811
101064
101312
101548
101771
101978
102163
102323
102457
102566
102653
104424
104348
104244
104121
103992
103869
103759
103668
103603
103564
103551
103583
103690
103872
104095
104323
104527
104691
104807
104874
104900
104898
104862
104774
104646
104500
104334
104137
103912
103661
103382
103081
102767
102450
102135
101833
101550
101296
101076
100898
100767
100686
100653
100667
100762
100934
101126
101323
101515
101696
101870
102035
102186
102320
102436
102533
104408
104362
104283
104178
104056
103931
103812
103705
103617
103552
103509
103490
103500
103564
103693
103865
104052
104228
104376
104485
104553
104582
104584
104552
104473
104362
104235
104092
103929
103749
103551
103328
103086
102832
102572
102312
102061
101824
101610
101423
101270
101155
101080
101046
101051
101114
101234
101376
101525
101673
101814
101948
102074
102191
102299
102394
104368
104350
104302
104221
104118
104001
103880
103766
103662
103575
103509
103462
103436
103429
103456
103531
103650
103792
103936
104066
104169
104240
104278
104288
104269
104212
104124
104019
103901
103768
103627
103474
103304
103116
102917
102710
102501
102295
102098
101915
101754
101617
101510
101434
101392
101384
101416
101489
101588
101698
101811
101918
102021
102119
102210
102293
104308
104308
104291
104243
104163
104065
103955
103840
103731
103631
103544
103476
103426
103391
103374
103375
103404
103470
103563
103669
103774
103866
103937
103985
104006
104003
103972
103912
103834
103740
103636
103526
103409
103284
103146
102997
102840
102680
102518
102360
102210
102072
101951
101851
101774
101723
101701
101706
101739
101798
101872
101953
102034
102113
102187
102256
104223
104242
104245
104230
104186
104110
104019
103917
103811
103707
103612
103527
103455
103401
103361
103334
103321
103322
103343
103388
103451
103523
103594
103656
103705
103736
103746
103738
103708
103658
103591
103513
103428
103340
103247
103149
103044
102932
102815
102697
102579
102464
102356
102257
102171
102099
102046
102012
101999
102004
102027
102068
102118
102172
102228
102283
104099
104147
104171
104177
104167
104130
104062
103979
103887
103790
103694
103603
103522
103450
103389
103344
103312
103288
103275
103273
103281
103303
103337
103378
103419
103457
103487
103505
103510
103501
103477
103436
103385
103324
103257
103189
103117
103042
102964
102882
102799
102715
102634
102556
102484
102418
102362
102316
102283
102263
102255
102259
102274
102301
102334
102368
103921
104007
104063
104093
104105
104100
104074
104016
103942
103861
103775
103689
103605
103526
103456
103395
103342
103303
103276
103255
103240
103231
103230
103234
103244
103258
103274
103289
103300
103306
103306
103295
103274
103244
103205
103159
103108
103054
102999
102943
102884
102824
102765
102707
102652
102601
102555
102515
102483
102459
102443
102435
102434
102441
102456
102476
103684
103809
103902
103966
104006
104025
104028
104012
103968
103905
103836
103762
103686
103611
103539
103471
103411
103357
103312
103276
103250
103232
103217
103204
103195
103189
103184
103181
103178
103175
103170
103163
103151
103135
103114
103088
103056
103021
102982
102940
102897
102853
102808
102763
102719
102678
102639
102604
102574
102549
102530
102518
102511
102509
102513
102523
103412
103555
103681
103781
103855
103906
103937
103948
103943
103916
103867
103808
103746
103682
103617
103553
103491
103433
103380
103334
103294
103260
103235
103216
103202
103189
103178
103166
103156
103145
103133
103120
103106
103090
103072
103051
103027
102999
102969
102937
102902
102866
102828
102789
102751
102713
102677
102644
102614
102588
102566
102549
102537
102531
102528
102530
103166
103288
103416
103538
103643
103727
103791
103834
103858
103864
103853
103821
103776
103725
103672
103619
103564
103510
103457
103407
103361
103320
103285
103254
103230
103210
103194
103181
103169
103157
103145
103132
103118
103102
103085
103066
103045
103022
102997
102969
102940
102910
102877
102843
102809
102774
102739
102705
102673
102644
102617
102595
102576
102561
102551
102546
103012
103079
103170
103277
103387
103491
103582
103656