/*--------------------------------*- C++ -*----------------------------------*\
| =========                 |                                                 |
| \\      /  F ield         | OpenFOAM: The Open Source CFD Toolbox           |
|  \\    /   O peration     | Version:  2406                                  |
|   \\  /    A nd           | Website:  www.openfoam.com                      |
|    \\/     M anipulation  |                                                 |
\*---------------------------------------------------------------------------*/
FoamFile
{
    version     2.0;
    format      ascii;
    arch        "LSB;label=32;scalar=64";
    class       volScalarField;
    location    "0.1";
    object      rho;
}
// * * * * * * * * * * * * * * * * * * * * * * * * * * * * * * * * * * * * * //

dimensions      [1 -3 0 0 0 0 0];

internalField   nonuniform List<scalar> 
14020
(
4.73931
4.7393
4.73929
4.73927
4.73925
4.73924
4.73923
4.73923
4.73925
4.73928
4.73933
4.73938
4.73942
4.73946
4.7395
4.73953
4.73956
4.73961
4.73967
4.73973
4.73978
4.73982
4.73986
4.73988
4.73989
4.73991
4.73993
4.73997
4.74002
4.74003
4.74003
4.74
4.73995
4.73993
4.73993
4.73996
4.74
4.74002
4.74003
4.74003
4.74002
4.74002
4.74003
4.74004
4.74005
4.74005
4.74004
4.74002
4.74
4.73996
4.73991
4.73986
4.73982
4.73979
4.73977
4.73976
4.73975
4.73972
4.73971
4.73971
4.73972
4.73973
4.73974
4.73974
4.73975
4.73974
4.73974
4.73972
4.73971
4.7397
4.7397
4.73969
4.7397
4.73969
4.73968
4.73967
4.73966
4.73965
4.73963
4.73961
4.73958
4.73954
4.7395
4.73949
4.73949
4.73951
4.73953
4.73954
4.73955
4.73955
4.73956
4.73956
4.73957
4.73958
4.73959
4.73958
4.73955
4.73951
4.73947
4.73944
4.73944
4.73944
4.73945
4.73946
4.73947
4.73948
4.73948
4.73948
4.73947
4.73947
4.73947
4.73947
4.73945
4.73943
4.73942
4.73941
4.7394
4.7394
4.73941
4.73942
4.73942
4.73941
4.73939
4.73937
4.73934
4.73932
4.73931
4.73931
4.73932
4.73932
4.73932
4.73931
4.7393
4.73928
4.73926
4.73926
4.73925
4.73925
4.73925
4.73925
4.73925
4.73923
4.73923
4.73924
4.73925
4.73926
4.73925
4.73925
4.73923
4.73917
4.73908
4.73904
4.73906
4.73914
4.73934
4.73976
4.73989
4.73952
4.73761
4.73302
4.72559
4.71606
4.70534
4.69404
4.68252
4.67087
4.6592
4.64746
4.63572
4.62392
4.61214
4.60031
4.58852
4.57668
4.56491
4.55307
4.54132
4.5295
4.51778
4.50599
4.49429
4.48252
4.47085
4.4591
4.44745
4.43573
4.42411
4.41241
4.40083
4.38916
4.37761
4.36597
4.35445
4.34285
4.33138
4.31983
4.30841
4.2969
4.28553
4.27406
4.26272
4.25128
4.23998
4.22857
4.21733
4.20597
4.19477
4.18345
4.1723
4.16101
4.1499
4.13864
4.12757
4.11635
4.10533
4.09414
4.08317
4.07202
4.0611
4.04999
4.03915
4.02808
4.0173
4.00627
3.99556
3.98454
3.9739
3.96284
3.95247
3.94049
3.93295
4.73931
4.7393
4.73929
4.73927
4.73925
4.73924
4.73923
4.73923
4.73925
4.73928
4.73933
4.73938
4.73942
4.73946
4.7395
4.73953
4.73956
4.73961
4.73967
4.73973
4.73978
4.73982
4.73986
4.73988
4.73989
4.73991
4.73993
4.73997
4.74002
4.74003
4.74003
4.74
4.73995
4.73993
4.73993
4.73996
4.74
4.74002
4.74003
4.74003
4.74002
4.74002
4.74003
4.74004
4.74005
4.74005
4.74004
4.74002
4.74
4.73996
4.73991
4.73986
4.73982
4.73979
4.73977
4.73976
4.73975
4.73972
4.73971
4.73971
4.73972
4.73973
4.73974
4.73974
4.73975
4.73974
4.73974
4.73972
4.73971
4.7397
4.7397
4.73969
4.7397
4.73969
4.73968
4.73967
4.73966
4.73965
4.73963
4.73961
4.73958
4.73954
4.7395
4.73949
4.73949
4.73951
4.73953
4.73954
4.73955
4.73955
4.73956
4.73956
4.73957
4.73958
4.73959
4.73958
4.73955
4.73951
4.73947
4.73944
4.73944
4.73944
4.73945
4.73946
4.73947
4.73948
4.73948
4.73948
4.73947
4.73947
4.73947
4.73947
4.73945
4.73943
4.73942
4.73941
4.7394
4.7394
4.73941
4.73942
4.73942
4.73941
4.73939
4.73937
4.73934
4.73932
4.73931
4.73931
4.73932
4.73932
4.73932
4.73931
4.7393
4.73928
4.73926
4.73926
4.73925
4.73925
4.73925
4.73925
4.73925
4.73923
4.73923
4.73924
4.73925
4.73926
4.73925
4.73925
4.73923
4.73917
4.73908
4.73904
4.73906
4.73914
4.73934
4.73976
4.73989
4.73952
4.73761
4.73302
4.72559
4.71606
4.70534
4.69404
4.68252
4.67087
4.6592
4.64746
4.63572
4.62392
4.61214
4.60031
4.58852
4.57668
4.56491
4.55307
4.54132
4.5295
4.51778
4.50598
4.49429
4.48252
4.47085
4.4591
4.44745
4.43572
4.42411
4.41241
4.40083
4.38916
4.37761
4.36597
4.35446
4.34285
4.33139
4.31983
4.30841
4.2969
4.28553
4.27405
4.26272
4.25127
4.23998
4.22857
4.21733
4.20596
4.19478
4.18345
4.17231
4.16101
4.14991
4.13864
4.12758
4.11634
4.10533
4.09413
4.08317
4.07201
4.06111
4.04999
4.03915
4.02807
4.01731
4.00626
3.99556
3.98453
3.97391
3.96282
3.95247
3.94049
3.93292
4.73931
4.7393
4.73929
4.73927
4.73925
4.73924
4.73923
4.73923
4.73925
4.73928
4.73933
4.73938
4.73942
4.73946
4.7395
4.73953
4.73956
4.73961
4.73967
4.73973
4.73978
4.73982
4.73986
4.73988
4.73989
4.73991
4.73993
4.73997
4.74002
4.74003
4.74003
4.74
4.73995
4.73993
4.73993
4.73996
4.74
4.74002
4.74003
4.74003
4.74002
4.74002
4.74003
4.74004
4.74005
4.74005
4.74004
4.74002
4.74
4.73996
4.73991
4.73986
4.73982
4.73979
4.73977
4.73976
4.73975
4.73972
4.73971
4.73971
4.73972
4.73973
4.73974
4.73974
4.73975
4.73974
4.73974
4.73972
4.73971
4.7397
4.7397
4.73969
4.7397
4.73969
4.73968
4.73967
4.73966
4.73965
4.73963
4.73961
4.73958
4.73954
4.7395
4.73949
4.73949
4.73951
4.73953
4.73954
4.73955
4.73955
4.73956
4.73956
4.73957
4.73958
4.73959
4.73958
4.73955
4.73951
4.73947
4.73944
4.73944
4.73944
4.73945
4.73946
4.73947
4.73948
4.73948
4.73948
4.73947
4.73947
4.73947
4.73947
4.73945
4.73943
4.73942
4.73941
4.7394
4.7394
4.73941
4.73942
4.73942
4.73941
4.73939
4.73937
4.73934
4.73932
4.73931
4.73931
4.73932
4.73932
4.73932
4.73931
4.7393
4.73928
4.73926
4.73926
4.73925
4.73925
4.73925
4.73925
4.73925
4.73923
4.73923
4.73924
4.73925
4.73926
4.73925
4.73925
4.73923
4.73917
4.73908
4.73904
4.73906
4.73914
4.73934
4.73976
4.73989
4.73952
4.73761
4.73302
4.72559
4.71606
4.70534
4.69404
4.68252
4.67087
4.6592
4.64746
4.63572
4.62392
4.61214
4.60031
4.58852
4.57668
4.56491
4.55307
4.54132
4.5295
4.51778
4.50598
4.49429
4.48252
4.47085
4.45909
4.44745
4.43572
4.42411
4.41241
4.40083
4.38916
4.37761
4.36597
4.35446
4.34285
4.33139
4.31982
4.30841
4.29689
4.28553
4.27405
4.26272
4.25127
4.23998
4.22857
4.21733
4.20596
4.19478
4.18344
4.17231
4.161
4.14991
4.13863
4.12758
4.11634
4.10534
4.09413
4.08318
4.072
4.06111
4.04998
4.03916
4.02806
4.01731
4.00625
3.99557
3.98451
3.97392
3.9628
3.9525
3.94048
3.9329
4.73931
4.7393
4.73929
4.73927
4.73925
4.73924
4.73923
4.73923
4.73925
4.73928
4.73933
4.73938
4.73942
4.73946
4.7395
4.73953
4.73956
4.73961
4.73967
4.73973
4.73978
4.73982
4.73986
4.73988
4.73989
4.73991
4.73993
4.73997
4.74002
4.74003
4.74003
4.74
4.73995
4.73993
4.73993
4.73996
4.74
4.74002
4.74003
4.74003
4.74002
4.74002
4.74003
4.74004
4.74005
4.74005
4.74004
4.74002
4.74
4.73996
4.73991
4.73986
4.73982
4.73979
4.73977
4.73976
4.73975
4.73972
4.73971
4.73971
4.73972
4.73973
4.73974
4.73974
4.73975
4.73974
4.73974
4.73972
4.73971
4.7397
4.7397
4.73969
4.7397
4.73969
4.73968
4.73967
4.73966
4.73965
4.73963
4.73961
4.73958
4.73954
4.7395
4.73949
4.73949
4.73951
4.73953
4.73954
4.73955
4.73955
4.73956
4.73956
4.73957
4.73958
4.73959
4.73958
4.73955
4.73951
4.73947
4.73944
4.73944
4.73944
4.73945
4.73946
4.73947
4.73948
4.73948
4.73948
4.73947
4.73947
4.73947
4.73947
4.73945
4.73943
4.73942
4.73941
4.7394
4.7394
4.73941
4.73942
4.73942
4.73941
4.73939
4.73937
4.73934
4.73932
4.73931
4.73931
4.73932
4.73932
4.73932
4.73931
4.7393
4.73928
4.73926
4.73926
4.73925
4.73925
4.73925
4.73925
4.73925
4.73923
4.73923
4.73924
4.73925
4.73926
4.73925
4.73925
4.73923
4.73917
4.73908
4.73904
4.73906
4.73914
4.73934
4.73976
4.73989
4.73952
4.73761
4.73302
4.72559
4.71605
4.70534
4.69404
4.68252
4.67087
4.6592
4.64746
4.63572
4.62392
4.61215
4.60031
4.58852
4.57668
4.56491
4.55307
4.54132
4.5295
4.51778
4.50598
4.49429
4.48251
4.47085
4.45909
4.44745
4.43572
4.42411
4.41241
4.40083
4.38915
4.37761
4.36596
4.35446
4.34285
4.33139
4.31982
4.30841
4.29689
4.28553
4.27404
4.26272
4.25127
4.23999
4.22856
4.21733
4.20596
4.19478
4.18344
4.17231
4.161
4.14991
4.13863
4.12758
4.11633
4.10534
4.09412
4.08318
4.072
4.06112
4.04997
4.03916
4.02805
4.01732
4.00623
3.99558
3.98449
3.97394
3.96277
3.95252
3.94046
3.93288
4.73931
4.7393
4.73929
4.73927
4.73925
4.73924
4.73923
4.73923
4.73925
4.73928
4.73933
4.73938
4.73942
4.73946
4.7395
4.73953
4.73956
4.73961
4.73967
4.73973
4.73978
4.73982
4.73986
4.73988
4.73989
4.73991
4.73993
4.73997
4.74002
4.74003
4.74003
4.74
4.73995
4.73993
4.73993
4.73996
4.74
4.74002
4.74003
4.74003
4.74002
4.74002
4.74003
4.74004
4.74005
4.74005
4.74004
4.74002
4.74
4.73996
4.73991
4.73986
4.73982
4.73979
4.73977
4.73976
4.73975
4.73972
4.73971
4.73971
4.73972
4.73973
4.73974
4.73974
4.73975
4.73974
4.73974
4.73972
4.73971
4.7397
4.7397
4.73969
4.7397
4.73969
4.73968
4.73967
4.73966
4.73965
4.73963
4.73961
4.73958
4.73954
4.7395
4.73949
4.73949
4.73951
4.73953
4.73954
4.73955
4.73955
4.73956
4.73956
4.73957
4.73958
4.73959
4.73958
4.73955
4.73951
4.73947
4.73944
4.73944
4.73944
4.73945
4.73946
4.73947
4.73948
4.73948
4.73948
4.73947
4.73947
4.73947
4.73947
4.73945
4.73943
4.73942
4.73941
4.7394
4.7394
4.73941
4.73942
4.73942
4.73941
4.73939
4.73937
4.73934
4.73932
4.73931
4.73931
4.73932
4.73932
4.73932
4.73931
4.7393
4.73928
4.73926
4.73926
4.73925
4.73925
4.73925
4.73925
4.73925
4.73923
4.73923
4.73924
4.73925
4.73926
4.73925
4.73925
4.73923
4.73917
4.73908
4.73904
4.73906
4.73914
4.73934
4.73976
4.73989
4.73952
4.73761
4.73302
4.72559
4.71605
4.70533
4.69404
4.68252
4.67087
4.6592
4.64746
4.63572
4.62392
4.61215
4.60031
4.58852
4.57668
4.56491
4.55307
4.54132
4.5295
4.51778
4.50598
4.49429
4.48251
4.47085
4.45909
4.44745
4.43572
4.42411
4.41241
4.40083
4.38915
4.37761
4.36596
4.35446
4.34285
4.33139
4.31982
4.30842
4.29689
4.28553
4.27404
4.26272
4.25126
4.23999
4.22856
4.21734
4.20596
4.19478
4.18344
4.17231
4.161
4.14991
4.13862
4.12758
4.11633
4.10534
4.09412
4.08319
4.07199
4.06113
4.04996
4.03917
4.02804
4.01733
4.00622
3.9956
3.98447
3.97397
3.96273
3.95256
3.94039
3.93285
4.73931
4.7393
4.73929
4.73927
4.73925
4.73924
4.73923
4.73923
4.73925
4.73928
4.73933
4.73938
4.73942
4.73946
4.7395
4.73953
4.73956
4.73961
4.73967
4.73973
4.73978
4.73982
4.73986
4.73988
4.73989
4.73991
4.73993
4.73997
4.74002
4.74003
4.74003
4.74
4.73995
4.73993
4.73993
4.73996
4.74
4.74002
4.74003
4.74003
4.74002
4.74002
4.74003
4.74004
4.74005
4.74005
4.74004
4.74002
4.74
4.73996
4.73991
4.73986
4.73982
4.73979
4.73977
4.73976
4.73975
4.73972
4.73971
4.73971
4.73972
4.73973
4.73974
4.73974
4.73975
4.73974
4.73974
4.73972
4.73971
4.7397
4.73969
4.73969
4.7397
4.73969
4.73968
4.73967
4.73966
4.73965
4.73963
4.73961
4.73958
4.73954
4.7395
4.73949
4.73949
4.73951
4.73953
4.73954
4.73955
4.73955
4.73956
4.73956
4.73957
4.73958
4.73959
4.73958
4.73955
4.73951
4.73947
4.73944
4.73944
4.73944
4.73945
4.73946
4.73947
4.73948
4.73948
4.73948
4.73947
4.73947
4.73947
4.73947
4.73945
4.73943
4.73942
4.73941
4.7394
4.7394
4.73941
4.73942
4.73942
4.73941
4.73939
4.73937
4.73934
4.73932
4.73931
4.73931
4.73932
4.73932
4.73932
4.73931
4.7393
4.73928
4.73926
4.73926
4.73925
4.73925
4.73925
4.73925
4.73924
4.73923
4.73923
4.73924
4.73925
4.73926
4.73925
4.73925
4.73923
4.73918
4.73908
4.73904
4.73906
4.73914
4.73934
4.73976
4.73989
4.73952
4.73762
4.73302
4.72559
4.71605
4.70533
4.69404
4.68252
4.67087
4.6592
4.64746
4.63572
4.62392
4.61215
4.6003
4.58852
4.57667
4.56491
4.55307
4.54132
4.5295
4.51778
4.50598
4.49429
4.48251
4.47085
4.45909
4.44746
4.43572
4.42412
4.41241
4.40083
4.38915
4.37761
4.36596
4.35446
4.34285
4.33139
4.31982
4.30842
4.29689
4.28553
4.27404
4.26272
4.25126
4.23999
4.22856
4.21734
4.20595
4.19479
4.18344
4.17231
4.16099
4.14991
4.13862
4.12759
4.11632
4.10535
4.09411
4.08319
4.07199
4.06113
4.04996
4.03918
4.02803
4.01734
4.0062
3.99561
3.98444
3.974
3.96267
3.95262
3.94027
3.93282
4.73931
4.7393
4.73929
4.73927
4.73925
4.73924
4.73923
4.73923
4.73925
4.73928
4.73933
4.73938
4.73942
4.73946
4.7395
4.73953
4.73956
4.73961
4.73967
4.73973
4.73978
4.73982
4.73986
4.73988
4.73989
4.73991
4.73993
4.73997
4.74002
4.74003
4.74003
4.74
4.73995
4.73993
4.73993
4.73996
4.74
4.74002
4.74003
4.74003
4.74002
4.74002
4.74003
4.74004
4.74005
4.74005
4.74004
4.74002
4.74
4.73996
4.73991
4.73986
4.73982
4.73979
4.73977
4.73976
4.73975
4.73972
4.73971
4.73971
4.73972
4.73973
4.73974
4.73974
4.73975
4.73974
4.73974
4.73972
4.73971
4.7397
4.73969
4.73969
4.7397
4.73969
4.73968
4.73967
4.73966
4.73965
4.73963
4.73961
4.73958
4.73954
4.7395
4.73949
4.73949
4.73951
4.73953
4.73954
4.73955
4.73955
4.73956
4.73956
4.73957
4.73958
4.73959
4.73958
4.73955
4.73951
4.73947
4.73944
4.73944
4.73944
4.73945
4.73946
4.73947
4.73948
4.73948
4.73948
4.73947
4.73947
4.73947
4.73947
4.73945
4.73943
4.73942
4.73941
4.7394
4.7394
4.73941
4.73942
4.73942
4.73941
4.73939
4.73937
4.73934
4.73932
4.73931
4.73931
4.73932
4.73932
4.73932
4.73931
4.7393
4.73928
4.73926
4.73926
4.73925
4.73925
4.73925
4.73925
4.73924
4.73923
4.73923
4.73924
4.73925
4.73926
4.73925
4.73925
4.73923
4.73918
4.73908
4.73904
4.73906
4.73914
4.73934
4.73976
4.73989
4.73952
4.73762
4.73302
4.72559
4.71605
4.70533
4.69404
4.68252
4.67087
4.6592
4.64746
4.63573
4.62392
4.61215
4.6003
4.58852
4.57667
4.56491
4.55307
4.54133
4.5295
4.51778
4.50598
4.49429
4.48251
4.47085
4.45909
4.44746
4.43572
4.42412
4.41241
4.40083
4.38915
4.37761
4.36596
4.35446
4.34285
4.3314
4.31982
4.30842
4.29689
4.28553
4.27403
4.26272
4.25126
4.23999
4.22856
4.21734
4.20595
4.19479
4.18343
4.17232
4.16099
4.14991
4.13861
4.12759
4.11632
4.10535
4.09411
4.0832
4.07198
4.06114
4.04995
4.03919
4.02802
4.01735
4.00618
3.99563
3.98441
3.97403
3.96261
3.95269
3.94005
3.93281
4.73931
4.7393
4.73929
4.73927
4.73925
4.73924
4.73923
4.73923
4.73925
4.73928
4.73933
4.73938
4.73942
4.73946
4.7395
4.73953
4.73956
4.73961
4.73967
4.73973
4.73978
4.73982
4.73986
4.73988
4.73989
4.73991
4.73993
4.73997
4.74002
4.74003
4.74003
4.74
4.73995
4.73993
4.73993
4.73996
4.74
4.74002
4.74003
4.74003
4.74002
4.74002
4.74003
4.74004
4.74005
4.74005
4.74004
4.74002
4.74
4.73996
4.73991
4.73986
4.73982
4.73979
4.73977
4.73976
4.73975
4.73972
4.73971
4.73971
4.73972
4.73973
4.73974
4.73974
4.73975
4.73974
4.73974
4.73972
4.73971
4.7397
4.73969
4.73969
4.7397
4.73969
4.73968
4.73967
4.73966
4.73965
4.73963
4.73961
4.73958
4.73954
4.7395
4.73949
4.73949
4.73951
4.73953
4.73954
4.73955
4.73955
4.73956
4.73956
4.73957
4.73958
4.73959
4.73958
4.73955
4.73951
4.73947
4.73944
4.73944
4.73944
4.73945
4.73946
4.73947
4.73948
4.73948
4.73948
4.73947
4.73947
4.73947
4.73947
4.73945
4.73943
4.73942
4.73941
4.7394
4.7394
4.73941
4.73942
4.73942
4.73941
4.73939
4.73937
4.73934
4.73932
4.73931
4.73931
4.73932
4.73932
4.73932
4.73931
4.7393
4.73928
4.73926
4.73926
4.73925
4.73925
4.73925
4.73925
4.73924
4.73923
4.73923
4.73924
4.73925
4.73926
4.73925
4.73925
4.73923
4.73918
4.73908
4.73904
4.73906
4.73914
4.73934
4.73976
4.73989
4.73952
4.73762
4.73302
4.72559
4.71605
4.70533
4.69404
4.68252
4.67087
4.6592
4.64746
4.63573
4.62392
4.61215
4.6003
4.58852
4.57667
4.56491
4.55307
4.54133
4.5295
4.51778
4.50598
4.49429
4.48251
4.47085
4.45909
4.44746
4.43572
4.42412
4.41241
4.40083
4.38915
4.37761
4.36596
4.35446
4.34285
4.3314
4.31982
4.30842
4.29689
4.28553
4.27403
4.26272
4.25126
4.23999
4.22856
4.21734
4.20595
4.19479
4.18343
4.17232
4.16099
4.14992
4.13861
4.12759
4.11632
4.10535
4.09411
4.0832
4.07198
4.06114
4.04994
4.03919
4.02801
4.01735
4.00617
3.99564
3.98439
3.97405
3.96257
3.95275
3.93976
3.93287
4.73931
4.7393
4.73929
4.73927
4.73925
4.73924
4.73923
4.73923
4.73925
4.73928
4.73933
4.73938
4.73942
4.73946
4.7395
4.73953
4.73956
4.73961
4.73967
4.73973
4.73978
4.73982
4.73986
4.73988
4.73989
4.73991
4.73993
4.73998
4.74002
4.74003
4.74003
4.74
4.73995
4.73993
4.73993
4.73996
4.74
4.74002
4.74003
4.74003
4.74002
4.74002
4.74003
4.74004
4.74005
4.74005
4.74004
4.74002
4.74
4.73996
4.73991
4.73986
4.73982
4.73979
4.73977
4.73976
4.73975
4.73972
4.73971
4.73971
4.73972
4.73973
4.73974
4.73974
4.73975
4.73974
4.73974
4.73972
4.73971
4.7397
4.73969
4.73969
4.7397
4.73969
4.73968
4.73967
4.73966
4.73965
4.73963
4.73961
4.73958
4.73954
4.7395
4.73949
4.73949
4.73951
4.73953
4.73954
4.73955
4.73955
4.73956
4.73956
4.73957
4.73958
4.73959
4.73958
4.73955
4.73951
4.73947
4.73944
4.73944
4.73944
4.73945
4.73946
4.73947
4.73948
4.73948
4.73948
4.73947
4.73947
4.73947
4.73947
4.73945
4.73943
4.73942
4.73941
4.7394
4.7394
4.73941
4.73942
4.73942
4.73941
4.73939
4.73937
4.73934
4.73932
4.73931
4.73931
4.73932
4.73932
4.73932
4.73931
4.7393
4.73928
4.73926
4.73926
4.73925
4.73925
4.73925
4.73925
4.73924
4.73923
4.73923
4.73924
4.73925
4.73926
4.73925
4.73925
4.73923
4.73918
4.73908
4.73904
4.73906
4.73914
4.73934
4.73976
4.73989
4.73952
4.73762
4.73302
4.72559
4.71605
4.70533
4.69404
4.68252
4.67087
4.6592
4.64746
4.63573
4.62392
4.61215
4.6003
4.58852
4.57667
4.56491
4.55307
4.54133
4.5295
4.51778
4.50598
4.49429
4.48251
4.47085
4.45909
4.44746
4.43572
4.42412
4.4124
4.40083
4.38915
4.37761
4.36596
4.35446
4.34285
4.3314
4.31982
4.30842
4.29689
4.28553
4.27403
4.26272
4.25126
4.23999
4.22856
4.21734
4.20595
4.19479
4.18343
4.17232
4.16098
4.14992
4.13861
4.12759
4.11632
4.10536
4.0941
4.0832
4.07198
4.06115
4.04993
4.0392
4.028
4.01736
4.00616
3.99565
3.98437
3.97407
3.96252
3.9528
3.93942
3.93301
1.24105
1.24789
1.25494
1.26188
1.26915
1.27753
1.28748
1.29867
1.31002
1.32065
1.3305
1.34021
1.35062
1.36219
1.37481
1.38817
1.40226
1.41732
1.43399
1.45294
1.47224
1.48381
1.46925
1.40931
1.31841
1.21621
1.12369
1.02522
0.967302
0.929755
0.844635
0.743836
0.706915
0.700923
0.715677
0.760461
0.811581
0.865608
0.92118
0.977105
1.0251
1.06696
1.10028
1.12856
1.14993
1.16422
1.17351
1.17979
1.17727
1.16342
1.14333
1.12319
1.10459
1.08924
1.07639
1.06604
1.0579
1.05115
1.04766
1.04239
1.04527
1.05059
1.0579
1.06878
1.07491
1.07098
1.06736
1.06587
1.06548
1.0643
1.0621
1.05793
1.05284
1.04778
1.04086
1.03532
1.03646
1.03684
1.03382
1.04113
1.04821
1.05666
1.06349
1.06512
1.0654
1.0665
1.06773
1.07068
1.07312
1.07544
1.07516
1.07437
1.07298
1.07354
1.07663
1.07984
1.08373
1.08883
1.09768
1.12785
1.2354
1.24037
1.24707
1.25405
1.26091
1.26801
1.27609
1.28567
1.29652
1.30767
1.31814
1.32774
1.33702
1.34683
1.35772
1.36969
1.38243
1.39581
1.40995
1.42537
1.44276
1.46061
1.47166
1.45862
1.39661
1.29663
1.1867
1.08637
0.989738
0.94494
0.905302
0.841009
0.755139
0.710888
0.703016
0.713798
0.752221
0.80301
0.860007
0.919339
0.97869
1.03229
1.08235
1.12166
1.15289
1.17522
1.18968
1.19762
1.20048
1.19407
1.17912
1.15846
1.1364
1.11663
1.09938
1.0865
1.0765
1.06917
1.0633
1.06017
1.05806
1.05881
1.06357
1.06769
1.07442
1.07779
1.07669
1.07472
1.07353
1.07255
1.07088
1.06927
1.06734
1.06417
1.06086
1.05535
1.05104
1.05068
1.0529
1.05258
1.0582
1.06628
1.07202
1.07775
1.08188
1.08296
1.08506
1.08571
1.08756
1.08998
1.09078
1.09211
1.09278
1.09312
1.09599
1.10273
1.11289
1.12403
1.13783
1.15579
1.23497
1.23962
1.24615
1.25307
1.25984
1.26677
1.27453
1.2837
1.29417
1.30505
1.31535
1.32472
1.33358
1.34275
1.35287
1.36406
1.37603
1.38855
1.40161
1.41555
1.43093
1.44651
1.45614
1.44511
1.3852
1.2804
1.16418
1.05192
0.960187
0.923614
0.878868
0.821862
0.753885
0.706751
0.698106
0.706916
0.73796
0.788385
0.844848
0.906497
0.970949
1.0306
1.08268
1.12848
1.16342
1.19101
1.2095
1.21904
1.22193
1.21617
1.20322
1.18548
1.16586
1.14648
1.12891
1.11425
1.10239
1.09354
1.08681
1.08287
1.08196
1.08267
1.08682
1.09065
1.09468
1.0963
1.09556
1.09481
1.09421
1.09363
1.09252
1.09169
1.09055
1.08874
1.08627
1.08223
1.07812
1.07694
1.07911
1.08161
1.0853
1.09198
1.09824
1.10326
1.10787
1.11111
1.11431
1.11743
1.12045
1.12379
1.12694
1.23308
1.23453
1.23882
1.24514
1.25197
1.25866
1.26542
1.27285
1.28157
1.29161
1.30219
1.31229
1.32143
1.32988
1.3384
1.34768
1.35795
1.36901
1.38054
1.39238
1.40464
1.41763
1.43026
1.43785
1.4292
1.37703
1.27367
1.15187
1.02803
0.934579
0.899574
0.849668
0.789224
0.731075
0.686571
0.676969
0.683838
0.711778
0.767385
0.823605
0.886441
0.955808
1.01528
1.07266
1.12463
1.16407
1.19487
1.21708
1.23018
1.23557
1.23299
1.22431
1.21088
1.19506
1.17867
1.16276
1.14839
1.13613
1.12654
1.23293
1.23409
1.23797
1.24403
1.25076
1.25737
1.26395
1.27106
1.27931
1.28885
1.29906
1.30893
1.31785
1.32592
1.3338
1.34218
1.35142
1.36142
1.37183
1.38233
1.39278
1.40314
1.4124
1.41763
1.41062
1.37009
1.27981
1.15584
1.0196
0.917713
0.873782
0.82602
0.764376
0.707566
0.667677
0.653399
0.656644
0.67742
0.734183
0.793948
0.861586
0.938575
1.00619
1.06854
1.1184
1.15913
1.19188
1.21644
1.23226
1.24006
1.24142
1.23749
1.2292
1.21847
1.20618
1.19357
1.18144
1.23278
1.23366
1.23707
1.24282
1.24942
1.25595
1.26238
1.26916
1.27692
1.2859
1.29567
1.30527
1.31397
1.3217
1.32896
1.33643
1.34457
1.35338
1.36253
1.3716
1.3802
1.38796
1.394
1.39679
1.39007
1.35893
1.29005
1.18284
1.03535
0.919226
0.857738
0.807911
0.747469
0.688146
0.650735
0.633659
0.634508
0.655767
0.709562
0.773292
0.84513
0.924518
0.994786
1.05678
1.11164
1.1567
1.19117
1.21577
1.23206
1.24125
1.24444
1.2429
1.23767
1.23034
1.22153
1.21218
1.23264
1.23326
1.23614
1.2415
1.24795
1.2544
1.26068
1.26716
1.27441
1.2828
1.29205
1.30132
1.30978
1.3172
1.32391
1.33051
1.33749
1.34501
1.3528
1.36036
1.36715
1.37261
1.37594
1.37608
1.3679
1.34468
1.29512
1.2085
1.08894
0.95617
0.866463
0.800064
0.738928
0.683665
0.646643
0.629742
0.628633
0.649704
0.700716
0.766954
0.842144
0.922925
0.997795
1.06407
1.11943
1.16035
1.19331
1.21736
1.23339
1.24282
1.24663
1.24651
1.24311
1.2375
1.2307
1.22324
1.2325
1.23289
1.2352
1.2401
1.24634
1.25271
1.25887
1.26506
1.27182
1.27957
1.28822
1.29708
1.3053
1.31244
1.31867
1.32446
1.33032
1.3365
1.34285
1.34887
1.35394
1.35738
1.35876
1.35604
1.3455
1.32568
1.29151
1.23054
1.14001
1.03167
0.93089
0.845108
0.774768
0.718423
0.679125
0.659745
0.657066
0.678615
0.730438
0.795966
0.868635
0.94549
1.01744
1.07926
1.13091
1.17037
1.20117
1.22312
1.23703
1.24489
1.24823
1.24853
1.24601
1.2413
1.23589
1.22983
1.23237
1.23256
1.2343
1.23863
1.24459
1.25086
1.25691
1.26286
1.26915
1.27624
1.28423
1.2926
1.30051
1.30741
1.31323
1.31832
1.32315
1.32802
1.33291
1.33741
1.34088
1.34269
1.34237
1.33742
1.32587
1.30766
1.2804
1.23782
1.17717
1.09714
1.01164
0.935725
0.862959
0.794957
0.744782
0.71989
0.717089
0.739801
0.793128
0.859386
0.923997
0.988408
1.05044
1.10451
1.149
1.18371
1.20904
1.22681
1.23874
1.24596
1.24924
1.24978
1.24798
1.2441
1.23945
1.2342
1.23225
1.23227
1.23346
1.23713
1.24271
1.24885
1.25481
1.26055
1.26642
1.27287
1.28014
1.28791
1.29546
1.30211
1.30762
1.31214
1.31607
1.31974
1.32324
1.32627
1.32829
1.32891
1.32689
1.32046
1.30924
1.2924
1.26828
1.23543
1.19232
1.13898
1.07688
1.01246
0.95018
0.897053
0.854686
0.827196
0.818356
0.82948
0.869986
0.933166
0.991626
1.04193
1.08908
1.13143
1.1663
1.19376
1.21431
1.22912
1.23929
1.2455
1.24838
1.24894
1.24771
1.24469
1.24083
1.23659
1.23214
1.23201
1.23273
1.23564
1.24071
1.24666
1.25254
1.25812
1.26363
1.26949
1.276
1.28309
1.29018
1.29657
1.30182
1.30592
1.30913
1.31178
1.31404
1.31576
1.31661
1.31596
1.31244
1.30558
1.29525
1.28
1.25861
1.23139
1.19821
1.16018
1.11654
1.06971
1.02274
0.977923
0.941532
0.921226
0.915107
0.918844
0.942269
0.991853
1.04241
1.08225
1.11707
1.14912
1.1765
1.19861
1.21556
1.2281
1.23679
1.24209
1.2448
1.2456
1.24498
1.24293
1.23997
1.2368
1.23205
1.23178
1.23213
1.23422
1.23864
1.24431
1.2501
1.25557
1.26079
1.26612
1.2719
1.27823
1.28475
1.29082
1.29586
1.29967
1.30236
1.30421
1.30547
1.30615
1.30602
1.30401
1.29942
1.2927
1.28333
1.2698
1.25124
1.22821
1.20147
1.17171
1.13952
1.10567
1.07154
1.03874
1.01143
0.993034
0.984915
0.986663
1.00344
1.0409
1.0809
1.11188
1.1381
1.16239
1.18364
1.20095
1.21447
1.22479
1.23217
1.23709
1.23992
1.24111
1.24115
1.24005
1.23793
1.23553
1.23196
1.23159
1.23166
1.23296
1.23657
1.24182
1.24747
1.25285
1.25788
1.26278
1.26789
1.27344
1.27928
1.28492
1.28975
1.29338
1.29574
1.29705
1.29759
1.29761
1.29651
1.2933
1.28816
1.28164
1.27314
1.26133
1.24556
1.2263
1.20432
1.18007
1.15444
1.12813
1.10232
1.07818
1.05769
1.04348
1.03756
1.03846
1.04937
1.07601
1.10741
1.13237
1.15257
1.17066
1.18664
1.20007
1.21116
1.21983
1.22634
1.23098
1.23398
1.23559
1.23614
1.23588
1.23482
1.23315
1.2319
1.23142
1.23129
1.23195
1.23459
1.23921
1.24465
1.24996
1.25486
1.25945
1.26401
1.2688
1.2739
1.27899
1.28354
1.28704
1.28926
1.29027
1.29047
1.29001
1.28812
1.28418
1.27872
1.27233
1.26455
1.2543
1.24104
1.22509
1.20704
1.18726
1.16635
1.14514
1.12451
1.10556
1.08955
1.07816
1.0727
1.07216
1.07922
1.09917
1.12459
1.14538
1.16176
1.17599
1.18858
1.1993
1.20822
1.2154
1.22109
1.22537
1.22841
1.23035
1.23137
1.23168
1.23139
1.23049
1.23188
1.23129
1.23099
1.23121
1.23283
1.2366
1.24166
1.24687
1.25171
1.2561
1.26024
1.26439
1.26873
1.27318
1.27733
1.28069
1.28287
1.28382
1.28391
1.2832
1.28093
1.27664
1.27101
1.26476
1.25756
1.24859
1.23743
1.22427
1.2095
1.19342
1.17645
1.15921
1.1425
1.12719
1.11426
1.10482
1.09979
1.09863
1.10275
1.11624
1.13574
1.15287
1.16677
1.17883
1.18948
1.19859
1.20607
1.21218
1.21708
1.22091
1.22376
1.22574
1.22697
1.22759
1.22774
1.22742
1.2319
1.23119
1.23075
1.23068
1.23145
1.23415
1.23857
1.24358
1.24838
1.25268
1.25656
1.26022
1.26389
1.26763
1.27127
1.2744
1.27658
1.27761
1.27775
1.27706
1.27481
1.27052
1.26491
1.25884
1.25216
1.24422
1.23472
1.22381
1.21165
1.19858
1.18486
1.17093
1.15738
1.1449
1.13431
1.12638
1.12177
1.12029
1.12227
1.13086
1.14578
1.15981
1.17135
1.18145
1.19044
1.19824
1.2048
1.21024
1.21462
1.21804
1.22065
1.22253
1.22379
1.22454
1.22486
1.22485
1.23197
1.23115
1.23057
1.23029
1.23051
1.23205
1.23553
1.24013
1.24484
1.24913
1.25289
1.25625
1.2594
1.26249
1.26554
1.2683
1.27041
1.27157
1.27186
1.27137
1.26949
1.26555
1.26018
1.25439
1.24821
1.24116
1.23298
1.22378
1.21371
1.20299
1.19182
1.18054
1.16956
1.15939
1.15062
1.14386
1.13965
1.13805
1.13877
1.14386
1.15487
1.16639
1.17603
1.18452
1.19213
1.19877
1.20451
1.20929
1.21324
1.21639
1.21882
1.22061
1.22184
1.22261
1.22301
1.22313
1.23211
1.23117
1.23045
1.23001
1.2299
1.23051
1.23279
1.23665
1.24111
1.24539
1.24916
1.25239
1.25522
1.25782
1.26029
1.26259
1.26449
1.26572
1.26616
1.26595
1.26464
1.26139
1.25653
1.25114
1.24547
1.23922
1.23217
1.22433
1.2159
1.20698
1.19778
1.18853
1.17954
1.17118
1.16387
1.15806
1.15417
1.15239
1.15233
1.15503
1.1626
1.17207
1.18031
1.18752
1.19404
1.1998
1.20478
1.209
1.21254
1.21544
1.21774
1.2195
1.22077
1.22162
1.22211
1.22232
1.23231
1.23128
1.23042
1.22981
1.22949
1.22956
1.23063
1.23339
1.2373
1.24145
1.24525
1.24851
1.25123
1.25355
1.2556
1.25743
1.25901
1.26015
1.2607
1.26073
1.25997
1.25761
1.25357
1.24877
1.24367
1.23812
1.23203
1.22539
1.21828
1.2108
1.20312
1.19544
1.18797
1.18098
1.17478
1.1697
1.16607
1.1641
1.16358
1.16475
1.16927
1.17672
1.18384
1.19005
1.19571
1.20078
1.20518
1.20894
1.21211
1.21477
1.21695
1.21869
1.22002
1.22099
1.22163
1.22198
1.23256
1.23147
1.23049
1.22972
1.2292
1.22899
1.22926
1.23072
1.23365
1.23739
1.24115
1.24449
1.24728
1.24953
1.25137
1.25288
1.25412
1.25506
1.2556
1.25575
1.25538
1.25387
1.25085
1.24691
1.24249
1.23764
1.23237
1.22673
1.22074
1.21446
1.20802
1.20158
1.19529
1.18937
1.18403
1.17952
1.17608
1.17392
1.17306
1.17328
1.17544
1.18065
1.18667
1.19206
1.19699
1.20151
1.20549
1.2089
1.2118
1.21423
1.21626
1.21793
1.21927
1.22032
1.22108
1.2216
1.23286
1.23175
1.23068
1.22975
1.22906
1.22863
1.2285
1.22894
1.2306
1.23349
1.23693
1.24028
1.24319
1.24556
1.24741
1.24881
1.24986
1.25059
1.25102
1.25117
1.251
1.25007
1.24802
1.24509
1.24155
1.23747
1.23298
1.22818
1.22312
1.21785
1.21244
1.20702
1.2017
1.19664
1.192
1.18796
1.1847
1.18239
1.18116
1.18083
1.18155
1.18439
1.18907
1.19369
1.19793
1.2019
1.20554
1.20873
1.21146
1.21374
1.21564
1.2172
1.21848
1.21951
1.22033
1.22095
1.23318
1.23209
1.23098
1.22994
1.22907
1.22844
1.22807
1.228
1.22854
1.23021
1.23288
1.23596
1.23891
1.24146
1.24348
1.24499
1.24604
1.2467
1.24704
1.24715
1.24703
1.24642
1.24503
1.24301
1.24042
1.23725
1.23359
1.22961
1.22536
1.22093
1.21638
1.21179
1.20727
1.20293
1.19888
1.19525
1.19219
1.18982
1.18825
1.18753
1.18748
1.18851
1.19141
1.19515
1.19873
1.20212
1.20533
1.20828
1.2109
1.21313
1.21499
1.21651
1.21774
1.21873
1.21953
1.22016
1.23347
1.23246
1.23136
1.23026
1.22926
1.22844
1.22785
1.22752
1.22748
1.228
1.22952
1.23187
1.23456
1.23716
1.23939
1.24114
1.24239
1.24318
1.24357
1.24368
1.2436
1.24317
1.24218
1.24072
1.23891
1.23664
1.23387
1.23074
1.22731
1.22364
1.21984
1.21597
1.21212
1.20838
1.20483
1.20159
1.19873
1.19638
1.19461
1.19351
1.19305
1.19314
1.19427
1.19678
1.19966
1.20244
1.20514
1.20769
1.21008
1.21224
1.21412
1.21569
1.21697
1.218
1.21882
1.21947
1.23368
1.23283
1.23179
1.23069
1.22962
1.22866
1.22787
1.22731
1.22699
1.22692
1.22735
1.2286
1.23056
1.23286
1.23511
1.23708
1.23861
1.23969
1.24032
1.24058
1.24059
1.24036
1.23968
1.23857
1.2372
1.2356
1.23364
1.23131
1.22871
1.22582
1.22273
1.21953
1.21628
1.21308
1.20998
1.20708
1.20445
1.20217
1.20032
1.19895
1.19812
1.19778
1.19793
1.19896
1.20093
1.20311
1.20527
1.20738
1.20939
1.21128
1.21304
1.21462
1.21597
1.21711
1.21803
1.21877
1.23374
1.2331
1.23222
1.23118
1.2301
1.22906
1.22813
1.22736
1.22681
1.22648
1.22637
1.22664
1.22754
1.22908
1.23096
1.23289
1.23461
1.23599
1.23696
1.23754
1.23775
1.23773
1.23743
1.23669
1.23561
1.23438
1.23298
1.23132
1.22942
1.2273
1.22494
1.22239
1.21974
1.21704
1.21438
1.21181
1.20941
1.20724
1.20537
1.20386
1.20275
1.20206
1.20177
1.20189
1.2027
1.20416
1.2058
1.20747
1.2091
1.21065
1.21212
1.21353
1.21481
1.21594
1.21692
1.21775
1.2336
1.23322
1.23255
1.23166
1.23064
1.22958
1.22857
1.22767
1.22693
1.22638
1.22602
1.22585
1.22594
1.22648
1.22757
1.22902
1.2306
1.23209
1.23333
1.23425
1.23482
1.23507
1.23509
1.23482
1.23415
1.23321
1.23214
1.23094
1.22956
1.22804
1.22637
1.22448
1.22244
1.22029
1.21808
1.21588
1.21375
1.21174
1.20991
1.20833
1.20703
1.20605
1.20541
1.20512
1.20516
1.2057
1.20672
1.20792
1.2092
1.21045
1.21165
1.21278
1.21386
1.21485
1.21576
1.21657
1.23327
1.23312
1.23271
1.23202
1.23116
1.23017