/*--------------------------------*- C++ -*----------------------------------*\
| =========                 |                                                 |
| \\      /  F ield         | OpenFOAM: The Open Source CFD Toolbox           |
|  \\    /   O peration     | Version:  2406                                  |
|   \\  /    A nd           | Website:  www.openfoam.com                      |
|    \\/     M anipulation  |                                                 |
\*---------------------------------------------------------------------------*/
FoamFile
{
    version     2.0;
    format      ascii;
    arch        "LSB;label=32;scalar=64";
    class       volScalarField;
    location    "0.1";
    object      T;
}
// * * * * * * * * * * * * * * * * * * * * * * * * * * * * * * * * * * * * * //

dimensions      [0 0 0 1 0 0 0];

internalField   nonuniform List<scalar> 
14020
(
242.039
242.039
242.038
242.038
242.038
242.038
242.038
242.038
242.038
242.039
242.04
242.041
242.041
242.042
242.043
242.043
242.044
242.045
242.046
242.047
242.048
242.049
242.049
242.05
242.049
242.049
242.05
242.05
242.051
242.05
242.05
242.049
242.048
242.047
242.047
242.048
242.049
242.05
242.05
242.05
242.05
242.05
242.05
242.051
242.051
242.051
242.051
242.051
242.051
242.05
242.05
242.049
242.048
242.047
242.047
242.047
242.047
242.046
242.046
242.046
242.047
242.047
242.047
242.047
242.047
242.047
242.047
242.047
242.047
242.047
242.047
242.047
242.047
242.047
242.046
242.046
242.046
242.045
242.045
242.045
242.044
242.043
242.042
242.042
242.042
242.042
242.042
242.043
242.043
242.043
242.042
242.042
242.042
242.043
242.042
242.042
242.041
242.041
242.04
242.039
242.039
242.038
242.039
242.039
242.039
242.039
242.039
242.039
242.038
242.038
242.039
242.039
242.038
242.038
242.038
242.038
242.038
242.038
242.038
242.038
242.038
242.038
242.038
242.038
242.037
242.037
242.037
242.037
242.037
242.037
242.037
242.037
242.037
242.037
242.037
242.037
242.037
242.037
242.037
242.037
242.036
242.036
242.036
242.036
242.036
242.036
242.035
242.035
242.035
242.033
242.031
242.03
242.031
242.033
242.037
242.046
242.049
242.041
242.002
241.908
241.756
241.56
241.34
241.108
240.87
240.63
240.388
240.145
239.902
239.656
239.411
239.165
238.919
238.671
238.425
238.177
237.93
237.681
237.434
237.186
236.938
236.689
236.442
236.193
235.945
235.695
235.448
235.198
234.95
234.7
234.452
234.202
233.954
233.704
233.456
233.206
232.958
232.709
232.461
232.212
231.965
231.715
231.468
231.218
230.971
230.721
230.475
230.225
229.979
229.729
229.483
229.233
228.987
228.737
228.491
228.241
227.996
227.746
227.501
227.251
227.007
226.757
226.513
226.264
226.021
225.771
225.529
225.276
225.04
224.766
224.593
242.039
242.039
242.038
242.038
242.038
242.038
242.038
242.038
242.038
242.039
242.04
242.041
242.041
242.042
242.043
242.043
242.044
242.045
242.046
242.047
242.048
242.049
242.049
242.05
242.049
242.049
242.05
242.05
242.051
242.05
242.05
242.049
242.048
242.047
242.047
242.048
242.049
242.05
242.05
242.05
242.05
242.05
242.05
242.051
242.051
242.051
242.051
242.051
242.051
242.05
242.05
242.049
242.048
242.047
242.047
242.047
242.047
242.046
242.046
242.046
242.047
242.047
242.047
242.047
242.047
242.047
242.047
242.047
242.047
242.047
242.047
242.047
242.047
242.047
242.046
242.046
242.046
242.045
242.045
242.045
242.044
242.043
242.042
242.042
242.042
242.042
242.042
242.043
242.043
242.043
242.042
242.042
242.042
242.043
242.042
242.042
242.041
242.041
242.04
242.039
242.039
242.038
242.039
242.039
242.039
242.039
242.039
242.039
242.038
242.038
242.039
242.039
242.038
242.038
242.038
242.038
242.038
242.038
242.038
242.038
242.038
242.038
242.038
242.038
242.037
242.037
242.037
242.037
242.037
242.037
242.037
242.037
242.037
242.037
242.037
242.037
242.037
242.037
242.037
242.037
242.036
242.036
242.036
242.036
242.036
242.036
242.035
242.035
242.035
242.033
242.031
242.03
242.031
242.033
242.037
242.046
242.049
242.041
242.002
241.908
241.756
241.56
241.34
241.108
240.87
240.63
240.388
240.145
239.902
239.656
239.411
239.165
238.919
238.671
238.425
238.177
237.93
237.681
237.434
237.186
236.938
236.689
236.442
236.193
235.945
235.695
235.448
235.198
234.95
234.7
234.452
234.202
233.954
233.704
233.456
233.206
232.958
232.709
232.462
232.212
231.965
231.715
231.468
231.218
230.971
230.721
230.475
230.225
229.979
229.729
229.483
229.233
228.987
228.737
228.491
228.241
227.996
227.746
227.501
227.251
227.007
226.757
226.513
226.263
226.021
225.77
225.529
225.276
225.04
224.766
224.593
242.039
242.039
242.038
242.038
242.038
242.038
242.038
242.038
242.038
242.039
242.04
242.041
242.041
242.042
242.043
242.043
242.044
242.045
242.046
242.047
242.048
242.049
242.049
242.05
242.049
242.049
242.05
242.05
242.051
242.05
242.05
242.049
242.048
242.047
242.047
242.048
242.049
242.05
242.05
242.05
242.05
242.05
242.05
242.051
242.051
242.051
242.051
242.051
242.051
242.05
242.05
242.049
242.048
242.047
242.047
242.047
242.047
242.046
242.046
242.046
242.047
242.047
242.047
242.047
242.047
242.047
242.047
242.047
242.047
242.047
242.047
242.047
242.047
242.047
242.046
242.046
242.046
242.045
242.045
242.045
242.044
242.043
242.042
242.042
242.042
242.042
242.042
242.043
242.043
242.043
242.042
242.042
242.042
242.043
242.042
242.042
242.041
242.041
242.04
242.039
242.039
242.039
242.039
242.039
242.039
242.039
242.039
242.039
242.038
242.038
242.039
242.039
242.038
242.038
242.038
242.038
242.038
242.038
242.038
242.038
242.038
242.038
242.038
242.038
242.037
242.037
242.037
242.037
242.037
242.037
242.037
242.037
242.037
242.037
242.037
242.037
242.037
242.037
242.037
242.037
242.036
242.036
242.036
242.036
242.036
242.036
242.035
242.035
242.035
242.033
242.031
242.03
242.031
242.033
242.037
242.046
242.049
242.041
242.002
241.908
241.756
241.56
241.34
241.108
240.87
240.63
240.388
240.145
239.902
239.656
239.411
239.165
238.919
238.671
238.425
238.177
237.93
237.681
237.434
237.186
236.938
236.689
236.442
236.193
235.945
235.695
235.448
235.198
234.95
234.7
234.452
234.202
233.954
233.704
233.456
233.206
232.959
232.709
232.462
232.212
231.965
231.714
231.468
231.217
230.971
230.721
230.475
230.225
229.979
229.729
229.483
229.233
228.987
228.737
228.491
228.241
227.996
227.745
227.501
227.251
227.007
226.756
226.514
226.263
226.021
225.77
225.529
225.276
225.041
224.766
224.592
242.039
242.039
242.038
242.038
242.038
242.038
242.038
242.038
242.038
242.039
242.04
242.041
242.041
242.042
242.043
242.043
242.044
242.045
242.046
242.047
242.048
242.049
242.049
242.05
242.049
242.049
242.05
242.05
242.051
242.05
242.05
242.049
242.048
242.047
242.047
242.048
242.049
242.05
242.05
242.05
242.05
242.05
242.05
242.051
242.051
242.051
242.051
242.051
242.051
242.05
242.05
242.049
242.048
242.047
242.047
242.047
242.047
242.046
242.046
242.046
242.047
242.047
242.047
242.047
242.047
242.047
242.047
242.047
242.047
242.047
242.047
242.047
242.047
242.047
242.046
242.046
242.046
242.045
242.045
242.045
242.044
242.043
242.042
242.042
242.042
242.042
242.042
242.043
242.043
242.043
242.042
242.042
242.042
242.043
242.042
242.042
242.041
242.041
242.04
242.039
242.039
242.039
242.039
242.039
242.039
242.039
242.039
242.039
242.038
242.038
242.039
242.039
242.038
242.038
242.038
242.038
242.038
242.038
242.038
242.038
242.038
242.038
242.038
242.038
242.037
242.037
242.037
242.037
242.037
242.037
242.037
242.037
242.037
242.037
242.037
242.037
242.037
242.037
242.037
242.037
242.036
242.036
242.036
242.036
242.036
242.036
242.035
242.035
242.035
242.033
242.031
242.03
242.031
242.033
242.037
242.046
242.049
242.041
242.002
241.908
241.756
241.56
241.34
241.108
240.87
240.63
240.388
240.145
239.902
239.656
239.411
239.165
238.919
238.671
238.425
238.177
237.93
237.681
237.434
237.185
236.938
236.689
236.442
236.193
235.945
235.695
235.448
235.198
234.95
234.7
234.452
234.202
233.954
233.704
233.456
233.206
232.959
232.709
232.462
232.211
231.965
231.714
231.468
231.217
230.971
230.721
230.475
230.225
229.979
229.729
229.483
229.232
228.987
228.736
228.491
228.241
227.996
227.745
227.501
227.25
227.007
226.756
226.514
226.263
226.021
225.77
225.529
225.275
225.041
224.765
224.592
242.039
242.039
242.038
242.038
242.038
242.038
242.038
242.038
242.038
242.039
242.04
242.041
242.041
242.042
242.043
242.043
242.044
242.045
242.046
242.047
242.048
242.049
242.049
242.049
242.049
242.049
242.05
242.05
242.051
242.05
242.05
242.049
242.048
242.047
242.047
242.048
242.049
242.05
242.05
242.05
242.05
242.05
242.05
242.051
242.051
242.051
242.051
242.051
242.051
242.05
242.05
242.049
242.048
242.047
242.047
242.047
242.047
242.046
242.046
242.046
242.047
242.047
242.047
242.047
242.047
242.047
242.047
242.047
242.047
242.047
242.047
242.047
242.047
242.047
242.046
242.046
242.046
242.045
242.045
242.045
242.044
242.043
242.042
242.042
242.042
242.042
242.042
242.043
242.043
242.043
242.042
242.042
242.042
242.043
242.042
242.042
242.041
242.041
242.04
242.039
242.039
242.039
242.039
242.039
242.039
242.039
242.039
242.039
242.038
242.038
242.039
242.039
242.038
242.038
242.038
242.038
242.038
242.038
242.038
242.038
242.038
242.038
242.038
242.038
242.037
242.037
242.037
242.037
242.037
242.037
242.037
242.037
242.037
242.037
242.037
242.037
242.037
242.037
242.037
242.037
242.036
242.036
242.036
242.036
242.036
242.036
242.035
242.035
242.035
242.033
242.031
242.03
242.031
242.033
242.037
242.046
242.049
242.041
242.002
241.908
241.756
241.56
241.34
241.108
240.87
240.63
240.388
240.145
239.902
239.656
239.411
239.165
238.919
238.671
238.425
238.177
237.93
237.681
237.434
237.185
236.938
236.689
236.442
236.192
235.945
235.695
235.448
235.198
234.95
234.7
234.452
234.202
233.954
233.703
233.456
233.206
232.959
232.708
232.462
232.211
231.965
231.714
231.468
231.217
230.971
230.721
230.475
230.225
229.979
229.729
229.483
229.232
228.987
228.736
228.491
228.241
227.996
227.745
227.501
227.25
227.007
226.756
226.514
226.262
226.022
225.769
225.53
225.274
225.042
224.764
224.591
242.039
242.039
242.038
242.038
242.038
242.038
242.038
242.038
242.038
242.039
242.04
242.041
242.041
242.042
242.043
242.043
242.044
242.045
242.046
242.047
242.048
242.049
242.049
242.049
242.049
242.049
242.05
242.05
242.051
242.05
242.05
242.049
242.048
242.047
242.047
242.048
242.049
242.05
242.05
242.05
242.05
242.05
242.05
242.051
242.051
242.051
242.051
242.051
242.051
242.05
242.05
242.049
242.048
242.047
242.047
242.047
242.047
242.046
242.046
242.046
242.047
242.047
242.047
242.047
242.047
242.047
242.047
242.047
242.047
242.047
242.047
242.047
242.047
242.047
242.046
242.046
242.046
242.045
242.045
242.045
242.044
242.043
242.042
242.042
242.042
242.042
242.042
242.043
242.043
242.043
242.042
242.042
242.042
242.043
242.042
242.042
242.041
242.041
242.04
242.039
242.039
242.039
242.039
242.039
242.039
242.039
242.039
242.039
242.038
242.038
242.039
242.039
242.038
242.038
242.038
242.038
242.038
242.038
242.038
242.038
242.038
242.038
242.038
242.038
242.037
242.037
242.037
242.037
242.037
242.037
242.037
242.037
242.037
242.037
242.037
242.037
242.037
242.037
242.037
242.037
242.036
242.036
242.036
242.036
242.036
242.036
242.035
242.035
242.035
242.033
242.031
242.03
242.031
242.033
242.037
242.046
242.049
242.041
242.002
241.908
241.756
241.56
241.34
241.108
240.87
240.63
240.388
240.145
239.902
239.656
239.411
239.165
238.919
238.671
238.425
238.177
237.93
237.681
237.434
237.185
236.938
236.689
236.442
236.192
235.945
235.695
235.448
235.198
234.95
234.7
234.452
234.202
233.954
233.703
233.456
233.206
232.959
232.708
232.462
232.211
231.965
231.714
231.468
231.217
230.971
230.721
230.475
230.225
229.979
229.729
229.483
229.232
228.987
228.736
228.492
228.241
227.996
227.745
227.501
227.25
227.007
226.756
226.514
226.262
226.022
225.768
225.531
225.273
225.043
224.761
224.591
242.039
242.039
242.038
242.038
242.038
242.038
242.038
242.038
242.038
242.039
242.04
242.041
242.041
242.042
242.043
242.043
242.044
242.045
242.046
242.047
242.048
242.049
242.049
242.049
242.049
242.049
242.05
242.05
242.051
242.05
242.05
242.049
242.048
242.047
242.047
242.048
242.049
242.05
242.05
242.05
242.05
242.05
242.05
242.051
242.051
242.051
242.051
242.051
242.051
242.05
242.05
242.049
242.048
242.047
242.047
242.047
242.047
242.046
242.046
242.046
242.047
242.047
242.047
242.047
242.047
242.047
242.047
242.047
242.047
242.047
242.047
242.047
242.047
242.047
242.046
242.046
242.046
242.045
242.045
242.045
242.044
242.043
242.042
242.042
242.042
242.042
242.042
242.043
242.043
242.043
242.042
242.042
242.042
242.043
242.042
242.042
242.041
242.041
242.04
242.039
242.039
242.039
242.039
242.039
242.039
242.039
242.039
242.039
242.038
242.038
242.039
242.039
242.038
242.038
242.038
242.038
242.038
242.038
242.038
242.038
242.038
242.038
242.038
242.038
242.037
242.037
242.037
242.037
242.037
242.037
242.037
242.037
242.037
242.037
242.037
242.037
242.037
242.037
242.037
242.037
242.036
242.036
242.036
242.036
242.036
242.036
242.035
242.035
242.035
242.033
242.031
242.03
242.031
242.033
242.037
242.046
242.049
242.041
242.002
241.908
241.756
241.56
241.34
241.108
240.87
240.63
240.388
240.145
239.902
239.656
239.411
239.165
238.919
238.671
238.425
238.177
237.93
237.681
237.434
237.185
236.938
236.689
236.442
236.192
235.945
235.695
235.448
235.198
234.95
234.7
234.452
234.201
233.954
233.703
233.456
233.206
232.959
232.708
232.462
232.211
231.965
231.714
231.468
231.217
230.971
230.721
230.475
230.225
229.979
229.728
229.483
229.232
228.987
228.736
228.492
228.24
227.996
227.745
227.502
227.25
227.007
226.755
226.514
226.262
226.022
225.768
225.531
225.271
225.045
224.756
224.59
242.039
242.039
242.038
242.038
242.038
242.038
242.038
242.038
242.038
242.039
242.04
242.041
242.041
242.042
242.043
242.043
242.044
242.045
242.046
242.047
242.048
242.049
242.049
242.049
242.049
242.049
242.05
242.05
242.051
242.05
242.05
242.049
242.048
242.047
242.047
242.048
242.049
242.05
242.05
242.05
242.05
242.05
242.05
242.051
242.051
242.051
242.051
242.051
242.051
242.05
242.05
242.049
242.048
242.047
242.047
242.047
242.047
242.046
242.046
242.046
242.047
242.047
242.047
242.047
242.047
242.047
242.047
242.047
242.047
242.047
242.047
242.047
242.047
242.047
242.046
242.046
242.046
242.046
242.045
242.045
242.044
242.043
242.042
242.042
242.042
242.042
242.042
242.043
242.043
242.043
242.042
242.042
242.042
242.043
242.042
242.042
242.041
242.041
242.04
242.039
242.039
242.039
242.039
242.039
242.039
242.039
242.039
242.039
242.038
242.038
242.039
242.039
242.038
242.038
242.038
242.038
242.038
242.038
242.038
242.038
242.038
242.038
242.038
242.038
242.037
242.037
242.037
242.037
242.037
242.037
242.037
242.037
242.037
242.037
242.037
242.037
242.037
242.037
242.037
242.037
242.036
242.036
242.036
242.036
242.036
242.036
242.035
242.035
242.035
242.033
242.031
242.03
242.031
242.033
242.037
242.046
242.049
242.041
242.002
241.908
241.756
241.56
241.34
241.108
240.87
240.63
240.388
240.145
239.902
239.656
239.411
239.165
238.919
238.671
238.425
238.177
237.93
237.681
237.434
237.185
236.938
236.689
236.442
236.192
235.945
235.695
235.448
235.198
234.95
234.7
234.452
234.201
233.954
233.704
233.456
233.206
232.959
232.708
232.462
232.211
231.965
231.714
231.468
231.217
230.971
230.721
230.475
230.225
229.979
229.728
229.483
229.232
228.987
228.736
228.492
228.24
227.996
227.745
227.502
227.25
227.008
226.755
226.514
226.261
226.023
225.767
225.532
225.27
225.046
224.749
224.592
242.039
242.039
242.038
242.038
242.038
242.038
242.038
242.038
242.038
242.039
242.04
242.041
242.041
242.042
242.043
242.043
242.044
242.045
242.046
242.047
242.048
242.049
242.049
242.049
242.049
242.049
242.05
242.05
242.051
242.05
242.05
242.049
242.048
242.047
242.047
242.048
242.049
242.05
242.05
242.05
242.05
242.05
242.05
242.051
242.051
242.051
242.051
242.051
242.051
242.05
242.05
242.049
242.048
242.047
242.047
242.047
242.047
242.046
242.046
242.046
242.047
242.047
242.047
242.047
242.047
242.047
242.047
242.047
242.047
242.047
242.047
242.047
242.047
242.047
242.046
242.046
242.046
242.046
242.045
242.045
242.044
242.043
242.042
242.042
242.042
242.042
242.043
242.043
242.043
242.043
242.042
242.042
242.042
242.043
242.042
242.042
242.041
242.041
242.04
242.039
242.039
242.039
242.039
242.039
242.039
242.039
242.039
242.039
242.038
242.038
242.039
242.039
242.038
242.038
242.038
242.038
242.038
242.038
242.038
242.038
242.038
242.038
242.038
242.038
242.037
242.037
242.037
242.037
242.037
242.037
242.037
242.037
242.037
242.037
242.037
242.037
242.037
242.037
242.037
242.037
242.036
242.036
242.036
242.036
242.036
242.036
242.035
242.035
242.035
242.033
242.031
242.03
242.031
242.033
242.037
242.046
242.049
242.041
242.002
241.908
241.756
241.56
241.34
241.108
240.87
240.63
240.388
240.145
239.902
239.656
239.411
239.165
238.919
238.671
238.425
238.177
237.93
237.681
237.434
237.185
236.938
236.689
236.442
236.192
235.945
235.695
235.448
235.198
234.95
234.7
234.452
234.201
233.954
233.704
233.456
233.206
232.959
232.708
232.461
232.211
231.965
231.714
231.468
231.217
230.971
230.721
230.475
230.225
229.979
229.728
229.483
229.232
228.987
228.736
228.492
228.24
227.996
227.745
227.502
227.25
227.008
226.755
226.515
226.261
226.023
225.767
225.532
225.269
225.048
224.742
224.595
294.897
295.548
296.217
296.872
297.558
298.344
299.274
300.315
301.366
302.344
303.245
304.131
305.076
306.122
307.252
308.443
309.723
311.128
312.543
313.703
314.731
317.073
322.874
334.022
342.018
343.064
336.878
322.316
313.32
307.606
295.415
279.95
274.107
273.058
274.221
280.723
287.975
295.183
302.351
309.217
314.996
320.482
325.367
330.035
334.252
337.612
340.1
341.92
342.68
343.001
342.316
341.457
340.462
339.647
338.854
337.965
336.981
336.039
335.481
334.677
334.799
335.034
335.482
336.447
336.686
335.726
335.16
334.929
334.916
334.925
334.93
334.811
334.522
334.196
333.675
333.051
333.319
333.449
333.067
333.81
334.272
334.526
334.905
334.893
335.041
335.747
336.459
337.165
337.818
338.8
339.503
339.879
339.765
339.294
338.832
338.301
337.264
335.493
332.55
327.811
294.358
294.832
295.47
296.133
296.781
297.45
298.209
299.105
300.116
301.148
302.113
302.993
303.841
304.733
305.719
306.793
307.931
309.143
310.46
311.802
312.92
313.846
315.675
320.14
330.22
339.016
340.964
334.985
317.933
310.445
304.921
295.745
282.36
274.967
273.522
273.908
279.367
286.712
294.071
301.227
307.718
313.051
317.883
321.644
325.189
328.449
331.154
333.253
334.785
335.772
336.426
336.667
336.521
336.422
336.177
335.801
335.287
334.772
334.147
333.608
333.016
332.862
332.874
332.426
332.165
332.113
332.024
331.981
331.924
331.895
331.92
331.94
331.827
331.608
331.416
330.903
330.391
330.354
330.481
330.002
329.806
329.409
328.723
328.557
328.645
328.852
329.62
330.247
330.971
331.925
332.86
333.441
333.666
333.371
332.356
330.569
327.848
324.455
320.232
315.014
294.317
294.761
295.383
296.039
296.68
297.333
298.062
298.921
299.897
300.906
301.856
302.716
303.526
304.362
305.28
306.287
307.359
308.49
309.702
310.941
311.995
312.814
314.084
316.868
324.887
334.433
337.974
333.328
316.53
309.556
303.839
296.176
285.522
277.583
276.011
276.584
281.029
287.938
294.745
301.534
307.949
313.19
316.993
319.875
322.112
324.029
325.431
326.484
327.232
327.588
327.922
328.291
328.586
328.784
328.85
328.792
328.685
328.62
328.376
327.924
327.441
326.98
326.68
326.138
325.835
325.743
325.657
325.732
325.767
325.744
325.644
325.513
325.326
325.14
324.919
324.45
323.795
323.298
323.028
322.455
321.548
320.688
319.988
319.676
319.698
319.895
320.358
320.891
321.414
321.997
322.493
294.135
294.275
294.685
295.287
295.935
296.569
297.206
297.905
298.722
299.659
300.641
301.574
302.414
303.188
303.966
304.809
305.737
306.73
307.769
308.86
309.968
310.935
311.656
312.445
313.632
318.503
327.587
333.204
331.413
316.851
309.602
303.664
296.884
288.802
281.983
280.52
281.841
285.318
292.082
298.343
304.476
310.353
314.167
317.202
319.542
320.868
321.544
321.745
321.703
321.551
320.955
320.403
320.045
319.829
319.671
319.512
319.388
319.341
319.372
294.121
294.232
294.603
295.181
295.82
296.447
297.068
297.737
298.51
299.401
300.35
301.264
302.085
302.826
303.546
304.309
305.147
306.048
306.985
307.943
308.898
309.748
310.372
310.773
310.803
312.348
318.84
325.832
326.768
317.046
309.647
304.068
298.646
293.045
288.193
286.317
287.87
290.595
296.615
302.467
307.993
313.264
316.39
318.766
319.7
319.843
319.564
318.986
318.156
317.249
316.2
315.073
314.05
313.239
312.538
311.943
311.448
294.107
294.191
294.517
295.065
295.693
296.313
296.919
297.559
298.286
299.127
300.036
300.926
301.728
302.438
303.104
303.786
304.526
305.323
306.148
306.969
307.759
308.447
308.897
309.026
308.319
307.626
310.024
316.354
318.451
315.007
309.326
303.864
298.874
294.031
290.871
289.154
290.628
294.608
300.373
305.673
310.255
314.244
316.436
317.519
318.037
317.917
317.105
315.928
314.658
313.424
312.22
310.884
309.555
308.421
307.424
306.558
294.094
294.153
294.428
294.94
295.553
296.166
296.76
297.37
298.051
298.837
299.699
300.56
301.342
302.026
302.641
303.245
303.882
304.565
305.269
305.953
306.574
307.075
307.346
307.282
306.217
304.346
303.384
305.057
308.166
308.423
306.379
301.804
297.051
292.874
290.584
289.825
290.848
295.423
301.61
306.889
311.124
314.151
315.137
315.111
314.81
313.817
312.823
311.736
310.588
309.44
308.33
307.159
305.924
304.776
303.754
302.834
294.08
294.117
294.339
294.807
295.4
296.005
296.588
297.172
297.808
298.534
299.343
300.167
300.928
301.587
302.16
302.691
303.227
303.791
304.368
304.913
305.374
305.689
305.816
305.555
304.421
302.254
299.531
297.337
296.882
297.846
298.9
297.789
294.762
291.592
289.655
289.069
289.298
292.641
298.506
303.177
306.485
308.692
309.286
308.994
308.587
307.925
307.359
306.761
306.032
305.199
304.361
303.506
302.549
301.575
300.716
299.926
294.068
294.085
294.252
294.667
295.234
295.83
296.403
296.964
297.557
298.223
298.97
299.75
300.485
301.123
301.66
302.128
302.57
303.017
303.463
303.872
304.187
304.352
304.328
303.889
302.799
300.905
298.057
294.473
290.93
288.363
287.631
288.192
287.318
284.719
282.194
281.221
281.246
283.441
288.676
293.657
296.617
298.641
300.132
301.044
301.571
301.779
301.759
301.651
301.458
301.133
300.697
300.201
299.592
298.881
298.202
297.568
294.056
294.058
294.172
294.523
295.055
295.639
296.204
296.747
297.3
297.907
298.588
299.313
300.016
300.633
301.142
301.559
301.92
302.258
302.578
302.856
303.039
303.095
302.913
302.334
301.315
299.711
297.253
293.921
290.058
286.035
282.415
279.824
277.962
276.548
275.117
274.049
273.674
274.478
278.359
284.012
287.981
290.432
292.524
294.326
295.663
296.598
297.232
297.642
297.808
297.803
297.669
297.445
297.114
296.66
296.201
295.78
294.046
294.033
294.102
294.38
294.865
295.431
295.989
296.518
297.038
297.589
298.2
298.863
299.525
300.119
300.606
300.984
301.281
301.525
301.733
301.891
301.969
301.908
301.585
300.956
300.012
298.606
296.563
293.85
290.494
286.725
282.854
279.358
276.148
273.127
270.804
270.034
270.321
270.97
273.483
278.234
282.485
285.349
287.725
289.875
291.633
293.004
294.063
294.789
295.233
295.448
295.507
295.473
295.338
295.083
294.793
294.525
294.037
294.011
294.045
294.245
294.667
295.208
295.758
296.276
296.77
297.272
297.816
298.409
299.019
299.584
300.053
300.406
300.655
300.826
300.942
301.004
300.992
300.808
300.382
299.759
298.891
297.637
295.903
293.702
291.042
287.957
284.542
280.999
277.68
274.667
272.282
270.885
270.495
270.893
272.779
276.674
280.666
283.589
285.897
287.947
289.694
291.118
292.224
293.054
293.654
294.048
294.263
294.342
294.33
294.22
294.024
293.813
294.028
293.993
294
294.124
294.469
294.97
295.508
296.019
296.494
296.957
297.439
297.96
298.507
299.034
299.485
299.822
300.041
300.163
300.213
300.214
300.113
299.814
299.337
298.728
297.933
296.827
295.345
293.521
291.403
288.994
286.336
283.478
280.613
277.943
275.713
274.154
273.446
273.474
274.637
277.51
280.859
283.476
285.533
287.348
288.956
290.292
291.343
292.173
292.806
293.259
293.55
293.709
293.767
293.75
293.658
293.512
294.023
293.977
293.964
294.027
294.28
294.722
295.239
295.745
296.209
296.643
297.073
297.524
298.003
298.48
298.906
299.232
299.438
299.532
299.551
299.508
299.332
298.965
298.455
297.856
297.125
296.158
294.902
293.383
291.654
289.737
287.668
285.503
283.315
281.241
279.446
278.119
277.382
277.198
277.866
279.844
282.382
284.464
286.154
287.656
289.005
290.154
291.101
291.857
292.438
292.874
293.18
293.375
293.482
293.518
293.495
293.414
294.02
293.964
293.935
293.956
294.112
294.473
294.955
295.451
295.91
296.326
296.717
297.109
297.517
297.935
298.325
298.639
298.842
298.931
298.94
298.873
298.661
298.26
297.732
297.144
296.465
295.616
294.554
293.295
291.874
290.319
288.666
286.968
285.294
283.726
282.369
281.346
280.75
280.562
280.938
282.255
284.17
285.836
287.189
288.374
289.427
290.346
291.142
291.79
292.296
292.683
292.965
293.161
293.283
293.344
293.357
293.324
294.022
293.954
293.913
293.905
293.98
294.238
294.66
295.138
295.594
296.002
296.369
296.715
297.061
297.414
297.756
298.049
298.254
298.35
298.364
298.298
298.088
297.686
297.157
296.585
295.953
295.2
294.295
293.249
292.077
290.81
289.473
288.111
286.778
285.542
284.483
283.682
283.205
283.041
283.23
284.086
285.569
286.947
288.067
289.043
289.906
290.653
291.29
291.829
292.261
292.598
292.853
293.036
293.158
293.227
293.252
293.246
294.029
293.95
293.895
293.868
293.889
294.037
294.369
294.809
295.258
295.665
296.022
296.34
296.637
296.93
297.217
297.477
297.675
297.784
297.811
297.765
297.588
297.218
296.711
296.164
295.578
294.908
294.128
293.245
292.275
291.236
290.149
289.045
287.966
286.965
286.099
285.431
285.017
284.862
284.939
285.455
286.559
287.704
288.653
289.484
290.225
290.867
291.409
291.863
292.244
292.548
292.783
292.955
293.073
293.144
293.175
293.181
294.042
293.953
293.884
293.841
293.83
293.89
294.107
294.476
294.903
295.31
295.668
295.974
296.242
296.488
296.722
296.939
297.118
297.234
297.275
297.256
297.132
296.826
296.366
295.856
295.318
294.722
294.049
293.297
292.486
291.624
290.729
289.826
288.945
288.122
287.4
286.827
286.444
286.273
286.271
286.546
287.304
288.246
289.061
289.772
290.413
290.975
291.456
291.86
292.206
292.488
292.712
292.881
293.003
293.082
293.126
293.141
294.061
293.963
293.881
293.822
293.791
293.798
293.901
294.165
294.539
294.935
295.297
295.606
295.865
296.084
296.278
296.452
296.601
296.709
296.761
296.763
296.691
296.469
296.086
295.631
295.146
294.617
294.035
293.399
292.715
291.993
291.249
290.501
289.771
289.086
288.476
287.974
287.616
287.422
287.372
287.49
287.94
288.678
289.38
289.99
290.545
291.041
291.47
291.839
292.149
292.409
292.621
292.791
292.92
293.013
293.074
293.108
294.085
293.982
293.888
293.813
293.764
293.743
293.769
293.909
294.19
294.548
294.906
295.224
295.489
295.703
295.877
296.021
296.138
296.227
296.278
296.292
296.257
296.115
295.828
295.454
295.034
294.571
294.067
293.527
292.951
292.346
291.724
291.098
290.487
289.908
289.385
288.942
288.603
288.39
288.306
288.327
288.541
289.054
289.645
290.173
290.653
291.094
291.482
291.815
292.097
292.334
292.532
292.694
292.825
292.927
293.002
293.053
294.114
294.008
293.906
293.817
293.75
293.709
293.696
293.739
293.898
294.175
294.503
294.823
295.101
295.326
295.502
295.635
295.734
295.803
295.844
295.858
295.842
295.754
295.559
295.281
294.944
294.555
294.126
293.666
293.18
292.673
292.151
291.626
291.11
290.618
290.165
289.77
289.451
289.225
289.103
289.071
289.142
289.421
289.878
290.329
290.742
291.128
291.481
291.789
292.054
292.276
292.459
292.611
292.735
292.835
292.915
292.975
294.144
294.04
293.934
293.835
293.751
293.69
293.655
293.649
293.7
293.86
294.116
294.41
294.693
294.935
295.128
295.272
295.371
295.434
295.467
295.477
295.466
295.407
295.276
295.083
294.837
294.534
294.184
293.803
293.396
292.969
292.531
292.088
291.651
291.229
290.836
290.483
290.184
289.952
289.799
289.729
289.724
289.825
290.108
290.473
290.821
291.15
291.461
291.746
291.999
292.215
292.395
292.541
292.66
292.756
292.833
292.894
294.173
294.076
293.97
293.866
293.77
293.69
293.634
293.602
293.598
293.649
293.795
294.02
294.277
294.525
294.738
294.905
295.024
295.099
295.136
295.147
295.139
295.098
295.004
294.865
294.692
294.476
294.211
293.911
293.582
293.23
292.864
292.491
292.12
291.758
291.414
291.099
290.822
290.592
290.42
290.312
290.268
290.277
290.387
290.632
290.912
291.182
291.444
291.692
291.922
292.131
292.312
292.463
292.587
292.686
292.765
292.827
294.192
294.111
294.012
293.906
293.804
293.712
293.636
293.582
293.551
293.545
293.586
293.706
293.894
294.114
294.33
294.517
294.664
294.767
294.827
294.851
294.852
294.83
294.766
294.66
294.529
294.376
294.189
293.966
293.716
293.44
293.143
292.835
292.522
292.212
291.913
291.632
291.377
291.156
290.975
290.843
290.762
290.729
290.743
290.844
291.036
291.248
291.457
291.662
291.856
292.04
292.21
292.361
292.492
292.601
292.69
292.761
294.198
294.137
294.053
293.953
293.849
293.75
293.661
293.587
293.535
293.503
293.492
293.518
293.605
293.752
293.933
294.117
294.282
294.413
294.507
294.561
294.582
294.58
294.551
294.48
294.378
294.26
294.126
293.967
293.785
293.582
293.355
293.11
292.855
292.595
292.338
292.09
291.858
291.648
291.467
291.32
291.212
291.145
291.117
291.129
291.208
291.35
291.509
291.671
291.829
291.978
292.121
292.256
292.38
292.49
292.584
292.664
294.185
294.149
294.084
293.999
293.901
293.8
293.703
293.617
293.545
293.493
293.458
293.442
293.451
293.503
293.608
293.747
293.898
294.04
294.159
294.247
294.302
294.326
294.327
294.302
294.238
294.148
294.045
293.93
293.798
293.653
293.492
293.311
293.115
292.907
292.695
292.483
292.277
292.083
291.906
291.753
291.627
291.532
291.47
291.442
291.446
291.498
291.597
291.714
291.837
291.959
292.075
292.185
292.288
292.384
292.472
292.55
294.153
294.139
294.099
294.034
293.951
293.856
293.759
293.666
293.582
293.511
293.458
293.42
293.398
293.393
293.415
293.476
293.572
293.687
293.804
293.909
293.992
294.05
294.081
294.089
294.073