/*--------------------------------*- C++ -*----------------------------------*\
| =========                 |                                                 |
| \\      /  F ield         | OpenFOAM: The Open Source CFD Toolbox           |
|  \\    /   O peration     | Version:  2406                                  |
|   \\  /    A nd           | Website:  www.openfoam.com                      |
|    \\/     M anipulation  |                                                 |
\*---------------------------------------------------------------------------*/
FoamFile
{
    version     2.0;
    format      ascii;
    arch        "LSB;label=32;scalar=64";
    class       volScalarField;
    location    "0.01";
    object      Ma;
}
// * * * * * * * * * * * * * * * * * * * * * * * * * * * * * * * * * * * * * //

dimensions      [0 0 0 0 0 0 0];

internalField   nonuniform List<scalar> 
83682
(
1.132
1.132
1.132
1.13199
1.13152
1.12031
1.05292
1.02064
1.02006
1.02019
1.02049
1.02071
1.02067
1.02048
1.02034
1.0203
1.02023
1.02011
1.01997
1.01981
1.0197
1.01961
1.01949
1.01936
1.01928
1.01923
1.01918
1.01912
1.01906
1.01901
1.01899
1.01898
1.01895
1.01892
1.01891
1.01889
1.01887
1.01885
1.01886
1.01888
1.01891
1.01894
1.01896
1.01897
1.01899
1.01901
1.01902
1.01904
1.01906
1.01908
1.01911
1.01914
1.01915
1.01915
1.01915
1.01914
1.01913
1.01911
1.0191
1.01907
1.01906
1.01904
1.01899
1.0189
1.01874
1.01839
1.01764
1.01617
1.01335
1.0083
0.99977
0.986263
0.966355
0.939288
0.905582
0.867602
0.829801
0.797707
0.775714
0.767101
0.765498
0.764772
0.764608
0.76465
0.764849
0.765255
0.765798
0.766314
0.766761
0.767181
0.767416
0.767436
0.767409
0.767316
0.76715
0.766931
0.76669
0.766504
0.766453
0.766462
0.766512
0.766614
0.766763
0.766872
0.766896
0.766894
0.766864
0.766777
0.76665
0.766564
0.766543
0.766548
0.766591
0.766682
0.766815
0.766927
0.766957
0.766952
0.766923
0.76685
0.76673
0.766589
0.766499
0.766488
0.766498
0.766543
0.766633
0.766755
0.766864
0.766916
0.766917
0.766887
0.766683
0.765444
0.75787
0.713892
0.517605
0.130407
0.00332337
6.02352e-06
5.87507e-10
2.20285e-14
1.90192e-14
2.17781e-14
2.25764e-14
2.29295e-14
2.35756e-14
2.43602e-14
2.47262e-14
2.56272e-14
2.64908e-14
2.58644e-14
2.47822e-14
2.32e-14
2.37725e-14
2.24185e-14
2.42706e-14
2.51364e-14
2.55893e-14
2.34543e-14
2.36079e-14
2.22204e-14
2.18119e-14
1.98388e-14
1.69287e-14
1.71684e-14
1.52762e-14
1.53742e-14
1.3908e-14
1.16328e-14
9.46835e-15
9.55139e-15
8.99868e-15
9.63372e-15
1.1335e-14
8.95552e-15
6.95214e-15
6.45636e-15
6.91889e-15
4.81028e-15
4.91793e-15
7.29179e-15
1.15433e-14
1.07836e-14
1.10763e-14
1.6588e-14
2.13223e-14
2.51748e-14
2.89222e-14
2.90139e-14
2.79336e-14
3.22382e-14
2.97407e-14
2.37545e-14
2.35221e-14
2.14699e-14
1.58989e-14
1.6148e-14
1.49436e-14
1.97577e-14
2.19934e-14
2.09408e-14
1.61671e-14
1.21918e-14
1.50714e-14
1.77202e-14
2.23854e-14
3.08737e-14
3.69564e-14
3.52424e-14
3.56114e-14
3.03778e-14
2.58366e-14
2.36821e-14
1.51911e-14
1.34466e-14
2.214e-14
1.99675e-14
2.22061e-14
2.12406e-14
1.52471e-14
9.73741e-15
9.8205e-15
9.72815e-15
1.19672e-14
1.34282e-14
1.73479e-14
2.28368e-14
2.46712e-14
1.47681e-14
1.27755e-14
1.41964e-14
1.20811e-14
1.0054e-14
1.00677e-14
5.75667e-15
9.98716e-15
1.47393e-14
1.34952e-14
1.46148e-14
1.15923e-14
1.1581e-14
1.3393e-14
9.26894e-15
9.97386e-15
9.74046e-15
7.671e-15
1.07517e-14
1.13336e-14
7.9775e-15
2.02536e-14
3.21522e-14
3.45762e-14
3.49401e-14
2.84535e-14
1.91861e-14
1.56026e-14
1.52887e-14
1.1633e-14
1.35839e-14
1.44906e-14
2.1023e-14
2.46528e-14
2.00561e-14
1.82302e-14
1.62643e-14
1.26186e-14
1.41814e-14
1.18651e-14
8.72668e-15
1.00149e-15
1.06525e-14
1.3862e-14
1.10113e-14
1.23726e-14
1.20803e-14
8.68825e-15
4.76697e-15
6.38395e-15
1.3981e-14
2.23905e-14
2.63811e-14
2.33706e-14
1.31274e-14
4.2175e-15
9.99656e-15
1.18489e-14
1.66363e-14
1.58635e-14
1.70202e-14
1.64417e-14
1.98156e-14
2.08736e-14
2.17479e-14
2.13379e-14
2.30569e-14
2.28858e-14
2.27163e-14
2.2641e-14
2.06595e-14
2.02096e-14
2.08836e-14
1.99149e-14
2.36541e-14
1.90519e-14
1.48181e-14
1.51139e-14
1.16646e-14
7.88124e-15
9.05396e-15
5.22332e-15
1.01317e-14
1.78028e-14
2.29044e-14
2.50507e-14
2.4786e-14
2.89043e-14
2.85059e-14
2.33118e-14
1.82984e-14
1.47026e-14
1.34831e-14
1.21055e-14
1.58886e-14
1.91928e-14
1.47376e-14
1.36271e-14
1.57108e-14
1.06246e-14
5.73249e-15
3.48959e-15
1.01861e-14
2.27911e-14
3.52191e-14
4.02095e-14
3.54274e-14
3.33584e-14
2.96247e-14
2.67068e-14
2.84187e-14
3.17631e-14
2.70339e-14
1.93467e-14
1.98503e-14
1.66191e-14
1.06875e-14
1.29151e-14
1.93106e-14
1.7118e-14
1.95793e-14
2.04552e-14
1.94377e-14
2.30712e-14
2.27275e-14
1.80374e-14
1.94368e-14
1.88301e-14
2.02416e-14
2.14406e-14
1.68826e-14
2.23438e-14
2.53132e-14
2.46054e-14
2.51092e-14
2.57495e-14
2.29245e-14
2.53167e-14
2.69712e-14
2.22591e-14
1.43822e-14
1.10935e-14
1.01487e-14
1.24661e-14
1.47079e-14
1.37474e-14
1.58813e-14
1.33083e-14
1.33574e-14
1.73938e-14
1.66856e-14
1.44675e-14
1.98036e-14
2.00264e-14
1.67379e-14
2.01928e-14
1.99467e-14
2.0977e-14
2.27344e-14
1.4214e-14
7.5284e-15
6.00363e-15
1.14787e-14
2.01889e-14
2.66811e-14
1.80438e-14
1.19367e-14
4.67482e-15
6.58653e-15
9.72571e-15
1.4671e-14
2.16498e-14
2.64421e-14
2.52574e-14
2.31657e-14
1.88479e-14
1.49903e-14
1.76306e-14
2.10103e-14
1.83715e-14
1.24847e-14
7.86423e-15
1.12267e-14
7.25296e-15
9.08497e-15
1.32017e-14
1.78119e-14
1.75785e-14
1.95464e-14
1.46453e-14
7.2133e-15
6.25289e-15
6.35995e-15
6.69801e-15
4.97521e-15
5.5023e-15
8.19857e-15
7.77638e-15
1.21585e-14
1.48225e-14
1.54788e-14
1.42021e-14
9.41038e-15
6.85635e-15
1.11156e-14
1.21011e-14
8.03737e-15
1.4987e-14
2.68232e-14
3.82531e-14
3.69578e-14
2.28206e-14
7.98382e-15
8.39136e-15
6.02407e-15
8.87617e-15
1.24049e-14
1.11313e-14
1.20746e-14
1.56488e-14
1.49101e-14
1.54038e-14
1.42925e-14
1.06628e-14
1.33182e-14
1.45188e-14
1.74352e-14
2.29751e-14
2.75621e-14
2.68851e-14
2.68464e-14
2.7177e-14
2.59852e-14
2.26396e-14
1.99984e-14
2.16637e-14
1.83759e-14
1.63622e-14
1.61088e-14
1.72209e-14
2.384e-14
2.78522e-14
2.4061e-14
2.19689e-14
1.83205e-14
2.28423e-14
2.71405e-14
2.7936e-14
2.90909e-14
3.21883e-14
2.85522e-14
1.92107e-14
1.47863e-14
1.59901e-14
1.69634e-14
1.71509e-14
1.8077e-14
2.09656e-14
2.76769e-14
2.65383e-14
2.89089e-14
3.16937e-14
3.65396e-14
3.36065e-14
3.48561e-14
2.98579e-14
2.44451e-14
2.35985e-14
2.307e-14
2.23128e-14
2.39605e-14
2.01005e-14
2.16936e-14
1.86024e-14
1.63985e-14
1.83961e-14
1.93934e-14
1.8403e-14
1.44254e-14
1.00618e-14
1.23336e-14
1.37896e-14
1.30329e-14
1.1579e-14
1.31826e-14
1.06757e-14
8.56366e-15
1.20036e-14
1.91941e-14
2.10517e-14
1.83124e-14
1.61458e-14
1.7204e-14
1.66619e-14
1.61456e-14
1.23108e-14
1.39884e-14
1.74799e-14
1.16248e-14
1.2459e-14
1.38828e-14
1.66335e-14
1.92839e-14
2.60991e-14
3.14647e-14
3.49308e-14
3.52972e-14
3.33641e-14
3.24047e-14
4.12583e-14
5.21921e-14
4.24431e-14
3.11426e-14
2.58011e-14
2.90833e-14
3.09256e-14
3.01294e-14
2.68308e-14
2.28327e-14
2.13462e-14
2.11973e-14
2.22031e-14
2.25786e-14
2.15801e-14
1.49313e-14
9.43997e-15
9.58116e-15
1.09302e-14
1.75338e-14
1.77783e-14
2.08236e-14
2.14602e-14
2.13943e-14
2.5308e-14
2.37089e-14
1.51103e-14
8.78407e-15
7.10874e-15
1.29489e-14
1.36991e-14
1.25421e-14
1.84546e-14
2.35306e-14
2.38699e-14
2.5372e-14
2.29663e-14
2.41315e-14
2.23557e-14
2.54228e-14
3.03266e-14
3.16814e-14
3.34026e-14
3.07179e-14
2.61302e-14
2.44243e-14
2.21207e-14
1.52537e-14
1.50904e-14
1.96631e-14
2.41674e-14
2.43086e-14
2.04698e-14
2.91749e-14
3.63707e-14
3.23513e-14
2.46094e-14
1.7579e-14
1.89713e-14
2.57374e-14
2.97393e-14
3.5701e-14
3.87553e-14
3.29261e-14
2.77125e-14
2.7469e-14
2.81637e-14
2.90564e-14
2.95698e-14
2.57759e-14
2.1807e-14
2.76984e-14
3.79548e-14
2.95117e-14
2.25857e-14
2.07876e-14
1.96201e-14
5.50282e-15
9.99588e-15
1.10576e-14
1.26768e-14
1.15103e-14
1.55744e-14
1.86077e-14
1.7868e-14
1.50494e-14
1.35119e-14
1.55104e-14
1.89184e-14
1.86318e-14
2.09992e-14
2.48132e-14
3.19064e-14
3.50834e-14
3.3533e-14
2.98978e-14
3.48895e-14
3.8123e-14
3.06528e-14
2.49937e-14
2.50806e-14
2.31533e-14
2.12305e-14
1.92972e-14
1.94952e-14
2.06492e-14
2.16346e-14
1.65676e-14
1.36641e-14
1.88828e-14
2.21906e-14
2.04874e-14
1.48085e-14
1.31334e-14
1.83e-14
1.9029e-14
2.54361e-14
2.62052e-14
2.60413e-14
2.5285e-14
2.3935e-14
2.0238e-14
1.47356e-14
1.65548e-14
2.44027e-14
3.08689e-14
3.32042e-14
3.20091e-14
2.91004e-14
2.85398e-14
2.31456e-14
2.0309e-14
2.6252e-14
3.71695e-14
4.59359e-14
5.16894e-14
4.26215e-14
3.68492e-14
2.63169e-14
1.55783e-14
1.95384e-14
2.41351e-14
2.71523e-14
2.52928e-14
2.54236e-14
2.38781e-14
1.89912e-14
1.88591e-14
2.49733e-14
2.21672e-14
2.08212e-14
1.35007e-14
1.43506e-14
1.92688e-14
2.64976e-14
2.74204e-14
2.0426e-14
1.132
1.132
1.132
1.13199
1.13152
1.12031
1.05292
1.02064
1.02006
1.02019
1.02049
1.02071
1.02067
1.02048
1.02034
1.0203
1.02023
1.02011
1.01997
1.01981
1.0197
1.01961
1.01949
1.01936
1.01928
1.01923
1.01918
1.01912
1.01906
1.01901
1.01899
1.01898
1.01895
1.01892
1.01891
1.01889
1.01887
1.01885
1.01886
1.01888
1.01891
1.01894
1.01896
1.01897
1.01899
1.01901
1.01902
1.01904
1.01906
1.01908
1.01911
1.01914
1.01915
1.01915
1.01915
1.01914
1.01913
1.01911
1.0191
1.01907
1.01906
1.01904
1.01899
1.0189
1.01874
1.01839
1.01764
1.01617
1.01335
1.0083
0.99977
0.986263
0.966355
0.939288
0.905582
0.867602
0.829801
0.797707
0.775714
0.767101
0.765498
0.764772
0.764608
0.76465
0.764849
0.765255
0.765798
0.766314
0.766761
0.767181
0.767416
0.767436
0.767409
0.767316
0.76715
0.766931
0.76669
0.766504
0.766453
0.766462
0.766512
0.766614
0.766763
0.766872
0.766896
0.766894
0.766864
0.766777
0.76665
0.766564
0.766543
0.766548
0.766591
0.766682
0.766815
0.766927
0.766957
0.766952
0.766923
0.76685
0.76673
0.766589
0.766499
0.766488
0.766498
0.766543
0.766633
0.766755
0.766864
0.766916
0.766917
0.766887
0.766683
0.765444
0.75787
0.713892
0.517605
0.130407
0.00332337
6.02352e-06
5.87507e-10
2.23403e-14
2.22576e-14
2.46316e-14
2.56727e-14
2.61291e-14
2.49655e-14
2.31648e-14
2.4505e-14
2.60441e-14
2.61745e-14
2.68735e-14
2.54126e-14
2.25066e-14
2.2355e-14
2.35043e-14
2.35686e-14
2.38419e-14
2.11393e-14
1.97962e-14
2.01416e-14
2.0939e-14
1.86527e-14
1.63195e-14
1.67902e-14
1.61451e-14
1.42885e-14
1.42021e-14
1.06829e-14
8.72409e-15
7.83319e-15
7.01089e-15
7.00532e-15
5.27964e-15
7.34471e-15
8.67324e-15
1.11452e-14
1.02418e-14
9.89265e-15
5.11733e-15
5.41674e-15
7.34604e-15
1.1207e-14
1.09164e-14
1.27259e-14
1.73684e-14
2.19791e-14
2.74028e-14
3.19046e-14
3.25149e-14
2.83158e-14
2.9833e-14
3.00095e-14
2.52813e-14
2.16154e-14
2.28865e-14
1.87824e-14
1.62569e-14
1.46965e-14
1.86842e-14
1.69175e-14
1.59322e-14
1.16144e-14
9.82662e-15
1.30595e-14
1.7024e-14
1.99471e-14
2.63622e-14
3.15028e-14
3.1824e-14
3.39451e-14
3.08018e-14
2.6216e-14
1.93581e-14
1.40407e-14
1.43331e-14
1.93101e-14
2.03099e-14
2.02085e-14
1.69702e-14
1.20422e-14
1.10677e-14
8.94087e-15
8.90468e-15
1.20319e-14
1.40732e-14
1.5082e-14
1.86767e-14
1.93794e-14
1.37136e-14
9.84162e-15
1.09444e-14
1.19868e-14
1.19447e-14
9.85993e-15
7.25496e-15
1.17289e-14
1.41919e-14
1.31801e-14
1.24109e-14
1.00157e-14
9.73284e-15
1.02102e-14
8.10945e-15
1.07265e-14
9.93788e-15
8.65985e-15
1.09998e-14
8.15197e-15
7.11237e-15
1.653e-14
2.34668e-14
2.66404e-14
2.67587e-14
2.25275e-14
1.76054e-14
1.64246e-14
1.39533e-14
1.02399e-14
1.09455e-14
1.13169e-14
1.54013e-14
1.78932e-14
1.7938e-14
1.63115e-14
1.46452e-14
1.45789e-14
1.44874e-14
9.71433e-15
6.9274e-15
6.05465e-15
1.01454e-14
1.25948e-14
8.88114e-15
1.0973e-14
1.17776e-14
6.8237e-15
5.04949e-15
1.01875e-14
1.89766e-14
2.22053e-14
2.07068e-14
2.22687e-14
1.63412e-14
9.20782e-15
1.09168e-14
1.24453e-14
1.72791e-14
1.61722e-14
1.82708e-14
1.75796e-14
2.07272e-14
2.18937e-14
2.30613e-14
2.23475e-14
2.34904e-14
2.14389e-14
2.02959e-14
2.16161e-14
1.68084e-14
1.78345e-14
1.9357e-14
1.76126e-14
2.12798e-14
1.77057e-14
1.34038e-14
1.39152e-14
1.27462e-14
8.62709e-15
8.76555e-15
6.5107e-15
9.4823e-15
1.40239e-14
2.07029e-14
2.4831e-14
2.22971e-14
2.45698e-14
2.58191e-14
2.08732e-14
1.4849e-14
1.46542e-14
1.39412e-14
1.1581e-14
1.37697e-14
1.16179e-14
7.43794e-15
1.25156e-14
1.37397e-14
9.73733e-15
7.23724e-15
4.48171e-15
8.3428e-15
2.01333e-14
3.1528e-14
3.63167e-14
3.26682e-14
3.07603e-14
2.98277e-14
2.47153e-14
2.4058e-14
2.70139e-14
2.313e-14
1.63933e-14
1.71736e-14
1.13129e-14
1.20683e-14
1.22514e-14
1.63871e-14
1.80073e-14
1.95372e-14
1.99974e-14
2.21344e-14
2.05066e-14
1.94181e-14
1.92745e-14
2.144e-14
2.16329e-14
1.82983e-14
1.99081e-14
2.01358e-14
2.29395e-14
2.59203e-14
2.43517e-14
2.47037e-14
2.42692e-14
2.31156e-14
2.63642e-14
2.51646e-14
1.96305e-14
1.26639e-14
1.04302e-14
9.81534e-15
1.15995e-14
1.38835e-14
1.39721e-14
1.48288e-14
1.54589e-14
1.68513e-14
1.77644e-14
1.63257e-14
1.34138e-14
1.898e-14
1.85533e-14
1.8955e-14
2.08734e-14
1.83372e-14
1.94053e-14
1.68519e-14
1.23062e-14
8.66946e-15
7.79441e-15
1.05747e-14
1.6398e-14
1.93081e-14
1.45248e-14
9.33399e-15
4.72882e-15
6.00044e-15
8.35484e-15
1.22884e-14
1.9748e-14
2.70857e-14
2.38354e-14
2.06178e-14
1.65542e-14
1.47983e-14
1.87945e-14
1.96618e-14
1.61045e-14
1.1948e-14
8.66803e-15
6.9815e-15
8.8791e-15
1.08321e-14
1.25083e-14
1.63569e-14
1.67694e-14
1.92331e-14
1.34604e-14
8.90472e-15
7.92707e-15
9.94677e-15
8.47364e-15
7.34603e-15
8.33455e-15
1.26778e-14
1.17917e-14
1.53738e-14
1.6047e-14
1.52689e-14
1.20311e-14
9.41958e-15
5.4428e-15
1.09672e-14
1.0708e-14
8.78038e-15
1.61513e-14
2.30447e-14
3.19498e-14
2.76215e-14
1.62894e-14
7.54971e-15
8.40592e-15
6.8866e-15
8.67591e-15
1.30262e-14
8.94479e-15
1.27683e-14
1.63458e-14
1.35143e-14
1.50896e-14
1.79322e-14
1.35911e-14
1.65844e-14
1.34869e-14
1.58176e-14
2.25306e-14
2.7134e-14
2.51408e-14
2.70712e-14
2.68082e-14
2.48046e-14
2.01219e-14
1.87907e-14
2.155e-14
1.70646e-14
1.60987e-14
1.70416e-14
1.46388e-14
1.80767e-14
2.28393e-14
2.40312e-14
2.36039e-14
2.01689e-14
2.2475e-14
2.52386e-14
2.47917e-14
2.86198e-14
2.98228e-14
2.8318e-14
2.3252e-14
1.6735e-14
1.37734e-14
1.41115e-14
1.62261e-14
1.67487e-14
1.90893e-14
2.16201e-14
2.22635e-14
2.49279e-14
2.46702e-14
2.69163e-14
2.53175e-14
2.30143e-14
2.14872e-14
2.12957e-14
2.15304e-14
2.54884e-14
2.22455e-14
2.23898e-14
1.9729e-14
2.17973e-14
1.86822e-14
1.70536e-14
1.7292e-14
1.92869e-14
1.71457e-14
1.40835e-14
9.3393e-15
1.16379e-14
1.25355e-14
1.3365e-14
1.23886e-14
1.16988e-14
8.32798e-15
8.11084e-15
9.84859e-15
8.97515e-15
9.34565e-15
1.04509e-14
1.23816e-14
1.3582e-14
1.58385e-14
1.49659e-14
1.24606e-14
1.336e-14
1.23693e-14
1.01301e-14
1.28945e-14
1.17673e-14
1.7036e-14
2.08503e-14
2.74571e-14
2.96037e-14
3.34615e-14
3.48615e-14
3.05399e-14
3.11044e-14
3.38422e-14
3.83704e-14
3.40088e-14
2.95115e-14
2.58308e-14
2.7558e-14
2.98364e-14
2.65113e-14
2.64635e-14
2.36291e-14
2.12942e-14
2.26148e-14
2.11915e-14
2.39162e-14
2.39387e-14
1.69161e-14
1.1474e-14
9.44763e-15
1.18551e-14
1.60371e-14
1.66999e-14
2.04026e-14
1.99367e-14
1.98054e-14
2.21258e-14
1.85831e-14
1.2128e-14
1.19258e-14
9.2707e-15
8.84276e-15
1.16207e-14
1.15257e-14
1.58042e-14
2.1655e-14
2.3426e-14
2.40921e-14
2.2672e-14
2.36129e-14
2.28834e-14
2.40384e-14
2.79014e-14
3.04472e-14
3.14155e-14
2.7831e-14
2.51334e-14
2.53218e-14
2.2197e-14
1.61443e-14
1.93932e-14
2.21764e-14
2.53124e-14
2.29464e-14
1.8271e-14
2.59758e-14
2.94546e-14
2.845e-14
2.34436e-14
1.63505e-14
1.99426e-14
2.86985e-14
3.23034e-14
3.51955e-14
3.31626e-14
2.88627e-14
2.6985e-14
2.58481e-14
2.76836e-14
2.67101e-14
2.86127e-14
2.30903e-14
1.89066e-14
2.27343e-14
2.8338e-14
2.43052e-14
2.07238e-14
2.01309e-14
1.69378e-14
6.84868e-15
9.01717e-15
1.4621e-14
1.59793e-14
1.18447e-14
1.28999e-14
1.62292e-14
1.5673e-14
1.34225e-14
1.4425e-14
1.5656e-14
1.73322e-14
1.89347e-14
1.80872e-14
2.5384e-14
3.437e-14
3.39543e-14
3.18863e-14
2.66185e-14
3.00448e-14
3.13038e-14
2.62716e-14
2.41729e-14
2.37016e-14
2.06852e-14
1.88477e-14
1.71678e-14
1.7496e-14
1.91328e-14
1.69721e-14
1.35719e-14
1.53817e-14
1.87147e-14
1.96555e-14
1.69302e-14
1.13423e-14
1.22224e-14
1.49381e-14
1.876e-14
2.44516e-14
2.44739e-14
2.45627e-14
2.38065e-14
2.37875e-14
2.09483e-14
1.87539e-14
1.78838e-14
2.33385e-14
2.91086e-14
3.18031e-14
3.41479e-14
3.0153e-14
2.66239e-14
2.439e-14
2.01852e-14
2.33673e-14
3.23581e-14
3.90154e-14
3.92227e-14
3.89069e-14
3.60337e-14
2.70512e-14
2.11664e-14
2.2251e-14
2.67164e-14
2.7776e-14
2.64121e-14
2.68199e-14
2.39123e-14
1.9107e-14
1.85767e-14
1.83667e-14
1.31225e-14
1.2731e-14
1.3839e-14
1.57892e-14
2.05561e-14
2.61181e-14
2.74394e-14
2.2498e-14
1.132
1.132
1.132
1.13199
1.13152
1.12031
1.05292
1.02064
1.02006
1.02019
1.02049
1.02071
1.02067
1.02048
1.02034
1.0203
1.02023
1.02011
1.01997
1.01981
1.0197
1.01961
1.01949
1.01936
1.01928
1.01923
1.01918
1.01912
1.01906
1.01901
1.01899
1.01898
1.01895
1.01892
1.01891
1.01889
1.01887
1.01885
1.01886
1.01888
1.01891
1.01894
1.01896
1.01897
1.01899
1.01901
1.01902
1.01904
1.01906
1.01908
1.01911
1.01914
1.01915
1.01915
1.01915
1.01914
1.01913
1.01911
1.0191
1.01907
1.01906
1.01904
1.01899
1.0189
1.01874
1.01839
1.01764
1.01617
1.01335
1.0083
0.99977
0.986263
0.966355
0.939288
0.905582
0.867602
0.829801
0.797707
0.775714
0.767101
0.765498
0.764772
0.764608
0.76465
0.764849
0.765255
0.765798
0.766314
0.766761
0.767181
0.767416
0.767436
0.767409
0.767316
0.76715
0.766931
0.76669
0.766504
0.766453
0.766462
0.766512
0.766614
0.766763
0.766872
0.766896
0.766894
0.766864
0.766777
0.76665
0.766564
0.766543
0.766548
0.766591
0.766682
0.766815
0.766927
0.766957
0.766952
0.766923
0.76685
0.76673
0.766589
0.766499
0.766488
0.766498
0.766543
0.766633
0.766755
0.766864
0.766916
0.766917
0.766887
0.766683
0.765444
0.75787
0.713892
0.517605
0.130407
0.00332337
6.02352e-06
5.8751e-10
2.14185e-14
1.97181e-14
2.00872e-14
2.07944e-14
2.22429e-14
2.27866e-14
2.38275e-14
2.5372e-14
2.59859e-14
2.58982e-14
2.35969e-14
2.18479e-14
1.98068e-14
1.95749e-14
1.94377e-14
1.89758e-14
1.75605e-14
1.38998e-14
1.40558e-14
1.34409e-14
1.42347e-14
1.06831e-14
9.92475e-15
1.18836e-14
1.10816e-14
8.48606e-15
7.22775e-15
7.10396e-15
5.97591e-15
4.61646e-15
3.33355e-15
3.15722e-15
6.94858e-15
7.30776e-15
1.35041e-14
1.86778e-14
1.60592e-14
1.63031e-14
9.494e-15
5.74259e-15
4.6187e-15
8.86222e-15
1.22046e-14
1.34339e-14
1.92109e-14
2.15432e-14
2.55156e-14
2.98107e-14
3.14829e-14
2.94494e-14
2.6307e-14
2.3521e-14
2.41029e-14
2.16002e-14
1.86991e-14
1.85725e-14
1.6119e-14
1.74418e-14
1.422e-14
1.38899e-14
1.27295e-14
9.59539e-15
8.00333e-15
9.69744e-15
1.26544e-14
1.67679e-14
1.74679e-14
1.90673e-14
2.21437e-14
2.50871e-14
2.40412e-14
2.02897e-14
1.69206e-14
1.32834e-14
1.2994e-14
1.32519e-14
1.45042e-14
1.14212e-14
8.20271e-15
6.97164e-15
1.07047e-14
8.25715e-15
7.34857e-15
1.00585e-14
1.13482e-14
1.02366e-14
1.14711e-14
1.19749e-14
1.05729e-14
8.67424e-15
8.17189e-15
1.1011e-14
1.09189e-14
1.20043e-14
1.05817e-14
1.22616e-14
1.27357e-14
1.15448e-14
9.77518e-15
7.55615e-15
5.8371e-15
6.23061e-15
4.88773e-15
5.92802e-15
8.84366e-15
1.03198e-14
9.30288e-15
5.60333e-15
6.9338e-15
1.00198e-14
1.33832e-14
1.2192e-14
1.2268e-14
1.3534e-14
1.30679e-14
1.26581e-14
8.62801e-15
6.98492e-15
7.11059e-15
6.83091e-15
7.35093e-15
1.00396e-14
1.28028e-14
1.17279e-14
1.28498e-14
1.31545e-14
1.08614e-14
8.27079e-15
1.04741e-14
9.53753e-15
6.17625e-15
6.6822e-15
7.39533e-15
1.09046e-14
1.00082e-14
9.91486e-15
1.022e-14
1.54574e-14
2.22626e-14
2.06714e-14
2.09804e-14
1.70884e-14
1.83971e-14
1.38929e-14
8.92582e-15
9.25672e-15
1.31322e-14
1.60527e-14
1.62231e-14
1.66611e-14
1.80013e-14
1.78889e-14
2.03938e-14
2.06501e-14
1.90873e-14
1.76767e-14
1.43977e-14
1.47556e-14
1.15833e-14
1.43799e-14
2.03655e-14
1.83764e-14
1.57858e-14
1.31333e-14
9.69946e-15
8.29854e-15
8.74118e-15
9.9671e-15
7.16756e-15
7.55549e-15
1.01223e-14
1.01695e-14
1.45977e-14
1.97732e-14
2.10887e-14
1.88859e-14
1.97798e-14
1.84242e-14
1.73776e-14
1.55632e-14
1.31229e-14
1.28092e-14
9.19462e-15
6.30755e-15
8.81063e-15
1.10317e-14
1.05988e-14
8.26636e-15
6.34893e-15
7.55582e-15
5.10897e-15
1.42488e-14
2.34747e-14
2.5833e-14
2.41407e-14
2.50926e-14
2.70802e-14
2.12314e-14
1.60024e-14
1.75461e-14
1.37632e-14
1.16473e-14
1.38112e-14
9.69046e-15
8.28542e-15
9.1675e-15
1.38809e-14
1.88099e-14
1.75949e-14
1.78909e-14
2.0786e-14
2.20716e-14
1.92301e-14
1.6973e-14
1.84823e-14
2.18835e-14
2.21444e-14
1.93882e-14
1.74401e-14
2.3382e-14
2.64984e-14
2.48863e-14
2.4293e-14
2.23891e-14
2.27915e-14
2.21149e-14
1.95484e-14
1.44949e-14
1.02699e-14
8.99298e-15
9.59394e-15
1.10835e-14
1.37394e-14
1.34518e-14
1.25756e-14
1.46637e-14
1.83907e-14
2.40441e-14
1.785e-14
1.42833e-14
1.84476e-14
1.93176e-14
2.06628e-14
1.97568e-14
2.02523e-14
2.01204e-14
1.90741e-14
1.3793e-14
1.0491e-14
1.00163e-14
1.08764e-14
1.41238e-14
1.23956e-14
1.09393e-14
8.87828e-15
7.47267e-15
7.59639e-15
1.05358e-14
1.51612e-14
1.84742e-14
2.40605e-14
2.21201e-14
1.79366e-14
1.47712e-14
1.67276e-14
1.85525e-14
1.56165e-14
1.28334e-14
1.15946e-14
9.76006e-15
8.25901e-15
1.07038e-14
1.22189e-14
1.61529e-14
1.4014e-14
1.56521e-14
1.89478e-14
1.49675e-14
1.29715e-14
1.35971e-14
1.42192e-14
1.25674e-14
1.33305e-14
1.42356e-14
1.67514e-14
1.57699e-14
1.58865e-14
1.45871e-14
1.43834e-14
1.30312e-14
1.12218e-14
8.16999e-15
1.18951e-14
1.06106e-14
1.6191e-14
1.90599e-14
1.77154e-14
2.31944e-14
1.86999e-14
1.31155e-14
1.03825e-14
1.25562e-14
1.12922e-14
1.22829e-14
1.07996e-14
1.02783e-14
1.41938e-14
1.31927e-14
1.1566e-14
1.25809e-14
1.44344e-14
1.55994e-14
1.53465e-14
1.39571e-14
1.61616e-14
2.0043e-14
2.05897e-14
2.02444e-14
2.10355e-14
1.928e-14
1.93062e-14
1.74075e-14
1.66664e-14
1.67499e-14
1.57969e-14
1.67483e-14
2.21739e-14
2.29491e-14
1.61578e-14
1.66665e-14
2.00791e-14
2.04782e-14
2.25425e-14
2.43273e-14
2.45265e-14
2.43264e-14
2.94838e-14
2.56521e-14
2.36912e-14
2.40354e-14
1.85123e-14
1.26959e-14
1.26945e-14
1.28176e-14
1.36559e-14
1.50107e-14
1.70482e-14
1.86784e-14
1.91423e-14
1.72682e-14
1.76491e-14
1.54162e-14
1.49268e-14
1.70965e-14
1.73871e-14
1.8338e-14
2.21707e-14
2.1063e-14
1.98173e-14
1.75144e-14
2.18066e-14
1.95321e-14
1.81698e-14
1.36518e-14
1.40969e-14
1.26786e-14
1.0926e-14
1.07162e-14
1.16702e-14
1.31432e-14
1.28505e-14
1.08706e-14
1.07267e-14
9.62156e-15
8.50381e-15
6.76265e-15
7.72616e-15
8.65218e-15
9.81955e-15
9.6373e-15
1.28122e-14
1.27494e-14
1.2262e-14
1.40084e-14
1.47147e-14
1.39652e-14
1.44226e-14
1.37073e-14
1.31474e-14
1.86804e-14
2.05321e-14
2.42893e-14
2.9249e-14
3.4045e-14
3.367e-14
2.75872e-14
2.6269e-14
2.47696e-14
2.31476e-14
2.37861e-14
2.30593e-14
2.31913e-14
2.40181e-14
2.39929e-14
2.05963e-14
2.128e-14
2.44343e-14
2.29899e-14
2.5179e-14
2.4812e-14
2.58209e-14
2.89104e-14
1.96374e-14
1.38135e-14
1.0865e-14
1.21967e-14
1.48415e-14
1.86219e-14
2.02241e-14
1.92549e-14
1.9385e-14
2.08231e-14
1.77856e-14
1.38646e-14
1.56528e-14
1.11155e-14
5.73884e-15
8.1539e-15
1.07229e-14
1.41895e-14
1.70137e-14
2.08983e-14
2.25433e-14
2.04834e-14
1.94537e-14
2.35984e-14
2.20433e-14
2.2739e-14
2.4825e-14
2.67122e-14
2.31375e-14
2.34222e-14
2.86937e-14
2.30815e-14
1.92965e-14
2.30573e-14
2.26715e-14
2.24829e-14
1.9765e-14
1.72268e-14
1.92145e-14
1.97341e-14
2.12925e-14
1.96327e-14
1.94528e-14
1.90275e-14
2.51352e-14
2.84364e-14
2.86818e-14
2.62904e-14
2.43171e-14
2.26878e-14
2.18867e-14
2.08349e-14
2.06427e-14
2.07396e-14
1.76894e-14
1.51737e-14
1.48662e-14
2.10812e-14
2.37009e-14
1.68571e-14
1.86391e-14
1.60514e-14
8.74366e-15
8.14025e-15
1.52685e-14
1.43875e-14
1.05006e-14
1.00242e-14
1.59049e-14
1.33751e-14
1.36629e-14
1.55588e-14
1.64038e-14
1.72649e-14
2.07492e-14
2.08528e-14
2.72381e-14
3.12309e-14
2.92343e-14
2.70072e-14
2.36308e-14
2.39046e-14
2.2534e-14
2.09262e-14
2.3289e-14
1.9847e-14
1.67711e-14
1.62948e-14
1.4412e-14
1.36876e-14
1.39588e-14
1.22026e-14
1.44757e-14
1.69284e-14
1.68017e-14
1.78566e-14
1.17256e-14
6.24033e-15
8.27368e-15
9.66889e-15
1.34558e-14
1.83518e-14
1.91262e-14
1.81418e-14
1.79726e-14
1.91598e-14
1.76849e-14
1.92076e-14
2.21257e-14
2.41747e-14
2.67666e-14
2.87763e-14
3.29512e-14
3.25383e-14
2.52036e-14
2.45639e-14
2.03011e-14
1.90893e-14
2.1783e-14
2.54362e-14
3.08993e-14
3.41062e-14
3.10195e-14
2.72841e-14
2.29726e-14
2.40102e-14
2.50162e-14
2.30665e-14
2.1713e-14
2.09324e-14
1.93474e-14
1.59302e-14
1.21157e-14
8.50841e-15
6.48761e-15
4.95152e-15
1.09714e-14
1.87478e-14
2.60062e-14
2.64993e-14
2.82842e-14
2.60696e-14
1.132
1.132
1.132
1.13199
1.13152
1.12031
1.05292
1.02064
1.02006
1.02019
1.02049
1.02071
1.02067
1.02048
1.02034
1.0203
1.02023
1.02011
1.01997
1.01981
1.0197
1.01961
1.01949
1.01936
1.01928
1.01923
1.01918
1.01912
1.01906
1.01901
1.01899
1.01898
1.01895
1.01892
1.01891
1.01889
1.01887
1.01885
1.01886
1.01888
1.01891
1.01894
1.01896
1.01897
1.01899
1.01901
1.01902
1.01904
1.01906
1.01908
1.01911
1.01914
1.01915
1.01915
1.01915
1.01914
1.01913
1.01911
1.0191
1.01907
1.01906
1.01904
1.01899
1.0189
1.01874
1.01839
1.01764
1.01617
1.01335
1.0083
0.99977
0.986263
0.966355
0.939288
0.905582
0.867602
0.829801
0.797707
0.775714
0.767101
0.765498
0.764772
0.764608
0.76465
0.764849
0.765255
0.765798
0.766314
0.766761
0.767181
0.767416
0.767436
0.767409
0.767316
0.76715
0.766931
0.76669
0.766504
0.766453
0.766462
0.766512
0.766614
0.766763
0.766872
0.766896
0.766894
0.766864
0.766777
0.76665
0.766564
0.766543
0.766548
0.766591
0.766682
0.766815
0.766927
0.766957
0.766952
0.766923
0.76685
0.76673
0.766589
0.766499
0.766488
0.766498
0.766543
0.766633
0.766755
0.766864
0.766916
0.766917
0.766887
0.766683
0.765444
0.75787
0.713892
0.517605
0.130407
0.00332337
6.02352e-06
5.87507e-10
1.98389e-14
1.48761e-14
1.81188e-14
1.91601e-14
1.96818e-14
2.1639e-14
2.25052e-14
2.24142e-14
2.31765e-14
2.38361e-14
2.47813e-14
2.24512e-14
2.07551e-14
1.50208e-14
1.05066e-14
1.02171e-14
8.08681e-15
6.52543e-15
6.81953e-15
5.80339e-15
4.92601e-15
2.44464e-15
3.59243e-15
4.0186e-15
3.75667e-15
3.32958e-15
3.5524e-15
1.0496e-15
2.11301e-15
3.51054e-15
2.38966e-15
4.20662e-15
5.87522e-15
1.00654e-14
1.57904e-14
1.856e-14
1.74024e-14
1.90277e-14
1.35844e-14
1.06932e-14
1.05962e-14
1.43207e-14
1.6004e-14
1.75117e-14
1.89935e-14
2.28316e-14
3.13519e-14
3.11656e-14
2.92012e-14
2.7035e-14
2.58712e-14
2.56645e-14
2.27146e-14
2.10843e-14
1.77189e-14
1.56812e-14
1.80847e-14
1.78477e-14
2.15262e-14
2.3487e-14
2.02045e-14
1.23881e-14
9.77841e-15
6.81632e-15
9.17075e-15
1.1704e-14
1.14944e-14
1.07721e-14
1.46434e-14
1.77583e-14
2.05038e-14
1.61866e-14
1.61614e-14
1.02664e-14
1.08321e-14
9.72891e-15
8.8513e-15
5.60939e-15
4.41368e-15
2.67072e-15
6.97789e-15
7.44654e-15
9.64283e-15
8.83013e-15
1.05306e-14
1.04608e-14
9.87482e-15
9.87989e-15
8.08147e-15
6.94457e-15
7.19687e-15
8.81062e-15
8.65551e-15
8.17572e-15
9.20754e-15
9.86469e-15
8.85359e-15
9.84321e-15
9.3832e-15
7.25318e-15
6.48422e-15
6.49977e-15
8.6174e-15
7.09395e-15
8.0688e-15
9.20471e-15
7.92985e-15
7.44368e-15
9.46633e-15
6.39949e-15
7.68977e-15
7.18528e-15
6.59115e-15
7.97387e-15
6.21982e-15
7.38716e-15
5.33635e-15
6.01439e-15
7.16108e-15
5.49e-15
7.50614e-15
8.64083e-15
7.72324e-15
9.89176e-15
1.13176e-14
8.65438e-15
8.2149e-15
8.36423e-15
1.0551e-14
6.8199e-15
5.81831e-15
7.00419e-15
9.07582e-15
1.24523e-14
1.38168e-14
1.4584e-14
1.45277e-14
1.70233e-14
2.20957e-14
2.26987e-14
1.97023e-14
1.8632e-14
1.69009e-14
1.09681e-14
1.03413e-14
9.2897e-15
1.07709e-14
1.36457e-14
1.34516e-14
1.2788e-14
1.49098e-14
1.37184e-14
1.5898e-14
1.63461e-14
1.41964e-14
1.44166e-14
1.54252e-14
1.41274e-14
1.37125e-14
1.54557e-14
1.69424e-14
1.78392e-14
1.15074e-14
8.34898e-15
7.34966e-15
8.24803e-15
7.46025e-15
9.08762e-15
8.79347e-15
8.11031e-15
1.01598e-14
1.14035e-14
1.17652e-14
1.41237e-14
1.77531e-14
1.78099e-14
1.72118e-14
1.76433e-14
1.68145e-14
1.72662e-14
1.50657e-14
1.17343e-14
8.62918e-15
1.0692e-14
1.21812e-14
1.13184e-14
8.29926e-15
6.37203e-15
6.88966e-15
4.16646e-15
6.48032e-15
9.26823e-15
1.40537e-14
1.95327e-14
2.215e-14
2.30068e-14
2.10897e-14
1.94834e-14
1.78126e-14
1.61898e-14
1.16434e-14
1.22069e-14
1.22749e-14
1.09089e-14
6.95862e-15
6.90842e-15
1.26921e-14
1.58292e-14
1.68466e-14
1.947e-14
2.13263e-14
2.12674e-14
1.82236e-14
1.61672e-14
1.64634e-14
2.10343e-14
2.23445e-14
2.02233e-14
1.70657e-14
2.11223e-14
2.3359e-14
2.33041e-14
1.92475e-14
1.61099e-14
1.80918e-14
1.74831e-14
1.53411e-14
1.31974e-14
1.16135e-14
1.17604e-14
1.25672e-14
1.48001e-14
1.4469e-14
1.18483e-14
1.23875e-14
9.3217e-15
1.32739e-14
1.7888e-14
1.85533e-14
1.60242e-14
1.8979e-14
2.03128e-14
1.93662e-14
1.823e-14
2.04479e-14
1.9714e-14
1.93538e-14
1.67898e-14
1.29939e-14
1.31264e-14
1.52017e-14
1.47089e-14
1.4077e-14
1.22855e-14
9.53127e-15
1.11825e-14
1.18759e-14
1.23246e-14
1.64515e-14
1.93811e-14
2.15408e-14
1.97505e-14
1.80785e-14
1.58014e-14
1.3504e-14
1.11795e-14
8.91271e-15
1.21255e-14
1.36094e-14
1.26574e-14
1.10997e-14
1.20822e-14
1.3423e-14
1.29505e-14
1.44329e-14
1.76623e-14
1.68853e-14
1.49666e-14
1.70695e-14
1.79519e-14
1.55952e-14
1.58542e-14
1.34022e-14
1.28447e-14
1.39412e-14
1.39722e-14
1.22126e-14
1.33375e-14
1.42282e-14
1.48386e-14
1.36086e-14
1.26345e-14
1.33629e-14
1.62974e-14
1.85776e-14
1.68092e-14
1.78813e-14
1.88445e-14
1.60014e-14
1.32029e-14
1.19e-14
1.32071e-14
1.19468e-14
1.36617e-14
1.18717e-14
1.42711e-14
1.40444e-14
1.22477e-14
1.24227e-14
1.20509e-14
1.16531e-14
1.45039e-14
1.43581e-14
1.54285e-14
1.71879e-14
1.74025e-14
1.66055e-14
1.7876e-14
1.65444e-14
1.65493e-14
1.71449e-14
1.69009e-14
1.47677e-14
1.27701e-14
1.47835e-14
1.64997e-14
1.75719e-14
1.9325e-14
1.76417e-14
1.56588e-14
1.72539e-14
1.84618e-14
2.17164e-14
2.34075e-14
2.42266e-14
2.36587e-14
2.61828e-14
2.3887e-14
2.25497e-14
2.27999e-14
1.74668e-14
1.36302e-14
1.01059e-14
1.10504e-14
1.19331e-14
1.11542e-14
1.51073e-14
1.43898e-14
1.52441e-14
1.80688e-14
1.5787e-14
1.34352e-14
1.39859e-14
1.62388e-14
1.3603e-14
1.55829e-14
1.71767e-14
1.732e-14
1.9067e-14
1.69545e-14
2.05149e-14
1.83411e-14
1.44952e-14
1.02094e-14
8.92825e-15
1.06289e-14
9.28113e-15
9.90791e-15
1.26575e-14
1.46421e-14
1.59062e-14
1.41692e-14
1.2453e-14
1.26077e-14
1.15102e-14
1.03368e-14
1.52103e-14
1.80566e-14
1.7446e-14
1.48805e-14
1.36249e-14
1.02653e-14
1.04559e-14
1.32602e-14
1.4807e-14
1.76833e-14
1.82106e-14
1.78315e-14
1.94479e-14