/*--------------------------------*- C++ -*----------------------------------*\
| =========                 |                                                 |
| \\      /  F ield         | OpenFOAM: The Open Source CFD Toolbox           |
|  \\    /   O peration     | Version:  2406                                  |
|   \\  /    A nd           | Website:  www.openfoam.com                      |
|    \\/     M anipulation  |                                                 |
\*---------------------------------------------------------------------------*/
FoamFile
{
    version     2.0;
    format      ascii;
    arch        "LSB;label=32;scalar=64";
    class       volVectorField;
    location    "0.01";
    object      U;
}
// * * * * * * * * * * * * * * * * * * * * * * * * * * * * * * * * * * * * * //

dimensions      [0 1 -1 0 0 0 0];

internalField   nonuniform List<vector> 
83682
(
(347.059 3.76337e-12 -5.44939e-12)
(347.059 3.93904e-12 -5.53412e-12)
(347.059 4.13054e-12 -5.6193e-12)
(347.055 4.78628e-12 -4.38152e-12)
(346.938 -2.36154e-12 -1.56433e-11)
(344.129 -2.72827e-10 -5.08937e-10)
(327.039 3.30715e-09 6.00173e-09)
(318.726 -2.71254e-09 -4.8866e-09)
(318.569 -1.00591e-09 -1.83043e-09)
(318.605 -2.45619e-10 -4.6069e-10)
(318.682 -1.61495e-11 -4.31102e-11)
(318.741 1.68695e-10 2.94861e-10)
(318.732 2.10376e-10 3.74322e-10)
(318.685 2.97214e-10 5.50878e-10)
(318.651 2.81639e-10 5.25126e-10)
(318.638 1.09045e-10 1.94404e-10)
(318.622 5.54267e-11 9.05337e-11)
(318.591 1.36948e-11 7.78832e-12)
(318.553 -2.14847e-11 -6.37025e-11)
(318.512 -3.37099e-11 -8.85673e-11)
(318.481 -3.09249e-11 -8.45851e-11)
(318.458 -2.15589e-11 -6.39143e-11)
(318.425 -8.93814e-12 -3.28971e-11)
(318.39 3.94394e-12 -6.63447e-12)
(318.369 9.04246e-12 7.30062e-12)
(318.358 9.8387e-12 1.21177e-11)
(318.345 9.14674e-12 1.37906e-11)
(318.33 7.07339e-12 9.63202e-12)
(318.317 2.60507e-12 2.55576e-12)
(318.304 1.93249e-13 -2.32115e-12)
(318.301 -3.33594e-13 -4.15557e-12)
(318.297 -3.22601e-13 -6.33176e-12)
(318.288 -1.12858e-12 -6.69318e-12)
(318.28 -2.82776e-12 -5.64603e-12)
(318.275 -1.58694e-12 -4.78813e-12)
(318.269 -2.37905e-12 -3.92414e-12)
(318.262 -2.61242e-12 -2.50789e-12)
(318.258 -1.22702e-12 -2.13559e-12)
(318.262 -1.78252e-12 -1.1624e-12)
(318.268 -3.65707e-12 -1.31716e-12)
(318.276 -2.51713e-12 -1.57178e-12)
(318.288 -2.40591e-12 -1.16388e-12)
(318.294 -2.4561e-12 -1.72228e-12)
(318.297 -2.54623e-12 -1.45444e-12)
(318.301 -9.45318e-13 -9.95232e-13)
(318.305 -2.582e-12 -5.89832e-13)
(318.308 -1.23167e-12 -1.07861e-12)
(318.311 -2.96426e-12 -9.22528e-13)
(318.315 -6.5104e-13 -4.60311e-13)
(318.319 -7.415e-13 -6.68164e-13)
(318.326 -4.15851e-13 -5.25205e-13)
(318.335 -7.54881e-13 -4.61974e-13)
(318.338 -1.88312e-12 2.55115e-14)
(318.338 -2.02767e-12 -6.69278e-15)
(318.339 9.70378e-13 -4.78901e-13)
(318.339 7.36933e-12 -7.07629e-13)
(318.337 1.22883e-11 -9.39192e-13)
(318.335 1.78642e-11 -1.90114e-12)
(318.333 1.88142e-11 -1.64196e-12)
(318.33 2.05252e-11 -1.38908e-12)
(318.33 1.98678e-11 -9.46534e-13)
(318.331 1.62451e-11 -7.31053e-13)
(318.328 1.03017e-11 -1.03484e-12)
(318.325 3.66092e-12 -2.58942e-13)
(318.324 -3.46249e-12 -2.03253e-14)
(318.323 -1.26604e-12 -2.94178e-13)
(318.321 -4.08925e-12 -3.34254e-14)
(318.32 5.96103e-12 -1.9858e-13)
(318.321 2.08832e-11 -8.37537e-13)
(318.324 2.64127e-11 -5.05518e-13)
(318.337 3.99692e-11 -2.14648e-12)
(318.364 4.71624e-11 -2.3294e-12)
(318.412 3.37554e-11 -2.55986e-12)
(318.496 2.80094e-12 -4.22402e-13)
(318.609 1.91623e-12 5.24482e-13)
(318.709 -1.86252e-11 -4.19432e-13)
(318.771 -2.67572e-11 1.52193e-12)
(318.672 -1.52883e-12 7.20849e-13)
(318.158 -1.01259e-10 4.15257e-12)
(318.442 -2.20135e-10 7.39966e-12)
(318.664 -2.2824e-10 1.18032e-11)
(318.394 -2.20966e-10 1.1457e-11)
(318.296 -2.13618e-10 1.12585e-11)
(318.249 -2.24055e-10 1.19127e-11)
(318.203 -2.58804e-10 1.40977e-11)
(318.176 -3.20069e-10 1.71134e-11)
(318.171 -3.79845e-10 2.01395e-11)
(318.181 -4.28872e-10 2.1541e-11)
(318.245 -4.6753e-10 2.39823e-11)
(318.383 -5.04022e-10 2.62003e-11)
(318.48 -4.9214e-10 2.50744e-11)
(318.49 -4.50344e-10 2.23346e-11)
(318.485 -3.90242e-10 1.9143e-11)
(318.455 -2.9693e-10 1.52356e-11)
(318.397 -1.98789e-10 9.40598e-12)
(318.318 -1.14669e-10 4.63194e-12)
(318.233 -5.70055e-11 2.1531e-12)
(318.176 -2.17611e-11 1.5254e-12)
(318.184 -3.19753e-11 1.25539e-12)
(318.216 -5.5608e-11 6.86423e-13)
(318.261 -9.81633e-11 -1.6889e-13)
(318.326 -1.40886e-10 -1.51767e-12)
(318.406 -1.64826e-10 -2.9818e-12)
(318.46 -1.46697e-10 -3.30069e-12)
(318.47 -1.01606e-10 -2.47128e-12)
(318.463 -5.73092e-11 -1.77255e-12)
(318.437 1.9508e-11 -1.28608e-12)
(318.378 1.23672e-10 -4.87665e-12)
(318.299 2.32077e-10 -7.57785e-12)
(318.242 3.16352e-10 -9.80922e-12)
(318.22 3.65059e-10 -1.12609e-11)
(318.215 3.97247e-10 -1.26104e-11)
(318.231 4.37094e-10 -1.43711e-11)
(318.274 4.64487e-10 -1.61173e-11)
(318.344 4.82027e-10 -1.84034e-11)
(318.408 5.06933e-10 -2.14015e-11)
(318.434 5.4767e-10 -2.35794e-11)
(318.443 5.84782e-10 -2.6122e-11)
(318.439 6.48663e-10 -2.97341e-11)
(318.412 7.33365e-10 -3.41797e-11)
(318.361 8.49305e-10 -3.95392e-11)
(318.297 9.90803e-10 -4.58144e-11)
(318.255 1.11884e-09 -5.29215e-11)
(318.25 1.18471e-09 -5.68087e-11)
(318.254 1.24312e-09 -6.2698e-11)
(318.273 1.3092e-09 -7.03959e-11)
(318.311 1.34845e-09 -7.67833e-11)
(318.365 1.34693e-09 -8.12169e-11)
(318.412 1.3148e-09 -8.23293e-11)
(318.432 1.26083e-09 -8.10257e-11)
(318.427 1.22147e-09 -8.0047e-11)
(318.407 1.16933e-09 -7.97985e-11)
(318.303 1.10236e-09 -7.72953e-11)
(317.695 1.03025e-09 -7.57011e-11)
(313.987 9.43645e-10 -6.67472e-11)
(292.624 8.18959e-10 -5.02801e-11)
(202.377 5.20412e-10 -2.53696e-11)
(46.3349 1.06505e-10 -2.90378e-12)
(1.14303 1.00846e-12 2.02406e-12)
(0.00207007 -5.65045e-12 2.40357e-12)
(2.01905e-07 -6.54284e-12 1.27288e-12)
(3.61599e-12 -6.46558e-12 1.55957e-12)
(-1.58938e-12 -6.17221e-12 1.44913e-12)
(-7.43479e-13 -7.11382e-12 2.20368e-12)
(-5.43817e-13 -6.93824e-12 3.42962e-12)
(-1.02639e-12 -7.08548e-12 3.29208e-12)
(-6.43223e-13 -7.40891e-12 3.21535e-12)
(-2.05359e-13 -7.70352e-12 3.271e-12)
(-6.49839e-13 -7.73846e-12 3.44989e-12)
(-4.41681e-13 -7.9063e-12 3.85499e-12)
(1.1836e-14 -8.20615e-12 3.94219e-12)
(-3.004e-13 -7.95626e-12 3.95172e-12)
(1.63793e-13 -7.69127e-12 3.65416e-12)
(5.97567e-13 -7.2264e-12 3.31521e-12)
(4.1704e-13 -7.23873e-12 3.76457e-12)
(1.15988e-12 -6.72887e-12 3.56866e-12)
(2.22793e-12 -6.67098e-12 4.48392e-12)
(2.81849e-12 -7.07252e-12 4.08152e-12)
(2.4187e-12 -7.60803e-12 3.68837e-12)
(1.15869e-12 -7.40229e-12 2.97218e-12)
(8.88911e-14 -7.76099e-12 2.36289e-12)
(1.58884e-12 -7.21829e-12 1.91988e-12)
(3.32792e-12 -6.60537e-12 1.21799e-12)
(2.87408e-12 -5.54417e-12 2.7359e-12)
(1.82842e-12 -4.54457e-12 3.13851e-12)
(1.30755e-12 -5.17762e-12 2.50886e-12)
(5.44837e-13 -4.91323e-12 1.76768e-12)
(9.68075e-13 -5.15673e-12 6.22009e-13)
(2.00815e-12 -4.33287e-12 1.96829e-13)
(1.43579e-12 -3.73008e-12 8.43831e-14)
(1.83605e-12 -2.62471e-12 -5.72635e-13)
(2.48822e-12 -1.89791e-12 -9.9061e-13)
(2.02851e-12 -2.19195e-12 -8.02625e-13)
(1.94103e-12 -2.06364e-12 -1.71316e-12)
(1.89482e-12 -1.65008e-12 -2.97679e-12)
(2.43927e-13 -1.55402e-12 -2.64531e-12)
(-6.07852e-14 -7.25303e-13 -2.27564e-12)
(7.02699e-13 -6.26281e-13 -2.00926e-12)
(6.25552e-13 -1.94691e-13 -2.28574e-12)
(1.3887e-12 2.69689e-13 -8.55328e-13)
(1.2247e-12 1.04969e-12 5.04744e-13)
(-2.9397e-13 1.69779e-12 1.81955e-12)
(-1.13073e-12 1.81416e-12 3.34176e-12)
(-1.15932e-12 1.74695e-12 3.05581e-12)
(-2.06009e-12 1.38567e-12 2.88542e-12)
(-4.67872e-12 1.40052e-12 2.94042e-12)
(-6.24431e-12 -7.42691e-13 3.76199e-12)
(-6.37369e-12 -4.80309e-12 3.3403e-12)
(-7.31423e-12 -5.94532e-12 3.1543e-12)
(-7.11565e-12 -5.57512e-12 4.20802e-12)
(-6.51386e-12 -5.66667e-12 4.19694e-12)
(-7.38884e-12 -7.09571e-12 4.2193e-12)
(-5.36861e-12 -8.60293e-12 1.27763e-12)
(-2.97242e-12 -7.42179e-12 -1.65096e-12)
(-3.82832e-12 -6.8035e-12 -2.0983e-12)
(-2.99924e-12 -6.71175e-12 -6.3107e-13)
(-1.13072e-12 -5.33525e-12 3.3236e-13)
(-5.47478e-13 -5.5159e-12 -2.68001e-13)
(-1.07902e-12 -4.67997e-12 -1.81872e-12)
(4.06989e-13 -6.00871e-12 -3.13593e-12)
(1.33257e-12 -5.47606e-12 -5.0364e-12)
(7.02865e-13 -4.77639e-12 -5.33697e-12)
(8.98466e-13 -3.78172e-12 -3.97e-12)
(-1.23607e-12 -3.42875e-12 -2.06661e-12)
(-2.22824e-12 -4.43019e-12 -1.49521e-12)
(-1.48634e-12 -5.06844e-12 -3.03107e-12)
(-1.6153e-12 -4.29164e-12 -6.17702e-12)
(-3.55494e-12 -6.67944e-12 -7.43796e-12)
(-3.1933e-12 -8.46738e-12 -8.91131e-12)
(-1.15913e-12 -9.05368e-12 -7.96093e-12)
(1.25613e-12 -1.0434e-11 -6.2715e-12)
(2.35498e-12 -9.7472e-12 -2.90426e-12)
(3.00887e-12 -8.18563e-12 -1.66752e-12)
(4.64407e-12 -6.68079e-12 -1.95194e-13)
(2.55931e-12 -4.37639e-12 1.24588e-12)
(-6.76344e-13 -2.93943e-12 3.50102e-12)
(-1.02351e-12 -4.04292e-12 6.36395e-12)
(2.5392e-13 -4.98069e-12 4.7135e-12)
(2.29783e-12 -5.90506e-12 4.25316e-12)
(3.04492e-12 -4.92137e-12 4.44897e-12)
(2.31579e-12 -3.61319e-12 3.0064e-12)
(2.00242e-13 -2.17478e-12 2.53548e-12)
(-1.145e-12 -2.61087e-12 1.80628e-12)
(-1.51804e-12 -2.61712e-12 1.42243e-12)
(-2.48043e-12 -2.59762e-12 2.00352e-12)
(-1.26938e-12 -3.06956e-12 3.20356e-12)
(1.26477e-13 -3.94266e-12 4.47023e-12)
(-3.32989e-13 -4.74933e-12 6.23915e-12)
(1.1975e-12 -5.01302e-12 6.73218e-12)
(1.21791e-12 -4.20677e-12 2.56481e-12)
(-8.30672e-13 -4.12227e-12 -1.26222e-12)
(-1.10517e-12 -4.61885e-12 -1.11681e-12)
(-1.1637e-12 -3.92751e-12 -6.77003e-13)
(-6.83638e-13 -3.3868e-12 2.42636e-14)
(4.86778e-14 -2.39817e-12 -2.49348e-12)
(-2.19447e-13 -1.77242e-12 -8.51041e-13)
(-2.27697e-12 -2.05539e-12 1.53979e-12)
(-2.01671e-12 -2.67953e-12 3.79616e-12)
(-1.00332e-12 -3.52095e-12 2.84703e-12)
(2.76916e-13 -3.49014e-12 3.60121e-12)
(4.83695e-13 -2.74871e-12 2.84283e-12)
(-3.11692e-13 -2.60521e-12 2.99265e-12)
(3.39764e-13 -1.86076e-12 4.19604e-12)
(-1.25885e-13 -2.14507e-12 2.35151e-12)
(-1.9191e-12 -2.35778e-12 1.58329e-12)
(-9.15454e-13 -3.08764e-12 9.13145e-13)
(9.10256e-13 -2.457e-12 2.90473e-13)
(2.91313e-12 -2.12054e-12 8.1845e-13)
(3.46314e-12 -1.25595e-12 1.26493e-12)
(2.26631e-12 9.19934e-13 -1.23848e-12)
(2.40708e-12 1.94995e-13 -6.52805e-12)
(3.12191e-12 8.90368e-13 -1.05619e-11)
(3.44598e-13 8.38407e-13 -1.1848e-11)
(-1.18274e-12 -5.60531e-13 -1.19361e-11)
(-5.44857e-13 -7.13945e-13 -9.73713e-12)
(1.59923e-13 -8.03383e-13 -6.5425e-12)
(1.10845e-12 -2.29064e-12 -4.71972e-12)
(2.2907e-12 -2.543e-12 -3.98652e-12)
(6.48953e-13 -2.51485e-12 -3.03926e-12)
(-1.40392e-13 -3.5261e-12 -3.05615e-12)
(2.84898e-13 -3.6171e-12 -3.41096e-12)
(1.75145e-12 -4.9209e-12 -4.99158e-12)
(3.64041e-12 -4.1265e-12 -6.44195e-12)
(3.46055e-12 -2.61183e-12 -5.35822e-12)
(1.67985e-12 -1.55878e-12 -5.83091e-12)
(6.68214e-13 -3.925e-13 -5.53548e-12)
(1.18751e-12 -5.81815e-13 -4.13e-12)
(2.93314e-12 -1.66343e-12 -3.51883e-12)
(3.75067e-12 -1.26862e-12 -9.7463e-13)
(2.866e-12 3.80556e-13 -7.97172e-13)
(-1.05204e-13 -1.54341e-13 2.8908e-13)
(-1.0369e-12 -3.32457e-12 1.12876e-12)
(7.07625e-13 -4.50447e-12 1.37966e-12)
(1.44672e-12 -3.45671e-12 5.2758e-13)
(3.27997e-12 -2.49781e-12 1.04042e-12)
(3.61459e-12 -1.9919e-12 4.49987e-13)
(2.26407e-12 -1.87692e-12 5.1615e-13)
(1.36715e-12 -8.53167e-13 2.94645e-13)
(1.64589e-12 -1.35404e-12 -5.20573e-13)
(4.41768e-12 -1.59412e-12 -1.01428e-12)
(7.02687e-12 -2.19708e-12 -2.23743e-12)
(8.74625e-12 5.24937e-13 -2.32905e-12)
(7.30057e-12 2.91119e-12 -1.65344e-12)
(3.71243e-12 2.38443e-12 -9.40911e-13)
(1.44335e-12 -1.1579e-13 6.40873e-14)
(1.59656e-12 -2.44024e-12 1.8162e-12)
(4.71809e-13 -3.98207e-12 7.0855e-13)
(9.27194e-13 -5.59245e-12 -7.43289e-13)
(2.22815e-13 -5.35568e-12 -9.941e-13)
(-1.3315e-12 -5.68374e-12 -3.683e-13)
(-1.16448e-12 -5.42033e-12 1.09143e-12)
(-2.47886e-13 -6.58835e-12 1.70496e-12)
(-9.73333e-13 -6.63668e-12 2.54294e-12)
(-1.20023e-12 -6.57829e-12 3.33857e-12)
(9.88457e-13 -6.85011e-12 2.42342e-12)
(1.66019e-12 -7.51111e-12 1.90104e-12)
(6.42119e-13 -7.65865e-12 1.67076e-12)
(5.58542e-13 -7.76099e-12 -6.3298e-13)
(2.52951e-12 -6.9908e-12 -2.29621e-12)
(4.6755e-12 -5.15242e-12 -1.41466e-12)
(5.83984e-12 -3.13949e-12 2.06821e-12)
(4.98386e-12 -8.37101e-13 5.09599e-12)
(1.23619e-12 -7.9068e-13 6.68486e-12)
(-7.14578e-14 -1.75281e-12 7.93751e-12)
(2.35691e-13 -2.89191e-12 5.86946e-12)
(-1.72936e-12 -3.20838e-12 3.55649e-12)
(-1.1148e-12 -4.65196e-12 2.02364e-12)
(1.48227e-13 -3.8547e-12 1.0905e-12)
(-5.44223e-13 -2.62294e-12 4.00004e-13)
(4.98227e-15 -3.11078e-12 6.78796e-14)
(-4.47608e-13 -1.73717e-12 6.44261e-14)
(-3.06215e-12 -1.64043e-12 2.36622e-13)
(-5.31887e-12 -2.99372e-12 4.23488e-13)
(-6.19071e-12 -4.83335e-12 5.2281e-13)
(-5.85901e-12 -5.63715e-12 2.83018e-12)
(-4.83921e-12 -6.08778e-12 3.47536e-12)
(-2.89016e-12 -8.45633e-12 4.33695e-12)
(7.85019e-13 -9.04745e-12 3.67393e-12)
(3.47925e-12 -7.08199e-12 1.38674e-12)
(4.77553e-12 -4.0666e-12 4.49978e-13)
(4.20596e-12 -2.78037e-12 3.31449e-13)
(3.16036e-12 -3.37403e-12 3.14426e-13)
(1.37831e-12 -3.76581e-12 1.1074e-12)
(1.15822e-12 -4.6172e-12 2.67494e-12)
(2.82224e-12 -3.70637e-12 4.66942e-12)
(2.94516e-12 -9.90199e-13 3.99971e-12)
(4.66544e-12 3.92277e-13 1.08396e-13)
(4.60231e-12 2.5071e-12 -1.29812e-12)
(1.72448e-12 3.10093e-12 -8.6153e-13)
(-5.92901e-13 1.84857e-12 3.3522e-13)
(-4.5515e-13 -8.72323e-13 6.85628e-13)
(-1.03599e-12 -1.23876e-12 3.10586e-12)
(-4.40257e-12 -3.02856e-12 5.72653e-12)
(-4.88284e-12 -4.91228e-12 9.92587e-12)
(-3.47245e-12 -5.42524e-12 1.22254e-11)
(-3.28617e-12 -5.71047e-12 1.02384e-11)
(-4.53915e-12 -7.3145e-12 7.57095e-12)
(-1.36482e-12 -8.32895e-12 5.69363e-12)
(1.2587e-12 -8.9566e-12 1.55998e-12)
(1.78595e-12 -8.90498e-12 -3.59106e-12)
(3.6706e-12 -7.96255e-12 -6.50231e-12)
(4.73947e-12 -6.63379e-12 -4.45481e-12)
(4.13056e-12 -4.48737e-12 -2.64727e-12)
(5.285e-12 -4.09252e-12 1.36298e-12)
(5.26623e-12 -6.79755e-13 2.10351e-12)
(1.78324e-12 2.02815e-12 2.48936e-12)
(-1.27986e-12 3.75882e-12 1.9832e-12)
(-5.54773e-12 3.19308e-12 1.7516e-12)
(-5.71025e-12 1.03336e-12 9.6602e-13)
(-6.64518e-12 1.02877e-12 -2.42484e-13)
(-6.93957e-12 -4.40164e-13 -1.03225e-12)
(-6.40894e-12 7.47506e-15 -1.88375e-12)
(-7.91561e-12 -2.92156e-13 3.50098e-13)
(-7.16231e-12 -2.44521e-12 1.93077e-12)
(-5.36979e-12 -2.54908e-12 1.75868e-12)
(-6.22896e-12 -1.98618e-12 1.36898e-12)
(-6.24325e-12 -1.48186e-12 8.38186e-13)
(-6.68397e-12 -1.60013e-12 1.07442e-12)
(-6.29579e-12 -3.46338e-12 1.63124e-12)
(-4.63707e-12 -2.77947e-12 2.10591e-12)
(-4.09167e-12 -2.89802e-12 5.81576e-12)
(-3.02281e-12 -2.04764e-12 7.89597e-12)
(-1.68914e-12 -2.05247e-12 8.02734e-12)
(5.33202e-13 -2.4201e-12 8.26563e-12)
(9.1074e-13 -3.43693e-12 8.10346e-12)
(-9.24599e-13 -3.89247e-12 6.7869e-12)
(1.9718e-13 -6.82809e-12 5.38852e-12)
(3.66058e-12 -7.63214e-12 3.77697e-12)
(4.30316e-12 -6.10084e-12 1.6673e-12)
(2.48067e-12 -4.20054e-12 7.94614e-13)
(2.40975e-13 -3.70311e-12 8.73907e-13)
(-4.53771e-13 -3.45793e-12 -3.50064e-14)
(-1.09065e-13 -4.2614e-12 -4.27293e-13)
(1.59195e-12 -4.68606e-12 -1.02732e-12)
(1.01613e-12 -4.30807e-12 -1.65196e-12)
(2.77616e-13 -5.13094e-12 -1.83966e-12)
(4.6258e-13 -4.49577e-12 -7.01318e-13)
(1.01158e-13 -4.24025e-12 1.75568e-12)
(-9.07899e-15 -4.22584e-12 4.2278e-12)
(3.34523e-13 -5.04982e-12 2.69613e-12)
(-4.7483e-13 -4.87509e-12 -8.53536e-13)
(-1.97197e-13 -5.872e-12 -3.43506e-12)
(2.80856e-12 -4.63345e-12 -4.24381e-12)
(2.44926e-12 -2.88876e-12 -4.32947e-12)
(1.43574e-12 -2.63914e-12 -6.25546e-12)
(4.57978e-13 -1.16306e-12 -6.74005e-12)
(-5.88256e-14 -1.26565e-12 -7.09684e-12)
(5.34958e-13 -8.11927e-13 -7.75227e-12)
(-3.46724e-13 -3.07171e-13 -4.86281e-12)
(-8.44324e-13 -1.60032e-12 -1.8493e-12)
(1.17386e-12 -1.64323e-12 -4.22812e-13)
(3.8596e-13 -1.849e-12 -3.4632e-12)
(1.2857e-13 -3.19265e-12 -6.15865e-12)
(1.228e-12 -4.54538e-12 -7.86817e-12)
(1.5037e-12 -4.64114e-12 -3.82767e-12)
(1.94652e-12 -3.61059e-12 -5.50333e-14)
(5.10725e-13 -1.44883e-12 -4.70221e-13)
(-2.06531e-12 3.55131e-13 -8.55607e-13)
(-2.93131e-12 -7.29866e-13 -1.43046e-12)
(-3.97623e-12 -1.08197e-12 -2.90511e-12)
(-3.67883e-12 -3.62159e-12 -5.35795e-12)
(-2.06829e-12 -4.44294e-12 -7.65241e-12)
(8.58432e-14 -4.27694e-12 -7.55274e-12)
(3.16346e-12 -4.48041e-12 -5.77059e-12)
(4.14163e-12 -2.57434e-12 -4.26331e-12)
(3.00117e-12 -4.29538e-13 -4.16507e-12)
(2.67211e-12 -7.81724e-13 -5.38148e-12)
(1.11305e-12 -9.82848e-13 -7.06615e-12)
(-5.11593e-14 -1.63663e-12 -6.09758e-12)
(4.06355e-13 -9.13429e-13 -4.17245e-12)
(-8.62675e-13 -4.65909e-13 -2.51854e-12)
(-2.20281e-12 -8.61458e-13 -3.04815e-12)
(-2.00374e-12 -1.48253e-12 -1.09893e-14)
(-2.48537e-12 -7.33251e-13 1.74163e-12)
(-2.49649e-12 -2.7395e-12 2.6166e-12)
(-1.52673e-12 -5.24214e-12 2.76757e-12)
(1.02301e-12 -5.03485e-12 3.17782e-12)
(4.462e-12 -4.08459e-12 2.92063e-12)
(4.15518e-12 -1.87245e-12 2.13545e-12)
(1.31327e-12 -1.03007e-12 1.83289e-12)
(5.85713e-13 -1.35574e-12 1.56098e-12)
(6.57999e-13 -1.19891e-12 1.70496e-12)
(1.19228e-12 -1.25639e-12 1.51609e-12)
(1.12653e-12 -5.99983e-13 1.13771e-12)
(-1.58389e-12 -5.31766e-13 8.8554e-13)
(-2.02306e-12 -1.87115e-12 5.87034e-13)
(-1.38511e-12 -2.27756e-12 1.90373e-13)
(-1.71733e-12 -3.80415e-12 1.96537e-13)
(-7.8895e-13 -5.03247e-12 1.8067e-14)
(1.38287e-14 -5.1151e-12 -1.46032e-12)
(-8.26116e-13 -3.68206e-12 -3.09543e-12)
(-8.65454e-13 -2.41312e-12 -1.97146e-12)
(8.8531e-13 -1.0808e-12 -1.89741e-12)
(2.53022e-12 -1.67515e-12 -2.32043e-12)
(3.63401e-12 -1.56926e-12 -1.27531e-12)
(2.67524e-12 -6.8219e-13 8.47635e-14)
(3.79972e-12 -1.3867e-12 3.18854e-12)
(4.2126e-12 3.23068e-13 8.19294e-12)
(3.79041e-12 -1.939e-13 1.25864e-11)
(4.68489e-12 -1.0813e-12 1.17558e-11)
(3.5747e-12 -8.07861e-13 6.93367e-12)
(7.88837e-13 -1.48548e-12 2.16778e-12)
(8.8883e-13 -2.73324e-12 2.36096e-13)
(1.08536e-12 -1.70727e-12 -4.39506e-13)
(1.00808e-12 -2.02987e-12 -2.04169e-12)
(1.95719e-12 -3.58734e-12 -1.21437e-12)
(1.43538e-12 -3.5458e-12 -3.18192e-14)
(1.11103e-12 -3.96663e-12 5.00554e-13)
(2.3756e-12 -4.74278e-12 8.85794e-13)
(1.74195e-12 -4.81013e-12 -2.90577e-13)
(3.50411e-13 -5.1442e-12 -1.19918e-12)
(9.43747e-13 -4.56576e-12 -1.54566e-12)
(5.73823e-13 -3.49504e-12 -9.39925e-13)
(1.38184e-12 -4.35239e-12 -3.09681e-13)
(1.10881e-12 -4.86396e-12 -9.22928e-14)
(-1.45925e-12 -5.80719e-12 2.21779e-13)
(-9.58932e-13 -7.82437e-12 4.49602e-13)
(1.51025e-12 -9.34151e-12 4.19946e-13)
(2.07209e-12 -8.99268e-12 4.52961e-13)
(1.06972e-12 -9.14437e-12 5.97999e-13)
(1.30565e-12 -9.21686e-12 7.58938e-13)
(2.16769e-12 -8.64287e-12 5.91439e-13)
(2.14658e-12 -7.4784e-12 2.70518e-14)
(-3.49026e-13 -6.8479e-12 -4.67846e-13)
(-7.70602e-13 -7.34721e-12 -9.23692e-13)
(-1.72591e-13 -6.24974e-12 -8.89931e-13)
(-2.33895e-12 -5.07998e-12 -5.85074e-13)
(-2.8828e-12 -4.7173e-12 -2.89642e-13)
(-2.0935e-12 -5.33879e-12 -1.46277e-12)
(-2.55946e-12 -5.90706e-12 -5.06757e-12)
(-1.02793e-12 -5.25293e-12 -7.93534e-12)
(-2.25905e-12 -3.77652e-12 -7.00068e-12)
(-3.31159e-12 -3.76107e-12 -5.64703e-12)
(-3.00074e-12 -2.10294e-12 -5.11998e-12)
(-5.7127e-12 -1.72796e-12 -5.09931e-12)
(-6.75483e-12 -2.41148e-12 -5.96271e-12)
(-5.51908e-12 -3.20778e-12 -7.17086e-12)
(-5.58483e-12 -4.78029e-12 -6.77558e-12)
(-5.80293e-12 -5.13195e-12 -7.89661e-12)
(-4.9456e-12 -5.80069e-12 -6.17861e-12)
(-2.41382e-12 -3.4771e-12 -5.06658e-12)
(-2.01596e-12 -4.74207e-13 -4.64035e-12)
(-3.01506e-12 5.07946e-14 -4.59396e-12)
(-2.70774e-12 -1.39613e-12 -4.97034e-12)
(-9.29414e-14 -1.67583e-12 -5.65013e-12)
(3.64289e-13 -1.43317e-13 -6.20008e-12)
(-5.1642e-13 -5.17389e-13 -7.16794e-12)
(-4.57706e-13 -4.81925e-13 -9.48832e-12)
(1.1631e-12 -6.64946e-13 -9.02131e-12)
(3.34108e-12 -7.69921e-13 -9.32456e-12)
(2.91611e-12 1.86209e-13 -1.04927e-11)
(1.83997e-12 -4.60865e-13 -1.24133e-11)
(2.41172e-12 -9.50093e-13 -1.12547e-11)
(2.94516e-12 -9.3893e-13 -1.15731e-11)
(3.76045e-12 -1.35588e-12 -9.45041e-12)
(3.09609e-12 -9.3966e-13 -7.75284e-12)
(1.68811e-12 -1.8256e-12 -7.71939e-12)
(4.85246e-13 -2.40266e-12 -7.53991e-12)
(-2.44824e-12 -3.14315e-12 -6.55185e-12)
(-3.34479e-12 -5.30136e-12 -5.33971e-12)
(-3.82721e-12 -5.04049e-12 -2.76837e-12)
(-5.35109e-12 -5.12761e-12 -8.09371e-13)
(-3.92542e-12 -4.95743e-12 9.40769e-13)
(-1.84071e-12 -4.56325e-12 2.74742e-12)
(-7.79603e-15 -5.05782e-12 3.79305e-12)
(7.0687e-13 -5.04505e-12 4.2974e-12)
(1.59045e-12 -5.44611e-12 2.7945e-12)
(2.16804e-12 -4.29834e-12 1.18346e-12)
(1.94633e-13 -3.24744e-12 1.17187e-12)
(-1.98083e-12 -3.19768e-12 1.95368e-12)
(-3.13749e-12 -1.98827e-12 2.94294e-12)
(-3.48597e-12 -1.89128e-12 2.08135e-12)
(-3.53131e-12 -6.59004e-13 1.71181e-12)
(-4.22761e-12 -8.56935e-13 1.38466e-12)
(-3.43137e-12 -1.23587e-12 3.98499e-13)
(-1.12156e-12 -2.68082e-12 -4.65491e-13)
(1.49106e-12 -2.79096e-12 -2.64662e-12)
(1.07966e-12 -1.9948e-12 -6.19408e-12)
(-2.46455e-13 -1.75256e-12 -7.01491e-12)
(-5.35205e-13 -2.90584e-12 -5.55659e-12)
(4.90363e-13 -3.81645e-12 -3.99786e-12)
(4.93814e-13 -3.92178e-12 -4.39686e-12)
(-1.33344e-13 -4.53369e-12 -3.49517e-12)
(4.43847e-14 -4.97749e-12 -2.45158e-12)
(1.28558e-12 -3.95613e-12 -7.71913e-13)
(3.28409e-12 -2.89711e-12 1.98288e-12)
(3.34142e-12 -2.20906e-12 4.47679e-12)
(2.18557e-12 -1.65951e-12 2.90339e-12)
(1.60271e-12 -3.37206e-12 2.09609e-12)
(4.59655e-13 -4.58141e-12 1.24974e-12)
(6.40135e-13 -5.55473e-12 1.18821e-12)
(2.63873e-12 -5.78225e-12 1.87674e-12)
(4.14393e-12 -7.23829e-12 3.29906e-12)
(7.50561e-12 -6.88561e-12 3.6306e-12)
(9.20907e-12 -6.31004e-12 4.41399e-12)
(8.86438e-12 -6.70961e-12 4.85286e-12)
(8.26532e-12 -5.36162e-12 5.86578e-12)
(5.72999e-12 -4.25095e-12 8.5507e-12)
(3.11965e-12 -3.8006e-12 1.32991e-11)
(2.73174e-12 -3.70257e-12 1.73363e-11)
(1.82828e-12 -3.65365e-12 1.40023e-11)
(7.13092e-13 -4.02978e-12 9.88928e-12)
(-1.38965e-12 -3.98734e-12 7.79692e-12)
(-4.49894e-12 -4.59808e-12 7.64952e-12)
(-4.39972e-12 -5.1727e-12 8.17559e-12)
(-3.63084e-12 -4.7965e-12 8.42756e-12)
(-5.62879e-12 -4.38095e-12 5.84351e-12)
(-5.94113e-12 -3.69081e-12 3.55709e-12)
(-5.13924e-12 -4.51035e-12 2.65723e-12)
(-5.82319e-12 -4.24719e-12 1.058e-12)
(-6.04539e-12 -4.47464e-12 -1.28617e-12)
(-6.44096e-12 -4.3229e-12 1.8887e-13)
(-6.24045e-12 -3.36803e-12 2.17133e-12)
(-3.08523e-12 -3.29128e-12 2.44531e-12)
(-8.13047e-13 -2.05141e-12 2.3781e-12)
(-2.41574e-13 -2.69604e-12 1.8748e-12)
(2.69628e-13 -2.90989e-12 2.36002e-12)
(7.70336e-13 -4.19973e-12 4.25188e-12)
(1.89098e-12 -3.68614e-12 4.49064e-12)
(3.48827e-12 -4.41025e-12 4.42658e-12)
(3.60902e-12 -4.89044e-12 4.17742e-12)
(2.60993e-12 -5.49379e-12 4.13099e-12)
(5.60801e-12 -5.31749e-12 3.99002e-12)
(6.75594e-12 -2.92e-12 3.4956e-12)
(4.17482e-12 -4.86729e-13 3.04959e-12)
(2.46489e-12 2.13892e-13 1.72961e-12)
(3.52886e-13 -2.34265e-12 5.96493e-13)
(-1.17379e-12 -4.09784e-12 -1.27795e-12)
(-1.12242e-12 -4.56439e-12 2.66296e-13)
(-2.01741e-12 -3.78045e-12 4.65573e-13)
(-4.68528e-12 -4.27289e-12 1.17783e-13)
(-6.10627e-12 -5.25946e-12 6.67199e-13)
(-5.85777e-12 -5.66388e-12 9.48649e-13)
(-5.69717e-12 -6.53868e-12 9.03634e-13)
(-4.57752e-12 -6.40785e-12 5.2931e-13)
(-4.00022e-12 -7.13979e-12 -1.34071e-12)
(-2.26581e-12 -6.46002e-12 -3.4872e-12)
(-2.58721e-13 -7.45868e-12 -4.54251e-12)
(2.30038e-13 -8.49283e-12 -6.03658e-12)
(4.99063e-13 -9.65196e-12 -5.01339e-12)
(3.59639e-12 -9.87081e-12 -4.62676e-12)
(4.68857e-12 -8.10096e-12 -4.88202e-12)
(3.72157e-12 -6.60749e-12 -4.8095e-12)
(4.92822e-12 -4.97694e-12 -4.62579e-12)
(5.38671e-12 -3.76732e-12 -3.81873e-12)
(3.74044e-12 -3.23489e-12 -1.73922e-12)
(3.45871e-12 -3.66927e-12 -1.2119e-12)
(5.05028e-12 -4.18656e-12 -1.62204e-12)
(6.6933e-12 -3.79092e-12 -3.13199e-12)
(5.68167e-12 -3.42705e-12 -5.07575e-12)
(2.31521e-12 -3.15836e-12 -5.84397e-12)
(1.09896e-12 -4.57953e-12 -8.85146e-12)
(1.14126e-12 -5.35921e-12 -1.12343e-11)
(1.61361e-12 -5.1616e-12 -9.71408e-12)
(2.66192e-12 -3.508e-12 -7.22048e-12)
(2.89238e-12 -1.72222e-12 -5.01649e-12)
(1.68556e-12 -1.60536e-12 -6.09005e-12)
(1.06125e-12 -1.13514e-12 -8.70745e-12)
(-1.50204e-12 -3.84322e-13 -1.01021e-11)
(-1.88967e-12 -1.76953e-12 -1.19929e-11)
(-4.55979e-13 -2.3298e-12 -1.31055e-11)
(-2.55906e-12 -3.08028e-12 -1.05832e-11)
(-3.39575e-12 -4.92697e-12 -7.40921e-12)
(-3.30535e-12 -5.16534e-12 -7.17701e-12)
(-2.98082e-12 -5.51207e-12 -7.37643e-12)
(-1.86053e-12 -4.24294e-12 -8.84585e-12)
(-1.84573e-12 -3.56163e-12 -9.33682e-12)
(-1.07033e-12 -3.50122e-12 -8.06624e-12)
(-8.96455e-13 -1.77466e-12 -7.22573e-12)
(-3.18036e-12 -2.45251e-13 -8.9686e-12)
(-4.45758e-12 9.74503e-13 -1.22196e-11)
(-3.13482e-12 1.09036e-12 -9.58365e-12)
(-1.59642e-12 1.13487e-12 -7.5107e-12)
(-1.84697e-12 1.58813e-12 -6.71585e-12)
(-2.07208e-12 5.67275e-13 -6.39134e-12)
(-1.81729e-12 -2.72985e-13 -4.46385e-13)
(-1.33141e-12 -1.20965e-12 2.92658e-12)
(-1.79604e-12 -1.45162e-12 3.0179e-12)
(-2.78566e-13 -2.68454e-12 3.41985e-12)
(1.06809e-12 -3.17246e-12 2.10759e-12)
(6.58132e-13 -5.17765e-12 1.18602e-12)
(2.64713e-12 -5.80158e-12 4.77322e-13)
(2.89363e-12 -5.40364e-12 3.66608e-13)
(1.74458e-12 -4.86092e-12 2.77381e-13)
(5.2284e-13 -4.60039e-12 3.54662e-13)
(-7.69012e-13 -5.1018e-12 1.33906e-12)
(6.7559e-13 -6.4655e-12 -1.05715e-13)
(2.56548e-12 -5.59051e-12 -1.77871e-12)
(1.99803e-12 -5.80564e-12 -3.79246e-12)
(3.06404e-12 -6.9471e-12 -3.8815e-12)
(5.03072e-12 -8.41572e-12 -4.90926e-12)
(6.22115e-12 -8.34331e-12 -6.08735e-12)
(7.33793e-12 -6.05763e-12 -6.50109e-12)
(6.89521e-12 -3.41843e-12 -6.80749e-12)
(5.92133e-12 -2.91085e-12 -1.00116e-11)
(4.16528e-12 -2.65634e-12 -1.21344e-11)
(1.54106e-12 -3.2822e-12 -9.89055e-12)
(8.62513e-13 -4.91129e-12 -6.99384e-12)
(1.88089e-12 -5.90019e-12 -5.99518e-12)
(1.64859e-12 -5.29897e-12 -5.70232e-12)
(1.31419e-12 -5.10734e-12 -5.042e-12)
(1.60462e-12 -4.43674e-12 -4.66056e-12)
(7.02047e-13 -4.72878e-12 -4.69394e-12)
(1.79112e-12 -4.48974e-12 -5.19548e-12)
(2.59972e-12 -3.55109e-12 -5.99256e-12)
(2.61661e-12 -2.85794e-12 -4.17176e-12)
(3.54556e-12 -2.79545e-12 -1.29057e-12)
(4.8641e-12 -4.24653e-12 6.47417e-13)
(6.77605e-12 -3.21928e-12 1.37087e-12)
(6.65051e-12 -9.86789e-13 2.09031e-12)
(3.94362e-12 4.84835e-13 3.17995e-12)
(1.65257e-13 1.63189e-12 4.20488e-12)
(-2.19921e-12 -6.11009e-13 5.86022e-12)
(-3.54507e-12 -3.18875e-12 4.47553e-12)
(-5.69616e-12 -4.97509e-12 4.38356e-12)
(-4.38557e-12 -6.92406e-12 3.73204e-12)
(-2.17385e-12 -8.05501e-12 3.23793e-12)
(-2.58877e-12 -7.74009e-12 2.98291e-12)
(-3.10496e-12 -6.85352e-12 3.32399e-12)
(-4.48823e-12 -4.68567e-12 2.50468e-12)
(-4.47351e-12 -2.26062e-12 7.22853e-13)
(-5.32564e-12 -1.15129e-12 -1.63705e-12)
(-8.20408e-12 -1.50474e-12 -8.7128e-13)
(-1.02361e-11 -2.6951e-12 -7.07172e-13)
(-1.04233e-11 -4.47799e-12 -1.23115e-12)
(-9.25926e-12 -5.58491e-12 -2.02062e-12)
(-8.31315e-12 -4.69161e-12 -2.98258e-12)
(-7.24132e-12 -5.68988e-12 -3.37458e-12)
(-5.24006e-12 -4.45166e-12 -3.99946e-12)
(-2.11633e-12 -5.00423e-12 -4.38083e-12)
(2.4613e-13 -6.18544e-12 -6.56307e-12)
(-5.02065e-13 -7.65333e-12 -1.02149e-11)
(1.4723e-12 -6.7543e-12 -1.41924e-11)
(3.2866e-12 -5.49763e-12 -1.65688e-11)
(3.72487e-12 -5.18622e-12 -1.31824e-11)
(4.91694e-12 -6.05034e-12 -9.97934e-12)
(4.39214e-12 -3.44715e-12 -7.115e-12)
(3.27899e-12 -3.72799e-12 -2.00312e-12)
(4.08961e-12 -5.32345e-12 -1.49873e-13)
(5.38779e-12 -6.28489e-12 5.18379e-13)
(5.76172e-12 -7.30625e-12 -7.02774e-13)
(4.6655e-12 -6.92346e-12 -2.41938e-12)
(4.23218e-12 -6.53928e-12 -3.95786e-12)
(4.54318e-12 -5.77982e-12 -3.64588e-12)
(3.28902e-12 -4.32275e-12 -3.61835e-12)
(1.64332e-12 -4.1443e-12 -4.70429e-12)
(2.46811e-12 -3.716e-12 -7.33198e-12)
(1.64861e-12 -2.44045e-12 -7.02575e-12)
(-9.26933e-13 -1.89435e-12 -6.83765e-12)
(-2.22713e-12 -1.35241e-12 -3.83897e-12)
(-3.89919e-12 -6.64904e-13 -2.9456e-12)
(-6.01134e-12 -1.4328e-12 -2.37946e-12)
(-8.75187e-12 -2.14486e-12 -1.31466e-12)
(-9.09119e-12 -2.45408e-12 3.58598e-13)
(-6.66933e-12 -1.97892e-12 9.38023e-13)
(347.059 3.83598e-12 -5.36678e-12)
(347.059 3.73371e-12 -5.39857e-12)
(347.059 4.14991e-12 -5.74684e-12)
(347.055 5.08021e-12 -4.44161e-12)
(346.938 -1.45347e-12 -1.82069e-11)
(344.129 -2.57062e-10 -6.20144e-10)
(327.039 3.15532e-09 7.34057e-09)
(318.726 -2.60436e-09 -5.98463e-09)
(318.569 -9.57183e-10 -2.23759e-09)
(318.605 -2.27658e-10 -5.58672e-10)
(318.682 -1.0322e-11 -5.03752e-11)
(318.741 1.65383e-10 3.61971e-10)
(318.732 2.05765e-10 4.69542e-10)
(318.685 2.81419e-10 6.76418e-10)
(318.651 2.65113e-10 6.41545e-10)
(318.638 1.06234e-10 2.33968e-10)
(318.622 5.75492e-11 1.06607e-10)
(318.591 1.85827e-11 6.8247e-12)
(318.553 -1.55125e-11 -7.87418e-11)
(318.512 -3.11131e-11 -1.07123e-10)
(318.481 -2.91916e-11 -1.01291e-10)
(318.458 -2.11042e-11 -7.4831e-11)
(318.425 -7.29692e-12 -3.72786e-11)
(318.39 4.11359e-12 -6.64928e-12)
(318.369 8.32621e-12 9.63678e-12)
(318.358 9.7667e-12 1.48819e-11)
(318.345 8.91247e-12 1.57551e-11)
(318.33 6.02444e-12 1.05826e-11)
(318.317 1.12995e-12 2.31926e-12)
(318.304 -1.05867e-12 -3.15059e-12)
(318.301 -1.58102e-12 -5.65349e-12)
(318.297 -1.04846e-12 -7.62247e-12)
(318.288 -1.20786e-12 -8.2888e-12)
(318.28 -3.93455e-12 -6.68068e-12)
(318.275 -3.23894e-12 -5.74659e-12)
(318.269 -3.92122e-12 -4.32684e-12)
(318.262 -2.41325e-12 -2.82766e-12)
(318.258 -1.85975e-12 -1.9215e-12)
(318.262 -3.02412e-12 -1.38463e-12)
(318.268 -3.03291e-12 -1.44055e-12)
(318.276 -3.11071e-12 -1.51607e-12)
(318.288 -3.16226e-12 -1.03164e-12)
(318.294 -2.41238e-12 -1.6817e-12)
(318.297 -2.21045e-12 -1.54357e-12)
(318.301 -1.63241e-12 -1.07592e-12)
(318.305 -1.91603e-12 -1.09684e-12)
(318.308 -2.64993e-12 -8.09108e-13)
(318.311 -2.73942e-12 -8.93033e-13)
(318.315 -1.57452e-12 -4.26568e-13)
(318.319 -4.37191e-13 -9.95017e-13)
(318.326 -2.13892e-13 -1.05533e-12)
(318.335 -3.69001e-13 -6.48342e-13)
(318.338 -1.91322e-12 -1.16832e-13)
(318.338 -2.89488e-12 -2.63139e-13)
(318.339 -2.47428e-12 -3.82982e-13)
(318.339 3.38601e-12 -3.77888e-13)
(318.337 8.58492e-12 -9.94017e-13)
(318.335 1.50175e-11 -1.74002e-12)
(318.333 1.98548e-11 -1.59279e-12)
(318.33 2.17331e-11 -2.00387e-12)
(318.33 2.16801e-11 -1.00642e-12)
(318.331 1.8593e-11 -7.91434e-13)
(318.328 1.18035e-11 -9.41758e-13)
(318.325 6.65865e-12 -7.93335e-13)
(318.324 -7.04712e-13 -5.5605e-13)