/*--------------------------------*- C++ -*----------------------------------*\
| =========                 |                                                 |
| \\      /  F ield         | OpenFOAM: The Open Source CFD Toolbox           |
|  \\    /   O peration     | Version:  2406                                  |
|   \\  /    A nd           | Website:  www.openfoam.com                      |
|    \\/     M anipulation  |                                                 |
\*---------------------------------------------------------------------------*/
FoamFile
{
    version     2.0;
    format      ascii;
    arch        "LSB;label=32;scalar=64";
    class       volScalarField;
    location    "0.1";
    object      rho;
}
// * * * * * * * * * * * * * * * * * * * * * * * * * * * * * * * * * * * * * //

dimensions      [1 -3 0 0 0 0 0];

internalField   nonuniform List<scalar> 
13948
(
1.15636
1.2086
1.21824
1.21977
1.22015
1.22023
1.22033
1.22056
1.22097
1.22143
1.22166
1.22166
1.22151
1.22131
1.22115
1.22105
1.22099
1.22089
1.22074
1.22057
1.22046
1.22042
1.22046
1.22061
1.22087
1.22122
1.22151
1.22164
1.22165
1.22162
1.22154
1.2214
1.2212
1.22096
1.22071
1.22045
1.22025
1.22016
1.22014
1.22019
1.22035
1.22065
1.22099
1.22121
1.22126
1.22127
1.22127
1.22129
1.22133
1.22142
1.22157
1.22173
1.22181
1.22182
1.2218
1.22171
1.22156
1.22139
1.22128
1.22125
1.22125
1.22125
1.22125
1.22125
1.22125
1.22125
1.22125
1.22125
1.22125
1.22125
1.22125
1.22125
1.22125
1.22125
1.22125
1.22125
1.22125
1.22125
1.22125
1.22125
1.22125
1.22125
1.22125
1.22125
1.22125
1.22125
1.22125
1.22125
1.22125
1.22125
1.22125
1.22125
1.22125
1.22125
1.22125
1.22125
1.22125
1.22125
1.22125
1.17872
1.18877
1.21069
1.21826
1.21964
1.22006
1.22023
1.22036
1.22059
1.22099
1.22141
1.22163
1.22163
1.22149
1.22129
1.22113
1.22104
1.22098
1.22088
1.22074
1.22058
1.22047
1.22044
1.22048
1.22063
1.22089
1.22122
1.22151
1.22162
1.22163
1.2216
1.22152
1.22138
1.22118
1.22095
1.2207
1.22045
1.22026
1.22017
1.22015
1.2202
1.22036
1.22066
1.221
1.22121
1.22126
1.22127
1.22128
1.22129
1.22134
1.22143
1.22158
1.22173
1.2218
1.22182
1.22179
1.22171
1.22156
1.22139
1.22128
1.22125
1.22125
1.22125
1.22125
1.22125
1.22125
1.22125
1.22125
1.22125
1.22125
1.22125
1.22125
1.22125
1.22125
1.22125
1.22125
1.22125
1.22125
1.22125
1.22125
1.22125
1.22125
1.22125
1.22125
1.22125
1.22125
1.22125
1.22125
1.22125
1.22125
1.22125
1.22125
1.22125
1.22125
1.22125
1.22125
1.22125
1.22125
1.22125
1.22125
1.12946
1.13167
1.13421
1.13919
1.14774
1.15914
1.17182
1.185
1.19634
1.20891
1.20344
1.21376
1.21806
1.21955
1.22
1.2202
1.22036
1.2206
1.221
1.22142
1.22162
1.22161
1.22147
1.22128
1.22112
1.22103
1.22097
1.22088
1.22073
1.22058
1.22048
1.22045
1.2205
1.22064
1.2209
1.22123
1.22151
1.22161
1.22162
1.22158
1.2215
1.22136
1.22117
1.22094
1.22069
1.22045
1.22026
1.22018
1.22016
1.22021
1.22038
1.22067
1.221
1.22121
1.22127
1.22127
1.22128
1.2213
1.22134
1.22143
1.22158
1.22173
1.2218
1.22181
1.22179
1.2217
1.22155
1.22139
1.22128
1.22125
1.22125
1.22125
1.22125
1.22125
1.22125
1.22125
1.22125
1.22125
1.22125
1.22125
1.22125
1.22125
1.22125
1.22125
1.22125
1.22125
1.22125
1.22125
1.22125
1.22125
1.22125
1.22125
1.22125
1.22125
1.22125
1.22125
1.22125
1.22125
1.22125
1.22125
1.22125
1.22125
1.22125
1.22125
1.22125
1.22125
1.22125
1.22125
1.22125
1.11987
1.11614
1.1154
1.11633
1.11896
1.12192
1.12368
1.12499
1.12532
1.12513
1.12447
1.12373
1.12236
1.12132
1.12046
1.1194
1.11819
1.11661
1.11438
1.11315
1.11472
1.11858
1.12287
1.12818
1.13287
1.13698
1.14075
1.14406
1.14739
1.15084
1.15449
1.15854
1.16253
1.16606
1.16974
1.1738
1.17902
1.18597
1.19437
1.20316
1.21144
1.21545
1.21982
1.21608
1.21768
1.21837
1.2193
1.21985
1.22015
1.22035
1.22061
1.22101
1.22142
1.22161
1.2216
1.22146
1.22126
1.22111
1.22102
1.22096
1.22087
1.22073
1.22059
1.22049
1.22046
1.22051
1.22066
1.22092
1.22124
1.22151
1.2216
1.2216
1.22157
1.22149
1.22134
1.22115
1.22092
1.22068
1.22045
1.22026
1.22019
1.22017
1.22022
1.22039
1.22068
1.22101
1.22122
1.22127
1.22128
1.22128
1.2213
1.22135
1.22144
1.22158
1.22174
1.2218
1.22181
1.22178
1.2217
1.22155
1.22138
1.22128
1.22125
1.22125
1.22125
1.22125
1.22125
1.22125
1.22125
1.22125
1.22125
1.22125
1.22125
1.22125
1.22125
1.22125
1.22125
1.22125
1.22125
1.22125
1.22125
1.22125
1.22125
1.22125
1.22125
1.22125
1.22125
1.22125
1.22125
1.22125
1.22125
1.22125
1.22125
1.22125
1.22125
1.22125
1.22125
1.22125
1.22125
1.22125
1.22125
1.22125
1.17043
1.16135
1.15477
1.15112
1.15016
1.15116
1.15318
1.15543
1.15697
1.15784
1.15834
1.15839
1.15795
1.15725
1.15598
1.15452
1.15287
1.1512
1.14984
1.1496
1.14946
1.14902
1.14988
1.15283
1.15663
1.1604
1.16393
1.1671
1.17011
1.17303
1.17606
1.17937
1.18291
1.18665
1.1904
1.1938
1.19723
1.20067
1.20455
1.20891
1.2136
1.21756
1.22119
1.22208
1.22268
1.2197
1.21896
1.21875
1.2193
1.21976
1.22008
1.22032
1.22061
1.22103
1.22143
1.2216
1.22158
1.22144
1.22125
1.2211
1.22101
1.22095
1.22086
1.22072
1.22059
1.2205
1.22048
1.22053
1.22068
1.22094
1.22125
1.22151
1.2216
1.22159
1.22156
1.22147
1.22133
1.22113
1.22091
1.22067
1.22044
1.22026
1.22019
1.22018
1.22023
1.2204
1.2207
1.22102
1.22122
1.22127
1.22128
1.22129
1.22131
1.22135
1.22144
1.22159
1.22174
1.2218
1.22181
1.22178
1.22169
1.22154
1.22138
1.22128
1.22125
1.22125
1.22125
1.22125
1.22125
1.22125
1.22125
1.22125
1.22125
1.22125
1.22125
1.22125
1.22125
1.22125
1.22125
1.22125
1.22125
1.22125
1.22125
1.22125
1.22125
1.22125
1.22125
1.22125
1.22125
1.22125
1.22125
1.22125
1.22125
1.22125
1.22125
1.22125
1.22125
1.22125
1.22125
1.22125
1.22125
1.22125
1.22125
1.22125
1.20305
1.19457
1.18726
1.18179
1.17854
1.17745
1.17808
1.17985
1.18204
1.18406
1.18524
1.18642
1.18695
1.18683
1.18619
1.18487
1.18319
1.18103
1.17833
1.17586
1.17478
1.17468
1.17481
1.17571
1.17794
1.18093
1.18378
1.1864
1.18897
1.19139
1.1937
1.19608
1.19869
1.20155
1.20444
1.20724
1.20975
1.21222
1.21449
1.21686
1.21905
1.22132
1.22263
1.22391
1.22376
1.22317
1.22084
1.21961
1.21914
1.21938
1.2197
1.22003
1.22029
1.22062
1.22105
1.22143
1.22159
1.22157
1.22142
1.22123
1.22108
1.221
1.22093
1.22085
1.22072
1.22059
1.22051
1.22049
1.22055
1.2207
1.22096
1.22127
1.22151
1.22159
1.22158
1.22154
1.22145
1.22131
1.22111
1.22089
1.22066
1.22043
1.22026
1.2202
1.22018
1.22025
1.22042
1.22071
1.22103
1.22122
1.22127
1.22128
1.22129
1.22131
1.22135
1.22145
1.2216
1.22174
1.2218
1.22181
1.22178
1.22169
1.22154
1.22138
1.22128
1.22125
1.22125
1.22125
1.22125
1.22125
1.22125
1.22125
1.22125
1.22125
1.22125
1.22125
1.22125
1.22125
1.22125
1.22125
1.22125
1.22125
1.22125
1.22125
1.22125
1.22125
1.22125
1.22125
1.22125
1.22125
1.22125
1.22125
1.22125
1.22125
1.22125
1.22125
1.22125
1.22125
1.22125
1.22125
1.22125
1.22125
1.22125
1.22125
1.22125
1.21591
1.20926
1.2036
1.19928
1.19648
1.1954
1.1955
1.19671
1.19857
1.20061
1.20217
1.20349
1.20441
1.20498
1.20525
1.20494
1.20423
1.20292
1.20084
1.19828
1.19595
1.19435
1.19356
1.19348
1.19407
1.1952
1.19665
1.19833
1.20028
1.20239
1.20455
1.20684
1.20927
1.21178
1.21412
1.21615
1.2177
1.21895
1.21995
1.22099
1.22193
1.22293
1.22336
1.22332
1.22286
1.22217
1.22045
1.21953
1.2192
1.21939
1.2197
1.22001
1.22028
1.22064
1.22108
1.22144
1.22158
1.22155
1.2214
1.22121
1.22107
1.22099
1.22092
1.22084
1.22071
1.22059
1.22052
1.22051
1.22057
1.22072
1.22098
1.22128
1.22151
1.22158
1.22157
1.22153
1.22144
1.22129
1.22109
1.22087
1.22064
1.22042
1.22026
1.2202
1.22019
1.22026
1.22044
1.22073
1.22105
1.22123
1.22127
1.22128
1.22129
1.22131
1.22136
1.22146
1.2216
1.22174
1.2218
1.2218
1.22177
1.22168
1.22153
1.22137
1.22128
1.22125
1.22125
1.22125
1.22125
1.22125
1.22125
1.22125
1.22125
1.22125
1.22125
1.22125
1.22125
1.22125
1.22125
1.22125
1.22125
1.22125
1.22125
1.22125
1.22125
1.22125
1.22125
1.22125
1.22125
1.22125
1.22125
1.22125
1.22125
1.22125
1.22125
1.22125
1.22125
1.22125
1.22125
1.22125
1.22125
1.22125
1.22125
1.22125
1.22125
1.2236
1.2179
1.21302
1.20926
1.20678
1.20569
1.20555
1.20647
1.20789
1.20948
1.21096
1.21207
1.21291
1.21354
1.21399
1.21409
1.21385
1.21323
1.21223
1.21071
1.20885
1.20716
1.20591
1.20515
1.20474
1.20462
1.20491
1.2055
1.20648
1.20774
1.20919
1.2108
1.21256
1.21442
1.21619
1.21776
1.21894
1.21985
1.2206
1.22126
1.22172
1.22191
1.22186
1.22167
1.22122
1.22063
1.21961
1.21925
1.21921
1.21945
1.21974
1.22002
1.22028
1.22067
1.22111
1.22145
1.22157
1.22152
1.22137
1.22119
1.22105
1.22097
1.22091
1.22082
1.2207
1.22059
1.22052
1.22052
1.22059
1.22075
1.22101
1.2213
1.22151
1.22157
1.22156
1.22151
1.22142
1.22126
1.22107
1.22085
1.22063
1.22041
1.22026
1.22021
1.2202
1.22027
1.22045
1.22075
1.22106
1.22124
1.22128
1.22129
1.2213
1.22132
1.22137
1.22146
1.22161
1.22175
1.2218
1.2218
1.22177
1.22167
1.22152
1.22137
1.22128
1.22125
1.22125
1.22125
1.22125
1.22125
1.22125
1.22125
1.22125
1.22125
1.22125
1.22125
1.22125
1.22125
1.22125
1.22125
1.22125
1.22125
1.22125
1.22125
1.22125
1.22125
1.22125
1.22125
1.22125
1.22125
1.22125
1.22125
1.22125
1.22125
1.22125
1.22125
1.22125
1.22125
1.22125
1.22125
1.22125
1.22125
1.22125
1.22125
1.22125
1.22867
1.22366
1.21933
1.2158
1.21331
1.21196
1.2115
1.21197
1.21295
1.21416
1.21536
1.21629
1.21711
1.21783
1.21835
1.21858
1.21844
1.21796
1.21717
1.21608
1.21471
1.21336
1.21223
1.21143
1.21088
1.21052
1.21043
1.21051
1.21079
1.21131
1.21203
1.21289
1.21389
1.21502
1.21619
1.21732
1.2183
1.21906
1.21955
1.21986
1.22006
1.22014
1.22005
1.21987
1.2196
1.21929
1.2189
1.21898
1.21918
1.21948
1.21977
1.22004
1.22032
1.22072
1.22116
1.22146
1.22155
1.2215
1.22134
1.22117
1.22104
1.22096
1.2209
1.22081
1.22069
1.22059
1.22053
1.22054
1.22061
1.22077
1.22104
1.22132
1.22152
1.22156
1.22154
1.2215
1.22139
1.22124
1.22104
1.22083
1.22061
1.2204
1.22026
1.22021
1.22021
1.22029
1.22048
1.22077
1.22108
1.22124
1.22128
1.22129
1.2213
1.22132
1.22137
1.22147
1.22162
1.22175
1.2218
1.2218
1.22176
1.22167
1.22151
1.22136
1.22127
1.22125
1.22125
1.22125
1.22125
1.22125
1.22125
1.22125
1.22125
1.22125
1.22125
1.22125
1.22125
1.22125
1.22125
1.22125
1.22125
1.22125
1.22125
1.22125
1.22125
1.22125
1.22125
1.22125
1.22125
1.22125
1.22125
1.22125
1.22125
1.22125
1.22125
1.22125
1.22125
1.22125
1.22125
1.22125
1.22125
1.22125
1.22125
1.22125
1.22125
1.232
1.22737
1.22336
1.22014
1.2177
1.21613
1.21539
1.21538
1.21582
1.21663
1.2175
1.21824
1.21891
1.21952
1.21998
1.22029
1.22037
1.22023
1.21985
1.21907
1.2179
1.21667
1.21558
1.21479
1.21431
1.21407
1.21405
1.21407
1.21413
1.21427
1.21446
1.21467
1.21495
1.21536
1.2159
1.21657
1.21728
1.21792
1.21841
1.21869
1.21878
1.21878
1.21872
1.21865
1.21859
1.21857
1.2186
1.21891
1.21924
1.21954
1.2198
1.22006
1.22037
1.22079
1.2212
1.22147
1.22154
1.22147
1.22131
1.22114
1.22102
1.22094
1.22088
1.22079
1.22068
1.22059
1.22054
1.22055
1.22063
1.22081
1.22107
1.22135
1.22152
1.22155
1.22153
1.22148
1.22137
1.22121
1.22102
1.2208
1.22059
1.22039
1.22026
1.22022
1.22022
1.2203
1.2205
1.2208
1.22109
1.22125
1.22128
1.22129
1.2213
1.22133
1.22138
1.22148
1.22163
1.22176
1.22179
1.2218
1.22176
1.22166
1.2215
1.22135
1.22127
1.22125
1.22125
1.22125
1.22125
1.22125
1.22125
1.22125
1.22125
1.22125
1.22125
1.22125
1.22125
1.22125
1.22125
1.22125
1.22125
1.22125
1.22125
1.22125
1.22125
1.22125
1.22125
1.22125
1.22125
1.22125
1.22125
1.22125
1.22125
1.22125
1.22125
1.22125
1.22125
1.22125
1.22125
1.22125
1.22125
1.22125
1.22125
1.22125
1.22125
1.23338
1.22963
1.22606
1.22294
1.22046
1.21869
1.21763
1.2172
1.21717
1.21752
1.21809
1.21871
1.21931
1.21985
1.22033
1.22076
1.22103
1.221
1.22073
1.22027
1.21966
1.21882
1.2179
1.21711
1.21657
1.21631
1.21625
1.21627
1.21631
1.21641
1.2165
1.21654
1.21654
1.21659
1.21671
1.21702
1.21742
1.21782
1.21816
1.21834
1.21839
1.21835
1.21831
1.2183
1.21833
1.21843
1.21864
1.21901
1.21933
1.21958
1.21983
1.2201
1.22044
1.22087
1.22126
1.22147
1.22152
1.22144
1.22127
1.22111
1.221
1.22093
1.22086
1.22078
1.22067
1.22059
1.22055
1.22057
1.22066
1.22084
1.2211
1.22137
1.22152
1.22154
1.22152
1.22146
1.22134
1.22118
1.22099
1.22078
1.22056
1.22037
1.22026
1.22022
1.22023
1.22032
1.22052
1.22083
1.22111
1.22125
1.22128
1.22129
1.22131
1.22133
1.22139
1.22149
1.22164
1.22176
1.22179
1.22179
1.22175
1.22165
1.22149
1.22135
1.22127
1.22125
1.22125
1.22125
1.22125
1.22125
1.22125
1.22125
1.22125
1.22125
1.22125
1.22125
1.22125
1.22125
1.22125
1.22125
1.22125
1.22125
1.22125
1.22125
1.22125
1.22125
1.22125
1.22125
1.22125
1.22125
1.22125
1.22125
1.22125
1.22125
1.22125
1.22125
1.22125
1.22125
1.22125
1.22125
1.22125
1.22125
1.22125
1.22125
1.22125
1.23293
1.23014
1.22727
1.22463
1.22236
1.22049
1.21917
1.21839
1.2181
1.21816
1.21847
1.21893
1.21937
1.21974
1.22007
1.22037
1.22062
1.22071
1.22065
1.22043
1.22007
1.21959
1.21904
1.21847
1.21795
1.2176
1.21741
1.21734
1.21735
1.21745
1.21764
1.21781
1.21795
1.21809
1.21822
1.21838
1.21856
1.21871
1.21883
1.21884
1.21877
1.21864
1.21853
1.21849
1.21852
1.21862
1.21885
1.21916
1.2194
1.21961
1.21985
1.22015
1.22053
1.22095
1.22131
1.22148
1.22149
1.2214
1.22123
1.22108
1.22098
1.22091
1.22084
1.22076
1.22066
1.22059
1.22056
1.22059
1.22069
1.22088
1.22114
1.22139
1.22151
1.22153
1.2215
1.22143
1.22131
1.22115
1.22095
1.22075
1.22054
1.22036
1.22026
1.22023
1.22024
1.22034
1.22055
1.22086
1.22113
1.22126
1.22129
1.2213
1.22131
1.22134
1.2214
1.2215
1.22165
1.22177
1.22179
1.22179
1.22174
1.22164
1.22148
1.22134
1.22127
1.22125
1.22125
1.22125
1.22125
1.22125
1.22125
1.22125
1.22125
1.22125
1.22125
1.22125
1.22125
1.22125
1.22125
1.22125
1.22125
1.22125
1.22125
1.22125
1.22125
1.22125
1.22125
1.22125
1.22125
1.22125
1.22125
1.22125
1.22125
1.22125
1.22125
1.22125
1.22125
1.22125
1.22125
1.22125
1.22125
1.22125
1.22125
1.22125
1.22125
1.2313
1.22929
1.22714
1.22511
1.22325
1.2217
1.22051
1.21968
1.21922
1.21906
1.21915
1.2194
1.21963
1.21976
1.21985
1.21996
1.22008
1.22017
1.2202
1.22013
1.21995
1.21969
1.21939
1.21903
1.21866
1.21833
1.21808
1.21795
1.21792
1.218
1.21821
1.21849
1.2188
1.21911
1.21939
1.21961
1.21971
1.21967
1.21961
1.21944
1.21924
1.21904
1.21889
1.21883
1.21883
1.2189
1.21906
1.21926
1.21942
1.21961
1.21987
1.22022
1.22063
1.22105
1.22135
1.22148
1.22147
1.22136
1.22119
1.22105
1.22095
1.22089
1.22082
1.22074
1.22065
1.22059
1.22058
1.22061
1.22072
1.22092
1.22118
1.22141
1.22151
1.22151
1.22148
1.22141
1.22128
1.22111
1.22092
1.22072
1.22051
1.22035
1.22026
1.22023
1.22026
1.22037
1.22059
1.22089
1.22115
1.22127
1.22129
1.2213
1.22131
1.22134
1.22141
1.22152
1.22166
1.22177
1.22179
1.22179
1.22174
1.22162
1.22147
1.22133
1.22126
1.22125
1.22125
1.22125
1.22125
1.22125
1.22125
1.22125
1.22125
1.22125
1.22125
1.22125
1.22125
1.22125
1.22125
1.22125
1.22125
1.22125
1.22125
1.22125
1.22125
1.22125
1.22125
1.22125
1.22125
1.22125
1.22125
1.22125
1.22125
1.22125
1.22125
1.22125
1.22125
1.22125
1.22125
1.22125
1.22125
1.22125
1.22125
1.22125
1.22125
1.22924
1.22788
1.22632
1.2247
1.22327
1.22211
1.22115
1.22044
1.21998
1.21977
1.21974
1.21987
1.22003
1.22009
1.22009
1.22011
1.22013
1.22016
1.22016
1.22011
1.21997
1.21977
1.21955
1.21933
1.21909
1.21887
1.21868
1.21857
1.21853
1.21858
1.21874
1.21899
1.2193
1.21963
1.21992
1.22009
1.22012
1.22001
1.21983
1.21959
1.21934
1.21914
1.21902
1.21897
1.21897
1.21902
1.21915
1.21929
1.21942
1.21962
1.21992
1.22032
1.22076
1.22115
1.22139
1.22147
1.22144
1.22131
1.22115
1.22102
1.22093
1.22087
1.2208
1.22072
1.22064
1.2206
1.22059
1.22064
1.22076
1.22097
1.22123
1.22143
1.22151
1.2215
1.22146
1.22138
1.22124
1.22107
1.22088
1.22068
1.22049
1.22033
1.22026
1.22024
1.22027
1.22039
1.22062
1.22093
1.22117
1.22127
1.22129
1.2213
1.22132
1.22135
1.22142
1.22153
1.22168
1.22177
1.22179
1.22178
1.22173
1.22161
1.22145
1.22132
1.22126
1.22125
1.22125
1.22125
1.22125
1.22125
1.22125
1.22125
1.22125
1.22125
1.22125
1.22125
1.22125
1.22125
1.22125
1.22125
1.22125
1.22125
1.22125
1.22125
1.22125
1.22125
1.22125
1.22125
1.22125
1.22125
1.22125
1.22125
1.22125
1.22125
1.22125
1.22125
1.22125
1.22125
1.22125
1.22125
1.22125
1.22125
1.22125
1.22125
1.22125
1.22668
1.22583
1.22488
1.22381
1.22279
1.22188
1.22114
1.22063
1.22027
1.2201
1.22006
1.22017
1.22036
1.22054
1.22065
1.22065
1.2206
1.22056
1.22053
1.22047
1.22036
1.22021
1.22003
1.21986
1.21969
1.21954
1.21943
1.21937
1.21936
1.2194
1.21948
1.21961
1.21977
1.21992
1.22003
1.22005
1.22
1.21983
1.2196
1.21934
1.21912
1.21898
1.21892
1.21892
1.21895
1.21903
1.21915
1.21928
1.21941
1.21964
1.22001
1.22045
1.22089
1.22124
1.22142
1.22146
1.2214
1.22126
1.2211
1.22098
1.2209
1.22084
1.22078
1.22071
1.22064
1.2206
1.22061
1.22067
1.2208
1.22102
1.22127
1.22145
1.2215
1.22148
1.22144
1.22134
1.2212
1.22103
1.22084
1.22065
1.22046
1.22032
1.22026
1.22025
1.22029
1.22042
1.22067
1.22097
1.22119
1.22128
1.2213
1.22131
1.22132
1.22136
1.22143
1.22155
1.22169
1.22178
1.22179
1.22178
1.22172
1.22159
1.22144
1.22131
1.22126
1.22125
1.22125
1.22125
1.22125
1.22125
1.22125
1.22125
1.22125
1.22125
1.22125
1.22125
1.22125
1.22125
1.22125
1.22125
1.22125
1.22125
1.22125
1.22125
1.22125
1.22125
1.22125
1.22125
1.22125
1.22125
1.22125
1.22125
1.22125
1.22125
1.22125
1.22125
1.22125
1.22125
1.22125
1.22125
1.22125
1.22125
1.22125
1.22125
1.22125
1.22449
1.22392
1.22332
1.22264
1.22192
1.22125
1.22068
1.22026
1.21999
1.21987
1.21989
1.22006
1.22037
1.22073
1.22105
1.22131
1.22151
1.2216
1.22161
1.22158
1.22152
1.2214
1.22121
1.221
1.22078
1.2206
1.22046
1.22036
1.22028
1.22023
1.22019
1.22015
1.22009
1.22001
1.21991
1.21978
1.21961
1.21939
1.21915
1.21894
1.21881
1.21877
1.21878
1.21884
1.21892
1.21902
1.21915
1.21926
1.21942
1.21972
1.22015
1.22063
1.22105
1.22132
1.22143
1.22143
1.22135
1.22121
1.22106
1.22095
1.22087
1.22082
1.22076
1.22069
1.22064
1.22061
1.22063
1.2207
1.22085
1.22108
1.22132
1.22146
1.22148
1.22146
1.22141
1.2213
1.22115
1.22098
1.22079
1.22061
1.22043
1.22031
1.22026
1.22026
1.22031
1.22046
1.22071
1.22101
1.22122
1.22129
1.2213
1.22131
1.22133
1.22137
1.22144
1.22157
1.22171
1.22178
1.22179
1.22177
1.22171
1.22158
1.22142
1.2213
1.22126
1.22125
1.22125
1.22125
1.22125
1.22125
1.22125
1.22125
1.22125
1.22125
1.22125
1.22125
1.22125
1.22125
1.22125
1.22125
1.22125
1.22125
1.22125
1.22125
1.22125
1.22125
1.22125
1.22125
1.22125
1.22125
1.22125
1.22125
1.22125
1.22125
1.22125
1.22125
1.22125
1.22125
1.22125
1.22125
1.22125
1.22125
1.22125
1.22125
1.22125
1.22298
1.22258
1.22211
1.22163
1.22112
1.22061
1.22016
1.21981
1.21958
1.2195
1.21954
1.21973
1.22009
1.22055
1.22104
1.22151
1.2219
1.22219
1.22242
1.22257
1.22265
1.22266
1.22259
1.2224
1.22217
1.22191
1.22163
1.22133
1.22106
1.22082
1.2206
1.22038
1.22016
1.21993
1.21969
1.21945
1.21921
1.21899
1.2188
1.21869
1.21865
1.21868
1.21874
1.21885
1.21895
1.21906
1.21917
1.21928
1.2195
1.21988
1.22037
1.22084
1.22119
1.22137
1.22142
1.2214
1.2213
1.22115
1.22101
1.22091
1.22084
1.22079
1.22074
1.22068
1.22064
1.22063
1.22065
1.22074
1.22091
1.22114
1.22136
1.22146
1.22147
1.22144
1.22137
1.22126
1.2211
1.22093
1.22075
1.22057
1.22041
1.2203
1.22027
1.22027
1.22034
1.2205
1.22077
1.22105
1.22124
1.22129
1.22131
1.22132
1.22134
1.22138
1.22146
1.22159
1.22172
1.22178
1.22179
1.22177
1.22169
1.22156
1.2214
1.22129
1.22126
1.22125
1.22125
1.22125
1.22125
1.22125
1.22125
1.22125
1.22125
1.22125
1.22125
1.22125
1.22125
1.22125
1.22125
1.22125
1.22125
1.22125
1.22125
1.22125
1.22125
1.22125
1.22125
1.22125
1.22125
1.22125
1.22125
1.22125
1.22125
1.22125
1.22125
1.22125
1.22125
1.22125
1.22125
1.22125
1.22125
1.22125
1.22125
1.22125
1.22125
1.22232
1.22211
1.22174
1.22134
1.22092
1.2205
1.22011
1.21979
1.21956
1.21945
1.21946
1.2196
1.2199
1.22032
1.22081
1.22133
1.2218
1.2222
1.2225
1.22272
1.22286
1.22297
1.22302
1.223
1.22288
1.22266
1.22235
1.22198
1.22158
1.22118
1.22081
1.22048
1.22016
1.21986
1.21956
1.21928
1.21903
1.21884
1.21872
1.21868
1.2187
1.21877
1.21887
1.21898
1.21908
1.21916
1.21925
1.2194
1.2197
1.22016
1.22066
1.22106
1.2213
1.22139
1.2214
1.22135
1.22123
1.22108
1.22096
1.22087
1.22081
1.22077
1.22072
1.22067
1.22064
1.22064
1.22069
1.22079
1.22098
1.2212
1.22139
1.22145
1.22145
1.22141
1.22133
1.22121
1.22105
1.22087
1.2207
1.22053
1.22038
1.2203
1.22027
1.22029
1.22037
1.22055
1.22082
1.2211
1.22126
1.2213
1.22131
1.22132
1.22135
1.22139
1.22148
1.22162
1.22174
1.22178
1.22179
1.22176
1.22167
1.22153
1.22138
1.22128
1.22125
1.22125
1.22125
1.22125
1.22125
1.22125
1.22125
1.22125
1.22125
1.22125
1.22125
1.22125
1.22125
1.22125
1.22125
1.22125
1.22125
1.22125
1.22125
1.22125
1.22125
1.22125
1.22125
1.22125
1.22125
1.22125
1.22125
1.22125
1.22125
1.22125
1.22125
1.22125
1.22125
1.22125
1.22125
1.22125
1.22125
1.22125
1.22125
1.22125
1.22125
1.2221
1.22204
1.22183
1.2215
1.22113
1.22076
1.2204
1.22008
1.21985
1.21974
1.21972
1.21981
1.22001
1.22032
1.22069
1.2211
1.2215
1.22189
1.22221
1.22248
1.22269
1.22284
1.22293
1.22296
1.22291
1.22275
1.22251
1.22221
1.22185
1.22145
1.22105
1.22067
1.22032
1.21999
1.21969
1.21942
1.2192
1.21905
1.21897
1.21897
1.21902
1.21909
1.21917
1.21925
1.21931
1.21937
1.21945
1.21966
1.22005
1.22053
1.22096
1.22123
1.22135
1.22138
1.22136
1.22128
1.22115
1.22102
1.22091
1.22083
1.22078
1.22074
1.2207
1.22067
1.22065
1.22067
1.22073
1.22085
1.22105
1.22126
1.2214
1.22144
1.22142
1.22138
1.22128
1.22115
1.22098
1.22081
1.22065
1.22049
1.22035
1.22029
1.22028
1.22031
1.22041
1.22061
1.22089
1.22114
1.22127
1.22131
1.22132
1.22133
1.22135
1.22141
1.2215
1.22164
1.22175
1.22179
1.22179
1.22175
1.22165
1.22151
1.22136
1.22127
1.22125
1.22125
1.22125
1.22125
1.22125
1.22125
1.22125
1.22125
1.22125
1.22125
1.22125
1.22125
1.22125
1.22125
1.22125
1.22125
1.22125
1.22125
1.22125
1.22125
1.22125
1.22125
1.22125
1.22125
1.22125
1.22125
1.22125
1.22125
1.22125
1.22125
1.22125
1.22125
1.22125
1.22125
1.22125
1.22125
1.22125
1.22125
1.22125
1.22125
1.22125
1.22189
1.22199
1.22193
1.22175
1.22148
1.22119
1.22089
1.22064
1.22043
1.2203
1.22025
1.22027
1.22036
1.22053
1.22077
1.22104
1.22133
1.22162
1.22188
1.22211
1.22231
1.22247
1.2226
1.22267
1.22264
1.22256
1.22241
1.22221
1.22197
1.22169
1.22138
1.22105
1.22073
1.22044
1.22017
1.21993
1.21975
1.21962
1.21956
1.21955
1.21957
1.2196
1.21962
1.21965
1.21968
1.21972
1.21983
1.2201
1.2205
1.22091
1.22119
1.22132
1.22135
1.22134
1.22129
1.2212
1.22107
1.22095
1.22086
1.2208
1.22076
1.22072
1.22069
1.22067
1.22067
1.2207
1.22078
1.22092
1.22113
1.22132
1.22141
1.22142
1.22139
1.22133
1.22123
1.22108
1.22092
1.22075
1.22059
1.22045
1.22033
1.22029
1.22029
1.22033
1.22045
1.22068
1.22096
1.22119
1.22129
1.22131
1.22132
1.22134
1.22137
1.22143
1.22153
1.22167
1.22177
1.22179
1.22178
1.22174
1.22163
1.22148
1.22134
1.22127
1.22125
1.22125
1.22125
1.22125
1.22125
1.22125
1.22125
1.22125
1.22125
1.22125
1.22125
1.22125
1.22125
1.22125
1.22125
1.22125
1.22125
1.22125
1.22125
1.22125
1.22125
1.22125
1.22125
1.22125
1.22125
1.22125
1.22125
1.22125
1.22125
1.22125
1.22125
1.22125
1.22125
1.22125
1.22125
1.22125
1.22125
1.22125
1.22125
1.22125
1.22125
1.22138
1.22165
1.22176
1.22174
1.22164
1.22146
1.22127
1.22109
1.22092
1.2208
1.22073
1.22072
1.22075
1.22082
1.22093
1.22109
1.22128
1.2215
1.22171
1.2219
1.22205
1.22218
1.22227
1.22233
1.22234
1.22232
1.22225
1.22214
1.222
1.22183
1.22165
1.22145
1.22124
1.22103
1.22081
1.22062
1.22047
1.22036
1.22028
1.22024
1.22021
1.22019
1.22018
1.22017
1.22018
1.22022
1.22034
1.22062
1.22093
1.22117
1.22129
1.22132
1.22131
1.22127
1.2212
1.22111
1.22099
1.22088
1.22081
1.22076
1.22073
1.22071
1.22069
1.22068
1.22069
1.22074
1.22084
1.22101
1.2212
1.22135
1.22141
1.2214
1.22136
1.22128
1.22116
1.221
1.22085
1.22069
1.22054
1.22041
1.22032
1.22029
1.2203
1.22036
1.22051
1.22075
1.22103
1.22123
1.2213
1.22132
1.22133
1.22135
1.22138
1.22145
1.22156
1.2217
1.22177
1.22179
1.22178
1.22172
1.2216
1.22145
1.22132
1.22126
1.22125
1.22125
1.22125
1.22125
1.22125
1.22125
1.22125
1.22125
1.22125
1.22125
1.22125
1.22125
1.22125
1.22125
1.22125
1.22125
1.22125
1.22125
1.22125
1.22125
1.22125
1.22125
1.22125
1.22125
1.22125
1.22125
1.22125
1.22125
1.22125
1.22125
1.22125
1.22125
1.22125
1.22125
1.22125
1.22125
1.22125
1.22125
1.22125
1.22125
1.22125
1.22065
1.22102
1.22128
1.22145
1.22151
1.22149
1.22143
1.22134
1.22124
1.22114
1.22107
1.22102
1.221
1.22101
1.22104
1.22111
1.22122
1.22137
1.22153
1.22168
1.22181
1.22192
1.22199
1.22204
1.22205
1.22206
1.22204
1.22201
1.22195
1.22186
1.22175
1.22163
1.22149
1.22134
1.22121
1.22109
1.22099
1.22091
1.22084
1.22079
1.22075
1.22072
1.22069
1.22068
1.22069
1.22071
1.22081
1.221
1.22116
1.22125
1.22126
1.22124
1.2212
1.22116
1.22111
1.22102
1.22091
1.22082
1.22076
1.22073
1.22071
1.2207
1.22069
1.2207
1.22072
1.22079
1.22092
1.2211
1.22127
1.22137
1.22139
1.22137
1.22131
1.22121
1.22108
1.22092
1.22077
1.22063
1.22049
1.22037
1.22032
1.2203
1.22032
1.22041
1.22058
1.22084
1.2211
1.22126
1.22131
1.22132
1.22134
1.22136
1.2214
1.22147
1.2216
1.22172
1.22178
1.22179
1.22177
1.2217
1.22157
1.22141
1.2213
1.22126
1.22125
1.22125
1.22125
1.22125
1.22125
1.22125
1.22125
1.22125
1.22125
1.22125
1.22125
1.22125
1.22125
1.22125
1.22125
1.22125
1.22125
1.22125
1.22125
1.22125
1.22125
1.22125
1.22125
1.22125
1.22125
1.22125
1.22125
1.22125
1.22125
1.22125
1.22125
1.22125
1.22125
1.22125
1.22125
1.22125
1.22125
1.22125
1.22125
1.22125
1.22125
1.21999
1.2204
1.22073
1.22098
1.22117
1.2213
1.22136
1.22136
1.22133
1.22127
1.2212
1.22114
1.22108
1.22104
1.22102
1.22102
1.22104
1.2211
1.22121
1.22133
1.22145
1.22154
1.22161
1.22167
1.2217
1.22171
1.22171
1.2217
1.22167
1.22163
1.22157
1.2215
1.22143
1.22135
1.22127
1.22119
1.22113
1.22108
1.22104
1.22101
1.22098
1.22095
1.22093
1.22092
1.22093
1.22095
1.22101
1.22111
1.22117
1.22117
1.22113
1.22111
1.22109
1.22106
1.22102
1.22093
1.22083
1.22076
1.22072
1.22071
1.22071
1.22071
1.22071
1.22072
1.22077
1.22086
1.22101
1.22118
1.22132
1.22137
1.22136
1.22133
1.22125
1.22113
1.22099
1.22084
1.2207
1.22057
1.22044
1.22035
1.22032
1.22031
1.22035
1.22047
1.22067
1.22093
1.22117
1.22129
1.22132
1.22133
1.22134
1.22137
1.22142
1.22151
1.22163
1.22175
1.22179
1.22179
1.22176
1.22167
1.22153
1.22138
1.22128
1.22125
1.22125
1.22125
1.22125
1.22125
1.22125
1.22125
1.22125
1.22125
1.22125
1.22125
1.22125
1.22125
1.22125
1.22125
1.22125
1.22125
1.22125
1.22125
1.22125
1.22125
1.22125
1.22125
1.22125
1.22125
1.22125
1.22125
1.22125
1.22125
1.22125
1.22125
1.22125
1.22125
1.22125
1.22125
1.22125
1.22125
1.22125
1.22125
1.22125
1.22125
1.22125
1.21936
1.21983
1.2202
1.22049
1.22072
1.2209
1.22102
1.2211
1.22112
1.2211
1.22104
1.22097
1.22089
1.22083
1.22077
1.22073
1.22072
1.22073
1.22076
1.22082
1.22089
1.22095
1.22101
1.22107
1.22112
1.22116
1.22118
1.2212
1.2212
1.22119
1.22116
1.22113
1.22108
1.22104
1.22101
1.22099
1.22098
1.22097
1.22096
1.22095
1.22094
1.22093
1.22092
1.22092
1.22092
1.22094
1.22097
1.221
1.22099
1.22097
1.22096
1.22098
1.221
1.22098
1.22093
1.22084
1.22076
1.22071
1.2207
1.2207
1.22071
1.22072
1.22073
1.22077
1.22084
1.22095
1.22111
1.22126
1.22134
1.22135
1.22133
1.22127
1.22117
1.22104
1.22089
1.22075
1.22062
1.2205
1.2204
1.22034
1.22032
1.22033
1.2204
1.22054
1.22077
1.22103
1.22123
1.22131
1.22133
1.22134
1.22135
1.22138
1.22144
1.22154
1.22167
1.22177
1.22179
1.22179
1.22174
1.22163
1.22148
1.22134
1.22127
1.22125
1.22125
1.22125
1.22125
1.22125
1.22125
1.22125
1.22125
1.22125
1.22125
1.22125
1.22125
1.22125
1.22125
1.22125
1.22125
1.22125
1.22125
1.22125
1.22125
1.22125
1.22125
1.22125
1.22125
1.22125
1.22125
1.22125
1.22125
1.22125
1.22125
1.22125
1.22125
1.22125
1.22125
1.22125
1.22125
1.22125
1.22125
1.22125
1.22125
1.22125
1.22125
1.21843
1.21898
1.21941
1.21975
1.22002
1.22022
1.22036
1.22046
1.22052
1.22054
1.22053
1.2205
1.22046
1.22041
1.22036
1.22032
1.22028
1.22025
1.22023
1.22023
1.22024
1.22027
1.2203
1.22034
1.22039
1.22043
1.22046
1.22049
1.22052
1.22053
1.22055
1.22056
1.22058
1.22059
1.22061
1.22063
1.22064
1.22065
1.22065
1.22065
1.22065
1.22065
1.22066
1.22067
1.22068
1.2207
1.22072
1.22074
1.22075
1.22079
1.22085
1.22091
1.22092
1.2209
1.22083
1.22075
1.2207
1.22069
1.22069
1.22071
1.22073
1.22074
1.22077
1.22083
1.22092
1.22106
1.2212
1.2213
1.22133
1.22131
1.22128
1.22119
1.22107
1.22093
1.22079
1.22067
1.22055
1.22045
1.22037
1.22034
1.22033
1.22036
1.22046
1.22064
1.22089
1.22113
1.22128
1.22132
1.22134
1.22135
1.22137
1.2214
1.22147
1.22159
1.22172
1.22178
1.22179
1.22178
1.22171
1.22159
1.22144
1.22131
1.22126
1.22125
1.22125
1.22125
1.22125
1.22125
1.22125
1.22125
1.22125
1.22125
1.22125
1.22125
1.22125
1.22125
1.22125
1.22125
1.22125
1.22125
1.22125
1.22125
1.22125
1.22125
1.22125
1.22125
1.22125
1.22125
1.22125
1.22125
1.22125
1.22125
1.22125
1.22125
1.22125
1.22125
1.22125
1.22125
1.22125
1.22125
1.22125
1.22125
1.22125
1.22125
1.22125
1.21727
1.21785
1.21834
1.21873
1.21904
1.21929
1.21948
1.21962
1.21972
1.21979
1.21983
1.21984
1.21984
1.21983
1.21982
1.2198
1.21978
1.21977
1.21975
1.21975
1.21975
1.21976
1.21977
1.21979
1.21981
1.21984
1.21986
1.21989
1.21991
1.21994
1.21998
1.22002
1.22006
1.2201
1.22014
1.22018
1.22021
1.22024
1.22026
1.22028
1.22029
1.22031
1.22034
1.22037
1.2204
1.22043
1.22047
1.22053
1.2206
1.22071
1.22081
1.22085
1.22085
1.2208
1.22073
1.22068
1.22067
1.22068
1.22071
1.22073
1.22076
1.22079
1.22083
1.22091
1.22102
1.22116
1.22126
1.2213
1.2213
1.22127
1.2212
1.22109
1.22095
1.22081
1.22069
1.22059
1.22049
1.2204
1.22036
1.22034
1.22035
1.22041
1.22054
1.22076
1.22101
1.22121
1.22131
1.22133
1.22135
1.22136
1.22138
1.22143
1.22152
1.22164
1.22175
1.22179
1.22179
1.22176
1.22168
1.22154
1.22139
1.22129
1.22126
1.22125
1.22125
1.22125
1.22125
1.22125
1.22125
1.22125
1.22125
1.22125
1.22125
1.22125
1.22125
1.22125
1.22125
1.22125
1.22125
1.22125
1.22125
1.22125
1.22125
1.22125
1.22125
1.22125
1.22125
1.22125
1.22125
1.22125
1.22125
1.22125
1.22125
1.22125
1.22125
1.22125
1.22125
1.22125
1.22125
1.22125
1.22125
1.22125
1.22125
1.22125
1.22125
1.21634
1.21689
1.21737
1.21778
1.21813
1.21841
1.21865
1.21884
1.219
1.21912
1.21922
1.2193
1.21936
1.2194
1.21942
1.21944
1.21945
1.21946
1.21946
1.21946
1.21946
1.21947
1.21948
1.21949
1.21951
1.21952
1.21954
1.21957
1.2196
1.21963
1.21966
1.2197
1.21975
1.21979