/*--------------------------------*- C++ -*----------------------------------*\
| =========                 |                                                 |
| \\      /  F ield         | OpenFOAM: The Open Source CFD Toolbox           |
|  \\    /   O peration     | Version:  2406                                  |
|   \\  /    A nd           | Website:  www.openfoam.com                      |
|    \\/     M anipulation  |                                                 |
\*---------------------------------------------------------------------------*/
FoamFile
{
    version     2.0;
    format      ascii;
    arch        "LSB;label=32;scalar=64";
    class       volVectorField;
    location    "0.1";
    object      U;
}
// * * * * * * * * * * * * * * * * * * * * * * * * * * * * * * * * * * * * * //

dimensions      [0 1 -1 0 0 0 0];

internalField   nonuniform List<vector> 
13948
(
(39.2566 -27.2537 2.16647)
(24.0042 -24.2913 1.09251)
(15.353 -15.7904 0.855601)
(9.94103 -8.87849 0.467084)
(6.74812 -4.85209 0.250812)
(4.91313 -2.83109 0.154808)
(3.72567 -1.84315 0.112167)
(2.88086 -1.29158 0.0838393)
(2.19141 -0.953605 0.0661408)
(1.63786 -0.724287 0.0517511)
(1.25582 -0.564365 0.0403586)
(1.01989 -0.45518 0.0314541)
(0.867057 -0.373338 0.024373)
(0.774073 -0.311738 0.0190072)
(0.69482 -0.265143 0.0149817)
(0.616315 -0.227056 0.011669)
(0.547251 -0.1957 0.00889439)
(0.498663 -0.169391 0.00653607)
(0.477133 -0.144121 0.00442992)
(0.469728 -0.120729 0.00266361)
(0.454837 -0.0979562 0.0010834)
(0.420587 -0.0751528 -0.000375836)
(0.3764 -0.053109 -0.00166295)
(0.310027 -0.0347444 -0.00261864)
(0.216437 -0.0204188 -0.00320272)
(0.107422 -0.0125099 -0.00340759)
(0.0170719 -0.0105996 -0.00329851)
(-0.0231735 -0.0145619 -0.00289327)
(-0.0294651 -0.0212834 -0.002364)
(-0.0266106 -0.028555 -0.00182399)
(-0.0104331 -0.0367033 -0.00124845)
(0.0222306 -0.0446602 -0.000681879)
(0.0688589 -0.0512488 -0.000154156)
(0.123825 -0.0554475 0.000281789)
(0.182585 -0.0566879 0.000572534)
(0.239602 -0.054553 0.0006636)
(0.282029 -0.0494751 0.000593478)
(0.296758 -0.0411798 0.000411406)
(0.288556 -0.0315123 0.000171511)
(0.265778 -0.0203818 -0.000116387)
(0.213006 -0.0106844 -0.000365978)
(0.125466 -0.0026577 -0.000553094)
(0.0279636 0.00230297 -0.000665374)
(-0.0318182 0.00468447 -0.000719628)
(-0.0454029 0.00627897 -0.000740575)
(-0.0455488 0.00767822 -0.000763504)
(-0.045227 0.00987055 -0.000813186)
(-0.0476495 0.0122275 -0.000876281)
(-0.0569602 0.0147629 -0.00094603)
(-0.079553 0.0170765 -0.00100302)
(-0.117524 0.0184178 -0.00101845)
(-0.157437 0.0180953 -0.000975167)
(-0.174163 0.0159728 -0.000851825)
(-0.17136 0.0130465 -0.000691712)
(-0.160368 0.00926243 -0.000489054)
(-0.133216 0.00575147 -0.000304027)
(-0.0886033 0.00275193 -0.00014692)
(-0.0400267 0.000896319 -4.89526e-05)
(-0.00941879 0.000159229 -9.01169e-06)
(-0.000799124 1.08009e-05 -6.38737e-07)
(-1.61847e-05 1.81647e-07 -1.12358e-08)
(-5.31199e-08 4.95124e-10 -2.42218e-11)
(-2.26589e-11 -1.95657e-11 4.57552e-11)
(-1.33159e-12 -1.92667e-12 4.66217e-11)
(4.55163e-12 -8.59265e-12 2.7738e-11)
(-7.91594e-13 -9.2028e-13 1.1648e-11)
(-2.76559e-12 -1.53066e-11 1.47361e-11)
(-6.96662e-12 -1.07991e-11 1.61873e-11)
(-1.27289e-11 -1.98587e-11 1.79771e-11)
(-4.99534e-12 -1.75827e-11 1.53249e-11)
(-1.21427e-11 -4.37977e-12 5.07483e-12)
(-1.1759e-11 -1.24941e-11 -3.19915e-12)
(9.76089e-13 -1.09766e-11 -1.50488e-11)
(-1.78701e-12 -6.62718e-12 -1.7683e-11)
(1.33892e-12 -2.02513e-11 1.15367e-12)
(1.80055e-11 -3.65846e-11 1.67946e-11)
(3.02061e-11 -2.61177e-11 3.11739e-11)
(2.2506e-11 -1.19391e-11 4.45406e-11)
(1.80186e-11 -7.87265e-12 5.7275e-11)
(2.50041e-11 4.06973e-12 6.09839e-11)
(1.47126e-11 1.42384e-11 5.96005e-11)
(4.34169e-12 8.27795e-12 5.85871e-11)
(1.18164e-11 7.88222e-12 5.9103e-11)
(1.30525e-11 1.1814e-11 6.75106e-11)
(9.57211e-12 9.65144e-12 4.63489e-11)
(1.54376e-11 9.79162e-12 1.99306e-11)
(1.08804e-11 1.19546e-11 2.47343e-11)
(1.06457e-11 -4.28673e-13 3.00836e-11)
(8.66799e-12 -2.8211e-12 1.86421e-11)
(5.448e-12 -2.8314e-11 1.38362e-11)
(2.65451e-11 -3.97905e-11 7.68417e-12)
(4.13315e-11 -3.58011e-11 -9.70605e-12)
(3.96968e-11 -2.24116e-11 -1.20271e-11)
(2.70118e-11 -2.02229e-11 -1.52855e-11)
(3.01668e-11 -3.50459e-11 -1.74731e-11)
(4.97943e-11 -4.13322e-11 -2.3998e-11)
(6.48782e-11 -4.71627e-11 -3.92618e-11)
(7.38559e-11 -4.06664e-11 -4.79051e-11)
(8.09825e-11 -4.0947e-11 -4.26012e-11)
(32.673 -19.0805 1.72915)
(25.6531 -30.9594 1.98575)
(21.0546 -24.3977 1.32051)
(14.5995 -15.8184 0.874793)
(9.81541 -8.87202 0.471497)
(6.74013 -4.86657 0.252067)
(4.91373 -2.85909 0.155751)
(3.71735 -1.87059 0.113154)
(2.86619 -1.31299 0.0846453)
(2.17775 -0.964152 0.0665065)
(1.63141 -0.725058 0.0517013)
(1.25483 -0.560976 0.0401844)
(1.01992 -0.450248 0.0312452)
(0.867471 -0.368937 0.0242014)
(0.774251 -0.3087 0.0188999)
(0.694815 -0.26286 0.0149087)
(0.616332 -0.224971 0.011609)
(0.547507 -0.193747 0.00885105)
(0.499338 -0.168441 0.00654402)
(0.478172 -0.145428 0.00450937)
(0.470304 -0.124527 0.00282365)
(0.454882 -0.103781 0.00132103)
(0.420145 -0.0820822 -9.95935e-05)
(0.375506 -0.0604595 -0.00137193)
(0.308317 -0.0415785 -0.00235695)
(0.213857 -0.0251784 -0.00302175)
(0.105005 -0.0130116 -0.00336159)
(0.0161082 -0.00867005 -0.00337374)
(-0.0233801 -0.010313 -0.00299917)
(-0.0295679 -0.015989 -0.00251035)
(-0.0265791 -0.0225806 -0.0019905)
(-0.0100819 -0.030318 -0.00142433)
(0.0229725 -0.0383967 -0.000861957)
(0.0699026 -0.0458484 -0.000321686)
(0.125069 -0.0514515 0.000149409)
(0.184046 -0.054495 0.000490451)
(0.240809 -0.0547601 0.00067112)
(0.282642 -0.0514597 0.000671692)
(0.297033 -0.0447352 0.000538733)
(0.288559 -0.0358931 0.000325044)
(0.26558 -0.0254105 5.53675e-05)
(0.212308 -0.015686 -0.000202022)
(0.124514 -0.00652446 -0.000435595)
(0.0273256 0.000188367 -0.000587124)
(-0.0319307 0.00369816 -0.000684244)
(-0.0453475 0.00539284 -0.000708824)
(-0.0454975 0.00664953 -0.000726794)
(-0.0451988 0.00857539 -0.000767177)
(-0.0477028 0.0106515 -0.000820825)
(-0.0571867 0.0130349 -0.000886259)
(-0.0800418 0.0155086 -0.000950882)
(-0.118246 0.0175672 -0.000994654)
(-0.157887 0.0183501 -0.000984621)
(-0.174338 0.0170535 -0.000890296)
(-0.171385 0.0144932 -0.000743156)
(-0.160323 0.0110248 -0.000552516)
(-0.132953 0.00758046 -0.000369853)
(-0.0881985 0.00418782 -0.000198357)
(-0.0396991 0.001631 -7.50836e-05)
(-0.00929588 0.000351361 -1.5795e-05)
(-0.000783737 2.8665e-05 -1.26551e-06)
(-1.57542e-05 5.69153e-07 -2.47678e-08)
(-5.12742e-08 1.83353e-09 -7.2057e-11)
(-2.61771e-11 -1.96144e-11 3.77661e-11)
(-3.66326e-13 -2.47733e-12 3.75705e-11)
(5.183e-12 -4.48799e-12 2.45523e-11)
(6.13885e-13 -1.41373e-14 6.77782e-12)
(-9.15623e-13 -1.21806e-11 1.35815e-11)
(-6.58707e-12 -8.92667e-12 1.5325e-11)
(-1.0957e-11 -1.69413e-11 1.97392e-11)
(-7.44978e-12 -1.66999e-11 1.79494e-11)
(-1.25983e-11 -3.65854e-12 3.98601e-12)
(-9.89744e-12 -1.58063e-11 -1.54312e-12)
(-6.25572e-13 -1.27344e-11 -9.12574e-12)
(-1.93232e-12 -6.14146e-12 -1.2088e-11)
(3.33491e-12 -1.98378e-11 1.70368e-12)
(1.90158e-11 -3.09836e-11 1.61709e-11)
(2.86638e-11 -1.96341e-11 2.96674e-11)
(2.31965e-11 -6.42206e-12 4.34869e-11)
(1.88589e-11 -5.69981e-12 5.69624e-11)
(2.33427e-11 5.7801e-12 5.87772e-11)
(1.49348e-11 1.45677e-11 6.03149e-11)
(6.9353e-12 5.18615e-12 5.61951e-11)
(1.0542e-11 2.02479e-12 5.7278e-11)
(1.19989e-11 1.33958e-11 6.15145e-11)
(8.56653e-12 1.12757e-11 4.61082e-11)
(1.38163e-11 9.96016e-12 2.26166e-11)
(1.1126e-11 1.3609e-11 2.27109e-11)
(1.11641e-11 9.21642e-13 3.07475e-11)
(9.14198e-12 -8.22474e-13 1.7836e-11)
(8.05061e-12 -2.38285e-11 1.25564e-11)
(2.66774e-11 -3.33747e-11 9.42506e-12)
(3.93071e-11 -3.27771e-11 -1.27841e-11)
(3.82025e-11 -1.85165e-11 -1.2764e-11)
(2.78213e-11 -1.8278e-11 -1.69664e-11)
(3.14793e-11 -3.20216e-11 -1.64954e-11)
(4.93403e-11 -3.82079e-11 -1.7477e-11)
(6.28247e-11 -4.58396e-11 -3.41358e-11)
(7.27162e-11 -3.88357e-11 -4.47528e-11)
(8.14969e-11 -3.74614e-11 -4.08608e-11)
(78.9547 -5.35336 1.62758)
(75.3943 -3.88216 1.59777)
(69.5832 -2.93256 1.50718)
(61.9348 -2.22996 1.37856)
(52.9521 -2.29383 1.21208)
(43.2138 -3.28485 1.14184)
(33.0029 -5.09585 1.1787)
(22.8921 -8.29005 1.02626)
(15.6738 -13.9369 1.12552)
(10.0129 -18.7622 1.23487)
(12.4282 -23.6571 1.43152)
(14.7238 -21.6428 1.22469)
(12.4423 -15.3271 0.866915)
(9.34927 -8.87217 0.481544)
(6.64824 -4.93079 0.256145)
(4.86465 -2.91253 0.156857)
(3.66516 -1.91013 0.113859)
(2.82036 -1.33932 0.0851465)
(2.1465 -0.985618 0.0668951)
(1.61469 -0.738453 0.05183)
(1.24813 -0.568182 0.0401774)
(1.01665 -0.455009 0.0312539)
(0.866387 -0.372424 0.0242494)
(0.773213 -0.31209 0.0190163)
(0.693487 -0.265965 0.0150562)
(0.615204 -0.227511 0.011777)
(0.546939 -0.195702 0.00904943)
(0.498963 -0.170194 0.00678336)
(0.47629 -0.147759 0.00483245)
(0.466254 -0.12717 0.00322242)
(0.449262 -0.106832 0.00176778)
(0.413606 -0.0852543 0.000364382)
(0.368441 -0.0635974 -0.000902789)
(0.301219 -0.0443358 -0.00190727)
(0.208038 -0.0274531 -0.00259907)
(0.101689 -0.0149949 -0.00294637)
(0.0155262 -0.00816781 -0.0029554)
(-0.021107 -0.00910968 -0.00276413)
(-0.0267874 -0.014364 -0.00234809)
(-0.0230993 -0.0207033 -0.00189907)
(-0.00598974 -0.0284018 -0.00137991)
(0.0273825 -0.0366108 -0.000850223)
(0.074078 -0.0444907 -0.00033714)
(0.128499 -0.0506616 0.000127798)
(0.186347 -0.0541102 0.000474267)
(0.241825 -0.0550228 0.000695522)
(0.281623 -0.0529163 0.000756582)
(0.294583 -0.0464015 0.000630775)
(0.285395 -0.0378182 0.000425199)
(0.261789 -0.0275296 0.000157834)
(0.208163 -0.0176551 -0.000110497)
(0.12095 -0.00802198 -0.00036523)
(0.0252331 -0.000604514 -0.00054029)
(-0.0326939 0.00337375 -0.000655007)
(-0.0458177 0.0051124 -0.000684087)
(-0.0460494 0.00636928 -0.000703247)
(-0.0459731 0.0082367 -0.000744211)
(-0.0487611 0.0102119 -0.000797225)
(-0.0585399 0.0125821 -0.000867063)
(-0.0815119 0.0151406 -0.000941814)
(-0.119387 0.0173241 -0.00099735)
(-0.158221 0.0186367 -0.00101395)
(-0.173708 0.0176085 -0.000928196)
(-0.17038 0.0151619 -0.000786753)
(-0.159013 0.0117937 -0.000599613)
(-0.131415 0.00831978 -0.000412602)
(-0.0868108 0.00475317 -0.000228963)
(-0.0388581 0.00192412 -8.99118e-05)
(-0.00902622 0.000430702 -1.95828e-05)
(-0.000752506 3.63222e-05 -1.61518e-06)
(-1.49105e-05 7.40452e-07 -3.23227e-08)
(-4.7706e-08 2.43186e-09 -9.82392e-11)
(-2.79256e-11 -1.61626e-11 2.57071e-11)
(-2.46829e-12 -9.54051e-12 3.01405e-11)
(4.64197e-12 -2.38523e-12 2.1912e-11)
(2.51949e-12 -2.59069e-12 6.78328e-12)
(2.42998e-13 -7.52059e-12 9.0923e-12)
(-7.3969e-12 -6.70434e-12 1.19381e-11)
(-1.02597e-11 -1.29673e-11 1.57898e-11)
(-9.14753e-12 -1.33968e-11 1.47206e-11)
(-1.29412e-11 -1.12598e-11 4.2183e-12)
(-8.50749e-12 -1.89867e-11 -1.47333e-12)
(-3.21636e-12 -1.56458e-11 -8.85582e-12)
(-1.83519e-12 -1.35029e-11 -7.26557e-12)
(4.24667e-12 -2.12918e-11 2.06489e-12)
(1.79442e-11 -2.39264e-11 1.37565e-11)
(2.75005e-11 -1.21429e-11 2.49911e-11)
(2.45355e-11 -2.4983e-13 3.77973e-11)
(2.12893e-11 -1.08818e-12 5.19602e-11)
(2.19024e-11 1.48652e-12 5.02647e-11)
(1.71204e-11 7.62951e-12 5.10985e-11)
(1.09919e-11 3.41858e-12 4.74127e-11)
(6.66783e-12 3.45253e-12 4.87208e-11)
(5.83402e-12 8.30143e-12 5.02976e-11)
(7.87578e-12 8.39963e-12 3.99329e-11)
(1.30552e-11 5.00947e-12 2.68745e-11)
(1.13366e-11 6.52892e-12 2.30051e-11)
(1.23044e-11 -2.60107e-12 2.40445e-11)
(9.62391e-12 -8.3463e-12 1.33948e-11)
(9.84686e-12 -2.30981e-11 4.67228e-12)
(2.73039e-11 -2.78165e-11 1.20889e-12)
(3.92621e-11 -2.68611e-11 -9.30003e-12)
(3.56863e-11 -1.12356e-11 -1.08182e-11)
(2.83997e-11 -1.29639e-11 -1.31168e-11)
(3.17633e-11 -2.07652e-11 -1.55265e-11)
(4.8262e-11 -2.67025e-11 -1.75057e-11)
(6.13895e-11 -3.77375e-11 -2.82567e-11)
(7.12746e-11 -3.64526e-11 -3.72225e-11)
(8.24078e-11 -3.90392e-11 -3.43513e-11)
(68.0768 5.03119 3.65179)
(67.3567 5.0074 3.28246)
(66.2171 4.72428 3.36032)
(64.9226 3.90721 3.53628)
(63.5753 3.74169 3.35709)
(61.9262 3.67691 3.07256)
(60.5373 2.79201 2.85731)
(59.6311 1.53314 2.66644)
(60.1346 -0.16084 2.42507)
(61.8155 -1.17076 1.80501)
(63.4529 -2.17461 1.12814)
(65.2653 -2.68247 0.842861)
(66.7497 -3.18279 0.493137)
(67.7767 -3.82804 0.259095)
(68.3902 -4.17275 0.139873)
(68.6619 -4.16969 -0.0624908)
(68.4877 -4.04272 -0.17999)
(67.4139 -3.993 0.0525043)
(65.1696 -4.36255 -0.0929369)
(62.3981 -4.90065 -0.134938)
(59.5167 -5.30646 -0.187157)
(56.3865 -5.22602 -0.0171036)
(52.5377 -5.66799 0.210979)
(48.9087 -6.42333 0.457271)
(45.9419 -6.84912 0.469104)
(43.7499 -7.28652 0.703622)
(42.0809 -7.35675 0.724406)
(40.9802 -7.09226 0.716182)
(40.3146 -6.66838 0.679742)
(39.7641 -6.10244 0.726143)
(39.0642 -5.69948 0.681052)
(38.1697 -5.32933 0.856707)
(36.9297 -4.50926 1.01613)
(34.7709 -4.11832 1.00733)
(31.7413 -3.96562 1.06673)
(27.9076 -4.52579 1.04723)
(23.545 -5.54203 1.06002)
(18.984 -7.01334 1.07986)
(14.5348 -8.69536 1.07151)
(10.2684 -10.0407 1.08595)
(6.06609 -11.5715 1.00655)
(4.49166 -14.979 1.01341)
(2.90679 -17.2511 1.03812)
(4.73368 -20.307 1.15576)
(8.46493 -18.7682 1.0622)
(9.49633 -13.8102 0.77015)
(8.4346 -8.46636 0.45599)
(6.35258 -4.93657 0.256014)
(4.72827 -2.98079 0.157379)
(3.56077 -1.96342 0.113643)
(2.73467 -1.36903 0.0847485)
(2.08068 -1.0014 0.0661181)
(1.57111 -0.748775 0.0511643)
(1.22252 -0.576103 0.0397873)
(0.999971 -0.461134 0.0311255)
(0.855263 -0.377359 0.0242668)
(0.763827 -0.316671 0.0191852)
(0.685134 -0.270013 0.0153148)
(0.608197 -0.230929 0.0120957)
(0.541205 -0.198579 0.00941442)
(0.493758 -0.172775 0.00721743)
(0.47037 -0.150936 0.00535929)
(0.459118 -0.131179 0.0038241)
(0.44119 -0.111553 0.00242049)
(0.405333 -0.0901206 0.00101491)
(0.360346 -0.0685656 -0.000269305)
(0.29347 -0.0485789 -0.00133967)
(0.201601 -0.0299886 -0.00213562)
(0.0977315 -0.0155379 -0.00261224)
(0.0150426 -0.00759933 -0.00277679)
(-0.0187079 -0.00776464 -0.00260406)
(-0.0240533 -0.0125969 -0.00225482)
(-0.019767 -0.0185036 -0.00186032)
(-0.00213355 -0.0260798 -0.00138212)
(0.0314477 -0.0344334 -0.000875063)
(0.0777275 -0.042699 -0.00037538)
(0.131173 -0.049554 9.1633e-05)
(0.187857 -0.0542434 0.000485273)
(0.241862 -0.0562373 0.000749282)
(0.279831 -0.0549003 0.000836488)
(0.291514 -0.0488601 0.000726832)
(0.281783 -0.0406234 0.000532662)
(0.257727 -0.0306531 0.000273181)
(0.203769 -0.0205049 -9.34517e-06)
(0.116981 -0.0100216 -0.000297679)
(0.0226834 -0.00153954 -0.000517114)
(-0.033734 0.00306809 -0.000642673)
(-0.0464604 0.00491444 -0.000677243)
(-0.0467536 0.00614671 -0.000696211)
(-0.0468753 0.00786121 -0.000733738)
(-0.0498402 0.00967426 -0.000783502)
(-0.0597962 0.0119397 -0.000853288)
(-0.0828075 0.0145986 -0.000937352)
(-0.120376 0.017368 -0.00101578)
(-0.158313 0.0192006 -0.00104711)
(-0.172928 0.0184306 -0.000973953)
(-0.169292 0.0161779 -0.000840355)
(-0.157681 0.0129857 -0.000658764)
(-0.129853 0.00945961 -0.000466037)
(-0.0853336 0.00558313 -0.000265786)
(-0.0378975 0.00231782 -0.000106616)
(-0.00869765 0.000525761 -2.3497e-05)
(-0.000712781 4.43594e-05 -1.94014e-06)
(-1.38142e-05 8.94989e-07 -3.84871e-08)
(-4.30453e-08 2.88486e-09 -1.15537e-10)
(-2.32868e-11 -8.30654e-12 1.69436e-11)
(-3.68921e-12 -2.77417e-12 2.20181e-11)
(2.56025e-12 -7.29037e-13 2.17052e-11)
(2.93443e-12 1.03162e-12 1.08214e-11)
(-7.42145e-13 -2.28724e-12 8.3242e-12)
(-5.49995e-12 -4.73367e-13 7.96488e-12)
(-8.40108e-12 -8.67226e-12 1.03969e-11)
(-8.75778e-12 -7.45359e-12 8.05794e-12)
(-1.26159e-11 -1.11739e-11 2.34509e-12)
(-9.57267e-12 -1.22101e-11 -2.86021e-12)
(-3.69363e-12 -1.16006e-11 -7.5008e-12)
(-9.44362e-13 -1.20044e-11 -4.8863e-12)
(5.20474e-12 -1.77058e-11 7.21192e-13)
(1.43181e-11 -1.76666e-11 7.69736e-12)
(2.28927e-11 -1.10623e-11 1.84658e-11)
(2.43502e-11 4.5344e-13 2.83988e-11)
(2.44534e-11 5.10442e-13 3.75662e-11)
(2.26998e-11 -3.12158e-12 3.80623e-11)
(1.71371e-11 3.49746e-12 3.82192e-11)
(9.12728e-12 3.65954e-12 3.53498e-11)
(6.11112e-12 8.06159e-12 3.54867e-11)
(5.94922e-12 4.4267e-12 3.67637e-11)
(6.54627e-12 1.33957e-12 3.15606e-11)
(1.1699e-11 -1.75125e-12 2.47639e-11)
(1.30791e-11 -1.75268e-12 1.94293e-11)
(1.4865e-11 -8.75353e-12 1.55361e-11)
(1.12759e-11 -1.34439e-11 5.66877e-12)
(1.26473e-11 -2.17834e-11 -6.03712e-12)
(2.47596e-11 -2.70955e-11 -7.19212e-12)
(3.27627e-11 -1.90182e-11 -9.98432e-12)
(2.97928e-11 -6.29182e-12 -8.48389e-12)
(2.63596e-11 -6.27466e-12 -8.70436e-12)
(3.0957e-11 -9.25235e-12 -1.29376e-11)
(4.79721e-11 -1.32698e-11 -1.4008e-11)
(5.99602e-11 -2.37786e-11 -2.81015e-11)
(7.33041e-11 -2.55941e-11 -3.24799e-11)
(8.1801e-11 -3.20015e-11 -2.57747e-11)
(42.2257 3.13121 -1.07504)
(38.0544 3.62051 0.595556)
(34.9659 3.70367 1.79413)
(32.7324 3.73379 2.46847)
(30.9494 3.39734 3.08521)
(29.5443 2.84807 3.32432)
(28.5942 2.42324 3.59046)
(27.8493 1.74274 3.54827)
(27.2755 0.91058 3.39966)
(27.0642 0.319682 3.19796)
(27.5026 -0.32116 2.94199)
(28.473 -0.937462 2.46483)
(29.4799 -1.98924 2.0396)
(30.7142 -2.79817 1.72559)
(31.7551 -3.41069 1.3982)
(32.4376 -3.95709 0.991997)
(32.8476 -4.36586 0.767592)
(32.9333 -4.60639 0.520688)
(32.7349 -4.66007 0.400581)
(32.1352 -4.51509 0.541031)
(31.0012 -4.60656 0.330827)
(29.3432 -5.00795 0.221244)
(27.6836 -5.46488 0.139798)
(26.0769 -5.56205 0.186959)
(24.1666 -5.52289 0.216469)
(22.3971 -5.9469 0.282031)
(21.0416 -6.40796 0.337647)
(19.9848 -6.63829 0.543698)
(19.1525 -6.94143 0.528825)
(18.4958 -7.18335 0.56858)
(17.991 -7.41505 0.507371)
(17.49 -7.50682 0.635461)
(16.8632 -7.48052 0.556768)
(16.1448 -7.36545 0.709974)
(15.1419 -7.12883 0.775236)
(13.7179 -7.10025 0.810557)
(11.9581 -7.27973 0.845729)
(10.0263 -7.84258 0.861387)
(7.95519 -8.4152 0.903863)
(5.93119 -9.16335 0.991654)
(4.03536 -10.1177 1.01304)
(2.82478 -11.4064 1.00445)
(1.23597 -11.9482 0.939283)
(0.864199 -13.5068 0.954282)
(0.698018 -14.862 0.902538)
(2.34908 -16.4767 0.94867)
(5.45454 -15.2468 0.856713)
(7.21753 -11.7738 0.633892)
(7.20061 -7.79973 0.407824)
(5.80053 -4.87231 0.248439)
(4.47135 -3.0334 0.157784)
(3.39422 -2.01822 0.113592)
(2.60931 -1.40661 0.0847678)
(1.98161 -1.02711 0.0657974)
(1.50001 -0.764013 0.0507074)
(1.17564 -0.586878 0.0395015)
(0.966531 -0.469755 0.0310904)
(0.831473 -0.384599 0.0243997)
(0.744757 -0.32347 0.0194882)
(0.669032 -0.275949 0.0157066)
(0.594752 -0.235887 0.0125447)
(0.53005 -0.202849 0.00990749)
(0.484252 -0.176626 0.0077513)
(0.461539 -0.154621 0.00593809)
(0.449819 -0.135045 0.00445414)
(0.431343 -0.115537 0.00309748)
(0.395815 -0.0939642 0.00167987)
(0.351469 -0.0724031 0.000340039)
(0.285321 -0.0519492 -0.000828894)
(0.194782 -0.0324755 -0.00172903)
(0.0931155 -0.0164106 -0.00230281)
(0.0139326 -0.00720784 -0.00252449)
(-0.0166399 -0.00713914 -0.00239517)
(-0.0215573 -0.0116938 -0.00208726)
(-0.01672 -0.0173496 -0.00173686)
(0.00140262 -0.0249067 -0.00129963)
(0.035132 -0.0334911 -0.000821377)
(0.0809242 -0.0422044 -0.000328997)
(0.133326 -0.0497983 0.000128929)
(0.188653 -0.055222 0.000530575)
(0.241317 -0.0577427 0.000809242)
(0.277404 -0.0567977 0.000909674)
(0.287821 -0.0509635 0.000805204)
(0.277643 -0.0428814 0.000613498)
(0.253208 -0.0330417 0.000351425)
(0.198938 -0.0225676 5.12957e-05)
(0.112536 -0.0114074 -0.000263177)
(0.0197552 -0.00217108 -0.000507307)
(-0.0349307 0.00287708 -0.000641451)
(-0.0471151 0.00483182 -0.000680675)
(-0.0474316 0.00609283 -0.000701328)
(-0.0477092 0.00769978 -0.00073776)
(-0.0507948 0.00944184 -0.000787329)
(-0.0608885 0.0116946 -0.000859813)
(-0.0839626 0.0145369 -0.000953542)
(-0.121328 0.0176768 -0.00104555)
(-0.158293 0.019853 -0.00108483)
(-0.171945 0.0191789 -0.00101449)
(-0.168018 0.0170457 -0.000885529)
(-0.156183 0.0139352 -0.000705607)
(-0.128133 0.0103142 -0.000505901)
(-0.0836847 0.00617908 -0.000292181)
(-0.0367931 0.00259296 -0.000118338)
(-0.00831053 0.000589862 -2.61572e-05)
(-0.000665543 4.9365e-05 -2.14358e-06)
(-1.25181e-05 9.77244e-07 -4.17352e-08)
(-3.76351e-08 3.06327e-09 -1.25637e-10)
(-2.44052e-11 -2.8272e-12 6.99313e-12)
(-3.84986e-12 1.82929e-12 6.94866e-12)
(1.62895e-12 2.37532e-12 1.17179e-11)
(3.33838e-12 7.03563e-12 8.03836e-12)
(9.63236e-13 3.98778e-12 4.2874e-12)
(-4.01242e-12 2.98075e-12 -4.43546e-13)
(-7.26258e-12 -3.36173e-12 1.33583e-12)
(-9.46338e-12 -2.13658e-12 4.31053e-13)
(-1.20612e-11 -4.34598e-12 -5.08708e-13)
(-9.78222e-12 -2.92712e-12 -5.8651e-12)
(-4.04687e-12 -1.84079e-12 -1.02459e-11)
(-5.79609e-13 -2.85243e-12 -6.52757e-12)
(6.30657e-12 -8.98204e-12 -1.13153e-12)
(1.47118e-11 -4.58455e-12 3.9332e-12)
(2.14481e-11 -1.47251e-12 1.44513e-11)
(2.33064e-11 7.60811e-12 2.3215e-11)
(2.51045e-11 7.69616e-12 2.86085e-11)
(2.31421e-11 3.50138e-12 2.97563e-11)
(1.71161e-11 1.10548e-11 2.8644e-11)
(8.31317e-12 1.4364e-11 2.77818e-11)
(5.5025e-12 1.52999e-11 2.48537e-11)
(6.74225e-12 1.38517e-11 2.69569e-11)
(8.2343e-12 7.19214e-12 2.30139e-11)
(1.18379e-11 -4.67534e-13 1.71119e-11)
(1.10203e-11 -2.40677e-12 1.26255e-11)
(1.50958e-11 -4.22161e-12 7.43599e-12)
(1.22179e-11 -1.05505e-11 -3.32987e-13)
(1.40516e-11 -1.331e-11 -1.15726e-11)
(2.31783e-11 -1.57837e-11 -1.00769e-11)
(2.75562e-11 -8.15937e-12 -7.16017e-12)
(2.78964e-11 1.79662e-12 -5.63865e-12)
(2.5175e-11 3.92703e-12 -5.71402e-12)
(2.95461e-11 -1.23471e-13 -7.33552e-12)
(4.50839e-11 -6.03863e-13 -9.55246e-12)
(5.81978e-11 -1.11235e-11 -1.85274e-11)
(7.25356e-11 -1.63776e-11 -2.53088e-11)
(8.63019e-11 -1.91149e-11 -2.5172e-11)
(33.1102 -2.35942 -3.78304)
(27.5729 -0.565882 -3.33778)
(22.9474 0.721347 -2.69697)
(19.2252 1.5714 -1.91018)
(16.3294 2.05674 -1.05528)
(14.0712 2.06177 -0.0849248)
(12.3729 1.66979 0.751115)
(11.3658 1.33986 1.55339)
(10.7667 1.10165 2.12582)
(10.3874 0.903093 2.28914)
(10.3866 0.71212 2.26844)
(10.6434 0.639097 2.16254)
(11.0988 0.516588 1.90142)
(11.6883 0.0395827 1.6489)
(12.41 -0.38777 1.4806)
(13.0072 -0.962194 1.26177)
(13.4248 -1.67981 0.969069)
(13.6486 -2.54027 0.811168)
(13.6147 -3.47252 0.701522)
(13.3387 -4.30711 0.706796)
(12.8732 -4.8215 0.780111)
(12.4365 -5.30463 0.610939)
(11.6917 -5.73777 0.543038)
(10.8514 -6.13583 0.500467)
(10.0734 -6.42856 0.459759)
(9.23438 -6.48302 0.384965)
(8.51194 -6.64314 0.396557)
(7.98227 -6.69772 0.408634)
(7.5474 -6.65246 0.519714)
(7.21242 -6.66594 0.466909)
(6.9486 -6.59576 0.526471)
(6.68451 -6.58926 0.471799)
(6.40998 -6.59721 0.583574)
(6.04524 -6.64751 0.55681)
(5.63564 -6.79537 0.61548)
(5.04772 -6.91045 0.67076)
(4.31344 -7.19766 0.691152)
(3.45068 -7.54168 0.720627)
(2.64524 -8.13251 0.758175)
(1.8481 -8.76695 0.814242)
(1.24737 -9.51192 0.878604)
(0.584759 -10.0268 0.89754)
(0.412863 -10.6929 0.888043)
(-0.0627967 -11.091 0.830809)
(-0.0389152 -11.9184 0.82962)
(0.287367 -12.8317 0.734646)
(1.89956 -13.6137 0.729055)
(4.2154 -12.4906 0.649554)
(5.64641 -9.97017 0.506774)
(5.92259 -7.04529 0.354525)
(5.09015 -4.66539 0.233038)
(4.0949 -3.03022 0.155406)
(3.16076 -2.05613 0.1128)
(2.44471 -1.43006 0.0839714)
(1.85455 -1.04122 0.0649648)
(1.40815 -0.772622 0.0500916)
(1.11229 -0.594103 0.0391519)
(0.91984 -0.476333 0.0310484)
(0.797797 -0.390879 0.0245891)
(0.718231 -0.329822 0.0198634)
(0.647236 -0.281848 0.016165)
(0.577018 -0.241179 0.013044)
(0.515949 -0.207686 0.0104316)
(0.473154 -0.181247 0.0082951)
(0.452157 -0.159351 0.00651086)
(0.440426 -0.139852 0.00503971)
(0.421461 -0.120327 0.00365974)
(0.386363 -0.0983489 0.002193)
(0.342356 -0.0763753 0.000808007)
(0.276409 -0.0549017 -0.000455252)
(0.186785 -0.0341252 -0.00146541)
(0.0873456 -0.0168819 -0.00213214)
(0.0120304 -0.00694259 -0.00241763)
(-0.0153506 -0.00646701 -0.00235074)
(-0.0198535 -0.0106899 -0.00209901)
(-0.0144192 -0.0161969 -0.00177849)
(0.00440357 -0.0238904 -0.00134877)
(0.0385144 -0.0328888 -0.000859476)
(0.0840452 -0.0422139 -0.000344743)
(0.135725 -0.0504047 0.000130913)
(0.190102 -0.0564394 0.000553185)
(0.241493 -0.0597457 0.000861802)
(0.275538 -0.0592841 0.000981979)
(0.284652 -0.0536951 0.000886587)
(0.274044 -0.0456809 0.000696525)
(0.249007 -0.0358144 0.000427872)
(0.194036 -0.0248051 0.000105127)
(0.107727 -0.0127981 -0.000238724)
(0.0165176 -0.00273173 -0.000507904)
(-0.0361844 0.00275643 -0.000650579)
(-0.0476678 0.00480966 -0.000692747)
(-0.0479683 0.00605962 -0.000712393)
(-0.0483411 0.00755118 -0.000745801)
(-0.0515497 0.0092454 -0.000794932)
(-0.0618691 0.0115649 -0.00087193)
(-0.0851971 0.0146435 -0.000975838)
(-0.122563 0.0181278 -0.00108031)
(-0.158588 0.0206431 -0.00113081)
(-0.171209 0.0201709 -0.001068)
(-0.166999 0.0181508 -0.000941727)
(-0.154854 0.0150744 -0.000760281)
(-0.12641 0.0112795 -0.000549734)
(-0.0818894 0.00680856 -0.00031937)
(-0.0355341 0.00286162 -0.000129497)
(-0.00786269 0.000645592 -2.84036e-05)
(-0.000611353 5.29151e-05 -2.28159e-06)
(-1.10669e-05 1.01394e-06 -4.30141e-08)
(-3.17874e-08 3.04878e-09 -1.24367e-10)
(-2.06593e-11 4.49765e-12 2.11701e-12)
(-6.66258e-12 1.80746e-12 -7.59079e-12)
(-2.47089e-12 6.12288e-12 2.85148e-13)
(3.03297e-12 1.31096e-11 2.21881e-12)
(3.04054e-12 6.72176e-12 -2.82073e-12)
(-1.86715e-12 2.47329e-12 -7.7686e-12)
(-8.22636e-12 1.37438e-12 -6.13337e-12)
(-1.0119e-11 4.98561e-12 -2.61302e-12)
(-1.13343e-11 6.80686e-13 -1.60312e-12)
(-1.13542e-11 1.59152e-12 -8.69733e-12)
(-4.71479e-12 4.14731e-12 -1.58551e-11)
(1.84875e-12 2.24381e-12 -1.2121e-11)
(8.066e-12 -5.7118e-12 -6.14898e-12)
(1.3145e-11 2.53501e-12 7.23651e-13)
(2.03524e-11 5.73461e-12 1.16687e-11)
(2.29425e-11 9.01265e-12 2.04033e-11)
(2.78996e-11 6.06067e-12 2.38159e-11)
(2.24953e-11 4.01679e-12 2.37112e-11)
(1.43951e-11 1.4602e-11 2.28358e-11)
(8.18552e-12 1.61194e-11 2.06475e-11)
(6.46425e-12 2.08394e-11 1.92426e-11)
(8.21126e-12 1.36665e-11 1.80995e-11)
(1.07031e-11 5.24988e-12 1.49081e-11)
(1.40045e-11 -1.08986e-12 9.85447e-12)
(1.1404e-11 -2.19408e-12 5.33114e-12)
(1.49708e-11 -3.08461e-12 2.69462e-12)
(1.44339e-11 -5.51864e-12 -2.69089e-12)
(1.40832e-11 -9.05311e-12 -7.65655e-12)
(2.16002e-11 -5.33306e-12 -7.67448e-12)
(2.26489e-11 1.11241e-12 -5.45126e-12)
(2.45749e-11 3.07479e-12 -1.62187e-12)
(2.5206e-11 6.32918e-12 -1.06134e-12)
(2.98932e-11 5.53632e-12 -9.92923e-13)
(4.31591e-11 7.54179e-12 -9.34227e-12)
(6.14021e-11 1.00376e-12 -1.10851e-11)
(7.44858e-11 -5.36362e-12 -2.10684e-11)
(8.85748e-11 -1.12152e-11 -2.2231e-11)
(23.9129 -5.45404 -4.19527)
(19.1496 -3.31354 -3.82698)
(15.0688 -1.73269 -3.2978)
(11.672 -0.615289 -2.69788)
(8.9637 0.102202 -2.00589)
(6.82301 0.42047 -1.36229)
(5.23192 0.326439 -0.741977)
(4.24996 0.183535 -0.194444)
(3.70742 -0.0601043 0.361988)
(3.39081 -0.124939 0.686135)
(3.34823 -0.120723 0.853932)
(3.4641 -0.0467183 0.903596)
(3.64367 0.0299906 0.858603)
(3.91043 -0.0874075 0.782827)
(4.25054 -0.106972 0.751357)
(4.54448 -0.227339 0.699913)
(4.74677 -0.473093 0.580334)
(4.86644 -0.862956 0.514133)
(4.78678 -1.47937 0.51683)
(4.48133 -2.2603 0.583562)
(3.98683 -3.06769 0.649138)
(3.64186 -3.91482 0.588272)
(3.29003 -4.67029 0.589618)
(2.79616 -5.30095 0.589073)
(2.39691 -5.88582 0.539699)
(2.06556 -6.32022 0.452656)
(1.81546 -6.61939 0.493468)
(1.68205 -6.77331 0.450117)
(1.56094 -6.74617 0.515689)
(1.49313 -6.69031 0.478925)
(1.43596 -6.59432 0.519388)
(1.3423 -6.49466 0.507357)
(1.23241 -6.39661 0.565316)
(1.08438 -6.35146 0.581278)
(0.90755 -6.41529 0.591682)
(0.658049 -6.5832 0.632509)
(0.355839 -6.9456 0.646743)
(0.0268498 -7.46636 0.668799)
(-0.222513 -8.08097 0.705528)
(-0.404594 -8.60598 0.755471)
(-0.424973 -9.09331 0.778574)
(-0.48795 -9.51954 0.798562)
(-0.39967 -9.90108 0.793328)
(-0.0272945 -10.0637 0.741769)
(0.324267 -10.5331 0.708225)
(0.837894 -11.081 0.651953)
(2.18031 -11.448 0.641949)
(3.78077 -10.405 0.561595)
(4.6648 -8.44277 0.428504)
(4.86759 -6.24379 0.307877)
(4.35355 -4.36764 0.215076)
(3.6435 -2.97257 0.151418)
(2.87929 -2.06901 0.111799)
(2.25529 -1.45204 0.0836222)
(1.71383 -1.05695 0.0645682)
(1.30809 -0.781648 0.0497701)
(1.04235 -0.601864 0.0390175)
(0.868054 -0.483098 0.0311)
(0.760267 -0.397526 0.0248251)
(0.688824 -0.336532 0.0202447)
(0.623359 -0.287997 0.0165934)
(0.557893 -0.246634 0.0134917)
(0.501054 -0.212541 0.0108915)
(0.461621 -0.185673 0.00875165)
(0.442425 -0.163684 0.00697682)
(0.43069 -0.144204 0.00551319)
(0.411061 -0.12448 0.0041389)
(0.376493 -0.102139 0.00267643)
(0.332582 -0.0799722 0.00127098)
(0.266555 -0.0577472 -5.36311e-05)
(0.177604 -0.0358138 -0.00113514)
(0.080564 -0.0174243 -0.00186663)
(0.00963894 -0.006933 -0.00219354)
(-0.0142645 -0.00632845 -0.00215581)
(-0.0182594 -0.010381 -0.00195825)
(-0.0120851 -0.0158974 -0.00167463)
(0.00757858 -0.0238043 -0.00126796)
(0.0421984 -0.0332079 -0.000787323)
(0.0875963 -0.0430252 -0.000273846)
(0.138595 -0.0517086 0.000203552)
(0.191944 -0.058234 0.00063064)
(0.241862 -0.0619873 0.000942683)
(0.273638 -0.0616423 0.00106284)
(0.28135 -0.0561037 0.000966075)
(0.270326 -0.048066 0.000771518)
(0.244524 -0.0381643 0.00049388)
(0.188678 -0.0266475 0.000149124)
(0.102391 -0.0138814 -0.000220744)
(0.0129403 -0.00307707 -0.000510668)
(-0.0374901 0.0027974 -0.000662207)
(-0.0481525 0.00494873 -0.000707229)
(-0.0484208 0.0062118 -0.00072743)
(-0.0489098 0.00762915 -0.000760153)
(-0.0522942 0.00930271 -0.000810565)
(-0.0629379 0.0116783 -0.000892423)
(-0.0866693 0.0149424 -0.00100586)
(-0.124078 0.0187552 -0.0011226)
(-0.158948 0.0215318 -0.00118015)
(-0.170424 0.021116 -0.0011177)
(-0.165925 0.019158 -0.000992594)
(-0.153413 0.0160913 -0.00080875)
(-0.124494 0.0121234 -0.000587711)
(-0.0798554 0.00734515 -0.000342333)
(-0.0340963 0.00307803 -0.000138391)
(-0.00735504 0.000684413 -2.99365e-05)
(-0.000551372 5.44916e-05 -2.33721e-06)
(-9.51997e-06 1.00055e-06 -4.22176e-08)
(-2.58469e-08 2.85904e-09 -1.18897e-10)
(-1.68689e-11 1.97781e-12 -2.02804e-12)
(-7.8138e-12 2.95632e-12 -1.33879e-11)
(-5.99397e-12 9.49786e-12 -6.47765e-12)
(2.69046e-12 1.04113e-11 -4.37533e-12)
(4.69085e-12 1.55294e-11 -7.54015e-12)
(-9.02202e-13 9.70841e-12 -1.04046e-11)
(-9.17855e-12 1.02577e-11 -9.64286e-12)
(-8.3508e-12 8.18818e-12 -3.9883e-12)
(-1.01989e-11 2.97572e-12 6.73036e-13)
(-1.16563e-11 4.41786e-13 -1.19444e-11)
(-3.921e-12 1.33483e-12 -2.10722e-11)
(4.57007e-12 -2.52272e-12 -1.84384e-11)
(8.59501e-12 -6.07533e-12 -1.09183e-11)
(1.13784e-11 -8.95872e-13 -3.04625e-13)
(2.10338e-11 3.16211e-12 9.80413e-12)
(2.44795e-11 5.08298e-12 1.9622e-11)