/*--------------------------------*- C++ -*----------------------------------*\
| =========                 |                                                 |
| \\      /  F ield         | OpenFOAM: The Open Source CFD Toolbox           |
|  \\    /   O peration     | Version:  2406                                  |
|   \\  /    A nd           | Website:  www.openfoam.com                      |
|    \\/     M anipulation  |                                                 |
\*---------------------------------------------------------------------------*/
FoamFile
{
    version     2.0;
    format      ascii;
    arch        "LSB;label=32;scalar=64";
    class       volScalarField;
    location    "0.045";
    object      Ma;
}
// * * * * * * * * * * * * * * * * * * * * * * * * * * * * * * * * * * * * * //

dimensions      [0 0 0 0 0 0 0];

internalField   nonuniform List<scalar> 
13948
(
9.50042e-14
1.05242e-13
1.22593e-13
1.05355e-13
1.01522e-13
6.52939e-14
7.82816e-14
7.01158e-14
1.07708e-13
1.14832e-13
1.28755e-13
1.45566e-13
1.44682e-13
1.47532e-13
1.43203e-13
1.41018e-13
1.45463e-13
1.23923e-13
1.03104e-13
1.20122e-13
1.2332e-13
1.23389e-13
1.04365e-13
8.11631e-14
8.31149e-14
4.93847e-14
5.85329e-14
7.87712e-14
9.90017e-14
8.28472e-14
9.0274e-14
1.04119e-13
1.06277e-13
9.67038e-14
8.10166e-14
6.2855e-14
8.13241e-14
9.87139e-14
8.93834e-14
7.71959e-14
1.04475e-13
1.11568e-13
1.03196e-13
1.18612e-13
1.05398e-13
7.67758e-14
7.00001e-14
6.81045e-14
1.0659e-13
6.96586e-14
5.96738e-14
6.89378e-14
6.62475e-14
5.62453e-14
4.64571e-14
6.05692e-14
7.91961e-14
8.84046e-14
9.51992e-14
1.14046e-13
9.27656e-14
1.22095e-13
8.08627e-14
1.18186e-13
9.79383e-14
7.54426e-14
5.7531e-14
2.00671e-14
1.96447e-14
4.53304e-14
4.44397e-14
3.46466e-14
7.56249e-14
8.37075e-14
1.03916e-13
1.09149e-13
1.19104e-13
1.11801e-13
9.91688e-14
9.26146e-14
1.01484e-13
9.5631e-14
1.10353e-13
1.00381e-13
9.65813e-14
8.21421e-14
8.05024e-14
6.22406e-14
6.59169e-14
5.0625e-14
3.15256e-14
1.77904e-14
3.73338e-14
6.52912e-14
8.21015e-14
6.6414e-14
1.00897e-13
1.41926e-13
1.26616e-13
5.39279e-14
8.61348e-14
1.065e-13
1.25608e-13
1.03158e-13
9.7666e-14
6.49477e-14
7.73708e-14
7.15072e-14
1.10595e-13
1.20116e-13
1.27667e-13
1.46069e-13
1.42314e-13
1.47021e-13
1.36863e-13
1.439e-13
1.47152e-13
1.25048e-13
1.05118e-13
1.22479e-13
1.27836e-13
1.20735e-13
1.07044e-13
8.43721e-14
8.20048e-14
5.2322e-14
4.67627e-14
7.86131e-14
9.68461e-14
8.30809e-14
7.16702e-14
1.02323e-13
1.07959e-13
1.02747e-13
8.67784e-14
6.17571e-14
8.67356e-14
9.77838e-14
9.34812e-14
7.24755e-14
1.09486e-13
1.13963e-13
1.09675e-13
1.22908e-13
9.64306e-14
8.13659e-14
7.71913e-14
7.22644e-14
8.04838e-14
7.36847e-14
6.27608e-14
7.17224e-14
6.96895e-14
5.64668e-14
5.15981e-14
6.43078e-14
8.38786e-14
9.13072e-14
9.52718e-14
1.01809e-13
9.11659e-14
1.00734e-13
8.2306e-14
9.41163e-14
7.841e-14
5.83899e-14
5.01895e-14
1.65258e-14
1.92875e-14
4.24872e-14
4.8326e-14
3.43369e-14
6.66403e-14
7.84774e-14
1.05103e-13
1.15775e-13
1.24451e-13
1.11803e-13
9.78167e-14
9.33739e-14
1.00659e-13
9.84023e-14
1.17578e-13
1.02518e-13
9.8406e-14
9.0057e-14
8.19824e-14
6.30952e-14
6.9871e-14
4.92756e-14
3.74161e-14
2.57494e-14
4.45129e-14
6.53964e-14
8.46201e-14
7.28263e-14
9.4677e-14
1.24781e-13
1.21703e-13
2.75873e-14
1.98275e-14
2.03669e-14
2.1094e-14
2.43874e-14
2.89228e-14
2.41243e-14
3.1157e-14
4.40104e-14
6.04601e-14
7.82468e-14
9.68078e-14
1.12131e-13
1.04956e-13
9.12907e-14
7.2519e-14
8.17299e-14
8.80875e-14
1.14373e-13
1.20994e-13
1.2615e-13
1.41325e-13
1.37666e-13
1.42005e-13
1.34165e-13
1.3842e-13
1.3565e-13
1.221e-13
1.10303e-13
1.1734e-13
1.20232e-13
1.20617e-13
1.13411e-13
8.86019e-14
8.11407e-14
5.97524e-14
5.34347e-14
7.88412e-14
7.95365e-14
8.25755e-14
7.8185e-14
1.01879e-13
9.64214e-14
9.62987e-14
8.58376e-14
6.88583e-14
7.99458e-14
8.04464e-14
8.63121e-14
8.3105e-14
1.08869e-13
1.11369e-13
1.10749e-13
1.14245e-13
1.07843e-13
9.71259e-14
8.20902e-14
7.39629e-14
8.46127e-14
7.9604e-14
7.04973e-14
7.92463e-14
7.40162e-14
7.034e-14
6.02012e-14
7.47303e-14
9.32404e-14
1.01742e-13
9.07825e-14
9.81762e-14
9.4613e-14
8.94554e-14
6.93451e-14
6.72099e-14
5.94261e-14
3.05545e-14
2.5765e-14
1.96681e-14
1.71033e-14
5.08891e-14
5.34643e-14
4.0466e-14
7.02834e-14
7.95624e-14
8.88142e-14
1.03704e-13
1.16056e-13
1.07798e-13
9.95816e-14
9.39873e-14
9.99709e-14
9.32211e-14
1.1479e-13
1.07037e-13
9.49088e-14
9.24665e-14
8.3978e-14
7.43862e-14
7.59044e-14
6.23925e-14
4.74992e-14
4.05406e-14
5.4606e-14
7.79339e-14
9.66151e-14
8.71937e-14
8.6639e-14
1.07798e-13
1.2562e-13
5.45296e-14
4.64725e-14
3.10217e-14
1.07222e-14
2.79495e-14
4.28451e-14
4.75475e-14
4.72929e-14
3.35737e-14
1.96632e-14
1.55075e-14
2.89207e-14
2.91737e-14
2.37475e-14
1.67835e-14
7.99212e-15
1.14428e-14
2.27949e-14
2.54713e-14
2.18761e-14
3.2659e-14
4.68455e-14
6.81929e-14
7.85309e-14
8.06014e-14
8.08967e-14
7.40492e-14
5.42914e-14
4.47586e-14
4.71661e-14
3.79516e-14
2.98346e-14
3.15826e-14
2.03856e-14
1.35191e-14
1.0065e-14
1.99832e-14
2.47826e-14
2.41422e-14
3.00027e-14
3.62051e-14
4.07288e-14
5.68367e-14
7.00576e-14
7.82399e-14
9.88952e-14
9.34861e-14
7.67379e-14
6.71605e-14
6.99191e-14
8.11717e-14
9.38836e-14
1.06785e-13
1.1316e-13
1.27384e-13
1.27918e-13
1.28001e-13
1.22716e-13
1.23792e-13
1.15468e-13
1.08587e-13
9.69752e-14
1.01605e-13
9.89993e-14
1.10621e-13
9.80736e-14
6.96743e-14
7.22069e-14
5.61146e-14
4.61798e-14
6.49814e-14
6.15739e-14
7.0676e-14
7.53344e-14
8.90022e-14
7.70558e-14
7.23213e-14
6.51837e-14
5.67373e-14
5.66591e-14
5.47271e-14
6.5348e-14
7.83528e-14
9.56534e-14
9.33194e-14
9.72444e-14
9.21683e-14
9.54031e-14
8.55078e-14
7.50721e-14
6.48916e-14
7.4988e-14
6.9942e-14
6.29977e-14
8.06546e-14
7.03158e-14
7.09124e-14
5.94843e-14
7.33977e-14
9.41095e-14
9.70913e-14
9.78849e-14
8.93775e-14
8.33427e-14
7.26419e-14
5.18982e-14
5.07336e-14
5.02065e-14
3.42586e-14
2.8965e-14
2.50408e-14
2.09458e-14
4.3199e-14
5.51665e-14
5.53826e-14
6.79844e-14
7.63076e-14
6.4653e-14
7.47304e-14
8.84437e-14
9.59411e-14
8.55753e-14
8.65754e-14
8.88344e-14
8.52308e-14
9.08095e-14
9.25574e-14
8.60656e-14
7.19417e-14
7.4563e-14
7.48588e-14
6.28014e-14
5.99024e-14
5.15901e-14
5.45688e-14
5.73649e-14
8.86671e-14
1.07748e-13
1.05717e-13
1.06162e-13
1.02505e-13
1.08673e-13
4.31484e-14
5.23373e-14
5.30104e-14
4.22898e-14
1.74049e-14
1.63576e-14
2.5787e-14
3.71689e-14
3.63485e-14
3.62263e-14
2.30734e-14
1.26486e-14
2.52399e-14
3.43398e-14
3.08564e-14
2.57261e-14
1.68303e-14
1.26159e-14
4.61642e-15
1.19134e-14
1.32849e-14
1.33428e-14
2.5074e-14
4.07796e-14
5.18615e-14
6.83502e-14
8.12322e-14
7.7824e-14
6.41188e-14
4.64809e-14
3.73885e-14
3.60205e-14
2.67161e-14
1.684e-14
1.45698e-14
1.98148e-14
2.26676e-14
1.99088e-14
2.14802e-14
2.26685e-14
2.41348e-14
2.92102e-14
3.7991e-14
4.94245e-14
6.93034e-14
8.50402e-14
7.2047e-14
9.00391e-14
8.43991e-14
7.08519e-14
6.76803e-14
6.39773e-14
7.47322e-14
8.20583e-14
9.29541e-14
1.08184e-13
1.14545e-13
1.19019e-13
1.20385e-13
1.23304e-13
1.20582e-13
1.07422e-13
1.00732e-13
8.5417e-14
9.03542e-14
9.13778e-14
9.62608e-14
8.14294e-14
6.21533e-14
6.59499e-14
5.34449e-14
5.00976e-14
5.62395e-14
5.73199e-14
5.97853e-14
6.41459e-14
7.44734e-14
6.94273e-14
6.35128e-14
5.68505e-14
5.99864e-14
5.39117e-14
4.75486e-14
5.59329e-14
6.94202e-14
7.86108e-14
8.44355e-14
9.12024e-14
8.98261e-14
9.46116e-14
8.41777e-14
8.15165e-14
7.1674e-14
6.53239e-14
7.24023e-14
6.86336e-14
7.35401e-14
7.94386e-14
6.44369e-14
5.43812e-14
6.87421e-14
8.67446e-14
9.24034e-14
9.50994e-14
9.22825e-14
7.94695e-14
7.12146e-14
5.56891e-14
4.02487e-14
3.39276e-14
2.83432e-14
3.15009e-14
2.66281e-14
2.16971e-14
2.77113e-14
3.30172e-14
5.18851e-14
7.02119e-14
5.98923e-14
4.43306e-14
5.22526e-14
6.31323e-14
6.7183e-14
6.33365e-14
6.53433e-14
6.59005e-14
7.81172e-14
7.42742e-14
7.91523e-14
7.5847e-14
6.61797e-14
6.43431e-14
6.3512e-14
5.57923e-14
5.33287e-14
5.39117e-14
5.47603e-14
7.37361e-14
1.02727e-13
1.18834e-13
1.12977e-13
1.18201e-13
1.01521e-13
8.88236e-14
3.40413e-14
4.64647e-14
5.80311e-14
5.69518e-14
3.78936e-14
1.78097e-14
2.98445e-14
3.22546e-14
3.0218e-14
2.93728e-14
1.82291e-14
2.03482e-14
1.76123e-14
2.90281e-14
3.07556e-14
2.99442e-14
2.83949e-14
2.14884e-14
2.00698e-14
1.32227e-14
1.68032e-14
1.92715e-14
1.561e-14
2.40884e-14
3.85471e-14
4.41038e-14
5.47218e-14
6.16717e-14
5.68689e-14
5.38096e-14
4.32629e-14
3.04195e-14
1.96838e-14
2.5117e-14
1.73868e-14
1.44759e-14
2.15616e-14
2.5876e-14
2.3349e-14
1.96172e-14
2.15053e-14
2.41731e-14
2.35225e-14
3.40677e-14
5.10025e-14
7.20154e-14
8.66326e-14
6.67067e-14
7.35979e-14
7.76872e-14
7.20167e-14
7.6797e-14
6.80679e-14
6.49351e-14
7.93177e-14
8.73383e-14
1.01983e-13
9.81419e-14
1.14331e-13
1.18675e-13
1.30281e-13
1.17509e-13
1.11127e-13
9.70458e-14
8.05106e-14
8.58318e-14
9.23993e-14
9.92433e-14
8.45082e-14
6.82421e-14
6.66166e-14
5.1174e-14
5.54383e-14
5.38943e-14
4.74293e-14
4.96974e-14
5.49034e-14
6.64095e-14
6.35359e-14
5.38468e-14
5.65729e-14
6.15464e-14
5.73725e-14
3.82468e-14
5.58955e-14
5.89277e-14
6.92386e-14
7.87191e-14
8.214e-14
7.75892e-14
8.9375e-14
8.53717e-14
8.23254e-14
6.41601e-14
5.61912e-14
7.36417e-14
7.84615e-14
6.93193e-14
7.53812e-14
6.79395e-14
4.89863e-14
6.08318e-14
8.18313e-14
8.66531e-14
8.8967e-14
9.15251e-14
7.34398e-14
6.46207e-14
5.06576e-14
2.49028e-14
2.58563e-14
2.69841e-14
2.76614e-14
2.86361e-14
2.51736e-14
3.50656e-14
1.80374e-14
3.39311e-14
5.01831e-14
4.2084e-14
3.00919e-14
3.3729e-14
6.23905e-14
6.26168e-14
4.50477e-14
4.35699e-14
4.96444e-14
6.20277e-14
6.86429e-14
7.59219e-14
7.84688e-14
6.28054e-14
6.55518e-14
4.93125e-14
6.30794e-14
6.50471e-14
6.32465e-14
6.63848e-14
8.47476e-14
1.09086e-13
1.33521e-13
1.16031e-13
1.16555e-13
9.3839e-14
8.14954e-14
1.99844e-14
3.66454e-14
4.82091e-14
4.50929e-14
3.04443e-14
1.67756e-14
3.52883e-14
2.66132e-14
1.93283e-14
1.78097e-14
9.51737e-15
9.08509e-15
1.80747e-14
1.93871e-14
1.69947e-14
1.8427e-14
1.7755e-14
1.51235e-14
1.32876e-14
1.5949e-14
1.93066e-14
1.82483e-14
1.31032e-14
1.48592e-14
2.13594e-14
2.93084e-14
3.46541e-14
3.47356e-14
2.70322e-14
3.11028e-14
2.44612e-14
1.71579e-14
1.43727e-14
2.36221e-14
1.91117e-14
2.40456e-14
2.29265e-14
3.01329e-14
2.31686e-14
1.6602e-14
2.07028e-14
2.87476e-14
2.29431e-14
3.03851e-14
4.82287e-14
6.84666e-14
9.56067e-14
6.72325e-14
5.38629e-14
5.6878e-14
5.89236e-14
6.40286e-14
5.83858e-14
4.83154e-14
5.85695e-14
7.0043e-14
8.03846e-14
8.94764e-14
1.01116e-13
1.14585e-13
1.11619e-13
9.83188e-14
9.82165e-14
7.90637e-14
6.95998e-14
7.40361e-14
8.38272e-14
1.01822e-13
7.89215e-14
5.86007e-14
5.03389e-14
4.15481e-14
5.04124e-14
4.50528e-14
3.73871e-14
3.70667e-14
3.97227e-14
4.87961e-14
5.19454e-14
5.34654e-14
5.25642e-14
4.93409e-14
4.94732e-14
4.10641e-14
4.57332e-14
4.77191e-14
5.54845e-14
5.87542e-14
6.96365e-14
7.74719e-14
8.07371e-14
7.21078e-14
6.98135e-14
5.63054e-14
5.85476e-14
6.13757e-14
7.48382e-14
6.07545e-14
6.44395e-14
6.0068e-14
4.77178e-14
5.75202e-14
6.8691e-14
7.78179e-14
7.505e-14
7.42327e-14
6.38062e-14
5.55684e-14
3.88708e-14
3.33515e-14
3.40486e-14
1.90068e-14
2.01008e-14
2.42029e-14
2.80803e-14
5.25705e-14
2.39744e-14
2.15304e-14
3.00463e-14
3.70169e-14
2.76424e-14
3.08466e-14
4.27676e-14
5.25407e-14
4.35739e-14
3.8408e-14
4.76938e-14
5.17404e-14
5.74125e-14
5.68838e-14
6.26047e-14
6.16865e-14
5.90283e-14
4.88529e-14
5.23305e-14
4.42742e-14
4.49436e-14
6.42162e-14
9.19661e-14
1.23259e-13
1.44217e-13
1.2118e-13
1.10815e-13
8.53821e-14
6.39011e-14
2.40418e-14
2.89475e-14
3.55169e-14
3.51531e-14
2.51417e-14
1.1199e-14
1.78234e-14
1.99338e-14
1.95505e-14
1.52041e-14
1.30173e-14
1.35835e-14
1.70995e-14
2.1095e-14
2.40488e-14
2.54507e-14
2.38481e-14
2.15302e-14
2.10472e-14
1.84072e-14
2.1004e-14
2.02705e-14
1.94433e-14
1.43648e-14
2.41162e-14
2.78578e-14
2.89695e-14
2.76131e-14
2.17587e-14
2.40942e-14
2.21002e-14
1.74762e-14
2.79668e-14
4.17671e-14
4.62273e-14
4.03572e-14
3.03638e-14
3.07934e-14
3.56086e-14
3.35723e-14
2.58816e-14
3.39576e-14
4.76921e-14
4.47065e-14
5.71145e-14
7.38318e-14
8.85324e-14
7.66156e-14
6.15555e-14
6.07584e-14
7.10544e-14
7.05151e-14
7.24254e-14
6.40087e-14
6.02869e-14
6.92725e-14
8.157e-14
1.0567e-13
1.02929e-13
1.14303e-13
1.01112e-13
1.0177e-13
9.97138e-14
8.39953e-14
8.29796e-14
8.5732e-14
8.6294e-14
9.80876e-14
7.70957e-14
6.54448e-14
5.15334e-14
4.81857e-14
5.6376e-14
5.20365e-14
4.93956e-14
4.20608e-14
5.01749e-14
5.0064e-14
5.74748e-14
6.87513e-14
5.76114e-14
5.62659e-14
5.9879e-14
5.96741e-14
5.66854e-14
5.73344e-14
5.78037e-14
6.22794e-14
6.98327e-14
8.71678e-14
7.58555e-14
7.83941e-14
7.27712e-14
6.8619e-14
7.85556e-14
6.99489e-14
7.07831e-14
6.5566e-14
6.26696e-14
6.70734e-14
6.09419e-14
7.20206e-14
6.70693e-14
8.05498e-14
6.80902e-14
7.11919e-14
7.35228e-14
6.68055e-14
5.54353e-14
4.19154e-14
3.61919e-14
2.66714e-14
3.69638e-14
3.48001e-14
2.60525e-14
3.33474e-14
3.35993e-14
2.69232e-14
3.60429e-14
4.31354e-14
4.77733e-14
4.90627e-14
4.75083e-14
4.73354e-14
5.95206e-14
5.69091e-14
6.80872e-14
6.77084e-14
5.75639e-14
5.81802e-14
5.81427e-14
6.84384e-14
6.76311e-14
6.94549e-14
6.25783e-14
5.96116e-14
5.4559e-14
6.71296e-14
9.19275e-14
1.18611e-13
1.22827e-13
1.30562e-13
1.11433e-13
7.96194e-14
6.34066e-14
2.79621e-14
2.68169e-14
3.29162e-14
3.774e-14
2.8873e-14
2.87442e-14
2.89157e-14
2.87398e-14
2.84345e-14
2.75211e-14
3.19723e-14
2.52931e-14
2.80924e-14
3.16585e-14
3.42521e-14
3.37815e-14
3.76855e-14
3.35349e-14
3.3547e-14
2.98602e-14
3.26144e-14
3.50627e-14
3.63426e-14
3.51599e-14
3.78967e-14
3.98144e-14
4.31362e-14
4.18797e-14
4.19408e-14
4.01214e-14
4.10304e-14
3.76719e-14
4.8552e-14
6.23668e-14
7.17353e-14
5.50445e-14
4.14161e-14
3.41115e-14
3.97515e-14
4.01653e-14
4.30177e-14
4.225e-14
5.23739e-14
6.16252e-14
6.6871e-14
8.24605e-14
9.50922e-14
8.49627e-14
8.37789e-14
7.44946e-14
8.84817e-14
9.16596e-14
9.21099e-14
8.94238e-14
8.84056e-14
7.97411e-14
9.87549e-14
1.20721e-13
1.2069e-13
1.25935e-13
1.19629e-13
1.25289e-13
1.22973e-13
1.0751e-13
1.0954e-13
1.11835e-13
1.08851e-13
1.13423e-13
1.01296e-13
9.15674e-14
6.94755e-14
6.82378e-14
8.17929e-14
8.20341e-14
7.53341e-14
6.4562e-14
7.66951e-14
7.68428e-14
8.17009e-14
8.90353e-14
7.74895e-14
8.04291e-14
8.18302e-14
7.51982e-14
8.29991e-14
8.46953e-14
8.49914e-14
8.11216e-14
9.35862e-14
1.04318e-13
9.07555e-14
9.69463e-14
8.92269e-14
8.26397e-14
8.96532e-14
8.60798e-14
8.34115e-14
7.59588e-14
8.0808e-14
8.20524e-14
7.68711e-14
8.60129e-14
7.92482e-14
8.38189e-14
8.66067e-14
8.86577e-14
7.40072e-14
7.84724e-14
6.50585e-14
6.23077e-14
5.69066e-14
4.71965e-14
5.39457e-14
5.01227e-14
4.61471e-14
4.42631e-14
5.00693e-14
4.80689e-14
5.71205e-14
5.69665e-14
7.02626e-14
6.80946e-14
6.62976e-14
6.88228e-14
7.35171e-14
8.00019e-14
8.21114e-14
8.33603e-14
7.32686e-14
7.72298e-14
7.99748e-14
8.12231e-14
8.76813e-14
9.33132e-14
8.68924e-14
8.67423e-14
7.67618e-14
8.76489e-14
1.03108e-13
1.12712e-13
1.17099e-13
1.28587e-13
1.11266e-13
8.46187e-14
6.74239e-14
2.59365e-14
2.73663e-14
3.22535e-14
3.30909e-14
3.15939e-14
2.9879e-14
2.2195e-14
2.56118e-14
2.21571e-14
2.73365e-14
2.30839e-14
2.36014e-14
2.32928e-14
2.60409e-14
2.7725e-14
2.65294e-14
2.39886e-14
2.54246e-14
2.62434e-14
2.86701e-14
2.63463e-14
2.76111e-14
2.95916e-14
2.97022e-14
2.4964e-14
2.52341e-14
2.79263e-14
3.353e-14
2.86462e-14
2.98463e-14
3.56641e-14
3.74883e-14
4.61431e-14
5.93886e-14
6.36108e-14
5.54362e-14
4.33796e-14
3.79742e-14
3.44051e-14
4.12941e-14
4.60098e-14
4.35104e-14
4.2686e-14
5.47669e-14
6.44169e-14
7.59254e-14
8.00486e-14
8.43401e-14
7.62278e-14
7.55696e-14
7.56009e-14
7.61761e-14
7.99203e-14
8.078e-14
7.82006e-14
7.51198e-14
8.80226e-14
1.00584e-13
1.08495e-13
1.07786e-13
1.2193e-13
1.15293e-13
1.02642e-13
1.09614e-13
9.96499e-14
9.93295e-14
1.02629e-13
9.73331e-14
9.69936e-14
7.87202e-14
6.99438e-14
7.44348e-14
8.30746e-14
8.22136e-14
7.62431e-14
7.61059e-14
7.38556e-14
7.19404e-14
8.25168e-14
8.20935e-14
7.89845e-14
8.04334e-14
7.92836e-14
7.61189e-14
7.39404e-14
7.63244e-14
8.41879e-14
8.25466e-14
9.43058e-14
9.16106e-14
9.61953e-14
9.03544e-14
7.40183e-14
7.65757e-14
7.2489e-14
6.72548e-14
6.82451e-14
6.53862e-14
6.6719e-14
6.69708e-14
6.86967e-14
6.90118e-14
6.52007e-14
6.47079e-14
7.07794e-14
6.83546e-14
5.91618e-14
6.24057e-14
5.35541e-14
6.26076e-14
6.08061e-14
4.62843e-14
4.55968e-14
4.09531e-14
4.69248e-14
4.40899e-14
4.22415e-14
5.06092e-14
5.09316e-14
4.72754e-14
5.19644e-14
5.63755e-14
6.42858e-14
6.61116e-14
5.5583e-14
7.33327e-14
7.52097e-14
7.21455e-14
7.4046e-14
8.34795e-14
8.05142e-14
8.4022e-14
8.05517e-14
8.46016e-14
8.57035e-14
8.17008e-14
7.6907e-14
8.33817e-14
9.37901e-14
9.35975e-14
1.02223e-13
1.14159e-13
1.03275e-13
7.69675e-14
6.92208e-14
2.85711e-14
2.63614e-14
2.55176e-14
2.89438e-14
2.74289e-14
2.08514e-14
1.1778e-14
1.36799e-14
1.343e-14
1.50619e-14
1.44955e-14
1.90994e-14
1.87796e-14
2.59256e-14
3.03745e-14
2.78725e-14
2.28731e-14
2.11331e-14
2.02353e-14
2.00467e-14
1.72636e-14
1.47919e-14
1.17789e-14
1.0467e-14
9.04532e-15
1.38587e-14
1.78791e-14
1.58457e-14
2.02811e-14
2.78823e-14
3.06676e-14
3.88116e-14
4.57667e-14
4.94309e-14
4.48995e-14
4.55085e-14
4.08231e-14
4.02751e-14
3.09001e-14
3.76304e-14
3.47825e-14
3.03352e-14
3.30716e-14
4.07713e-14
4.90687e-14
5.33318e-14
5.67356e-14
6.2384e-14
6.47576e-14
7.88763e-14
6.29965e-14
5.35012e-14
5.89731e-14
6.86422e-14
6.13903e-14
7.46862e-14
7.03305e-14
7.95042e-14
9.26302e-14
9.49292e-14
1.00761e-13
8.94527e-14
7.90901e-14
9.05213e-14
8.58493e-14
8.3291e-14
8.32926e-14
7.06163e-14
7.48965e-14
6.84648e-14
7.51668e-14
7.67995e-14
6.77763e-14
6.41203e-14
6.08376e-14
6.61773e-14
5.61093e-14
5.94314e-14
6.67991e-14
5.84916e-14
6.31779e-14
5.89887e-14
6.01206e-14
6.65533e-14
5.76169e-14
6.28371e-14
7.45025e-14
7.36175e-14
6.92699e-14
7.07777e-14
8.21367e-14
7.65699e-14
5.59446e-14
5.41643e-14
4.8587e-14
4.16164e-14
4.50804e-14
4.45032e-14
4.39145e-14
4.49115e-14
5.54432e-14
4.17247e-14
4.21183e-14
4.18314e-14
5.00449e-14
4.77379e-14
5.08475e-14
4.84852e-14
6.6253e-14
7.44541e-14
5.76066e-14
3.69227e-14
3.49659e-14
3.43275e-14
4.05752e-14
4.36165e-14
3.91082e-14
4.10268e-14
4.88301e-14
4.93081e-14
3.17467e-14
3.59145e-14
4.48342e-14
4.25534e-14
3.5236e-14
5.00813e-14
6.0597e-14
5.98148e-14
6.95798e-14
8.27821e-14
7.51629e-14
7.99822e-14
7.88532e-14
6.97278e-14
7.85084e-14
7.45839e-14
7.39525e-14
6.74006e-14
7.69617e-14
7.67335e-14
8.67671e-14
9.77623e-14
9.79461e-14
7.63769e-14
6.92951e-14
2.39041e-14
2.17038e-14
1.99638e-14
2.04388e-14
1.38623e-14
1.53239e-14
1.0569e-14
1.30402e-14
2.09867e-14
2.04043e-14
2.35834e-14
2.48148e-14
1.1892e-14
2.78751e-14
3.02158e-14
3.11485e-14
2.36719e-14
1.67875e-14
2.28442e-14
2.55353e-14
1.89854e-14
7.28872e-15
9.34624e-15
9.54103e-15
1.09786e-14
2.04809e-14
1.68633e-14
1.73216e-14
2.07769e-14
3.04551e-14
3.90295e-14
4.44603e-14
4.50555e-14
3.90094e-14
3.43499e-14
3.33417e-14
2.55637e-14
2.66334e-14
2.68474e-14
1.94233e-14
1.85492e-14
1.89761e-14
2.15075e-14
2.88663e-14
4.37299e-14
4.07038e-14
3.66204e-14
3.65723e-14
4.65571e-14
5.5368e-14
5.0494e-14
4.09485e-14
3.99163e-14
3.94724e-14
3.91102e-14
5.47419e-14
5.10102e-14
5.50665e-14
6.48951e-14
7.51382e-14
7.74507e-14
6.94458e-14
6.31357e-14
6.56897e-14
9.23147e-14
8.07318e-14
7.41668e-14
6.43364e-14
6.92737e-14
6.16894e-14
5.76345e-14
6.47246e-14
5.71632e-14
4.643e-14
4.27623e-14
4.61534e-14
3.92684e-14
3.56113e-14
3.80154e-14
3.29545e-14
3.02331e-14
3.48771e-14
3.55374e-14
3.63428e-14
3.78417e-14
5.47208e-14
6.46085e-14
7.39381e-14
5.02317e-14
4.98731e-14
4.97895e-14
6.03078e-14
6.01413e-14
4.64481e-14
3.88596e-14
2.47012e-14
2.2601e-14
1.52688e-14
2.59835e-14
2.42195e-14
3.11519e-14
2.14951e-14
2.85372e-14
3.57674e-14
4.93379e-14
4.75264e-14
3.66838e-14
4.61531e-14
5.90209e-14
7.0011e-14
6.14314e-14
4.55833e-14
4.09944e-14
4.43649e-14
5.42289e-14
4.9165e-14
4.82449e-14
4.76042e-14
3.47287e-14
3.84476e-14
3.43205e-14
3.35747e-14
3.98309e-14
2.58398e-14
2.66717e-14
2.88415e-14
4.15603e-14
4.60413e-14
5.58476e-14
6.6802e-14
6.53761e-14
7.366e-14
7.53221e-14
7.77197e-14
6.87623e-14
6.69421e-14
6.05768e-14
4.72997e-14
6.45231e-14
6.91767e-14
7.92697e-14
9.37799e-14
9.4391e-14
8.30279e-14
7.1936e-14
2.04074e-14
2.01735e-14
1.90874e-14
1.89341e-14
1.39431e-14
7.42631e-15
6.73317e-15
1.52791e-14
2.35375e-14
2.32421e-14
3.02157e-14
2.35603e-14
1.85129e-14
2.2533e-14
3.25072e-14
3.36206e-14
2.91532e-14
2.92127e-14
3.57202e-14
3.13027e-14
1.77127e-14
4.51248e-15
2.03347e-14
1.35496e-14
1.93761e-14
1.9388e-14
4.68816e-15
1.70611e-14
2.27401e-14
2.59952e-14
3.22981e-14
3.45283e-14
3.44234e-14
3.67954e-14
3.45418e-14
2.45271e-14
1.37498e-14
7.72293e-15
1.83629e-14
2.17656e-14
1.53726e-14
1.61182e-14
1.92777e-14
1.90829e-14
2.86897e-14
4.03244e-14
3.13615e-14
2.56282e-14
3.82207e-14
4.05433e-14
3.56369e-14
3.18132e-14
3.56305e-14
3.30064e-14
3.3554e-14
4.43147e-14
4.53627e-14
4.59909e-14
4.91171e-14
5.58585e-14
6.15911e-14
7.72301e-14
4.54326e-14
5.10094e-14
6.17634e-14
6.23587e-14
6.94458e-14
7.91165e-14
5.72145e-14
4.31998e-14
5.41665e-14
5.05409e-14
3.36418e-14
3.49033e-14
3.53857e-14
4.38949e-14
4.0254e-14
3.27655e-14
2.25501e-14
3.04675e-14
2.57283e-14
2.97349e-14
2.19909e-14
2.70229e-14
3.21072e-14
3.7972e-14
4.56169e-14
5.7908e-14
4.19455e-14
5.63295e-14
5.14337e-14
5.76848e-14
5.70295e-14
3.88777e-14
3.16311e-14
2.3267e-14
1.90402e-14
1.43982e-14
2.39562e-14
2.0352e-14
1.90822e-14
1.47063e-14
1.60718e-14
3.75051e-14
5.21722e-14
4.3239e-14
3.4137e-14
5.00788e-14
5.12195e-14
6.90626e-14
7.13757e-14
5.35926e-14
4.80143e-14
5.79226e-14
7.93229e-14
6.04926e-14
4.81909e-14
5.13807e-14
3.44619e-14
4.06132e-14
2.78021e-14
1.51411e-14
1.13265e-14
1.03268e-14
5.64012e-15
1.62443e-14
1.31267e-14
1.54242e-14
3.37738e-14
5.15024e-14
5.60567e-14
6.82547e-14
6.99785e-14
8.04769e-14
5.96008e-14
5.52713e-14
4.75299e-14
3.97088e-14
5.39294e-14
7.19297e-14
7.61686e-14
9.26114e-14
9.56879e-14
8.38841e-14
6.88443e-14
1.57941e-14
1.8364e-14
1.73626e-14
1.97955e-14
2.01399e-14
1.26485e-14
1.30844e-14
1.23624e-14
1.63353e-14
1.93485e-14
2.75531e-14
2.39585e-14
2.35137e-14
3.05866e-14
3.57286e-14
3.5075e-14
3.85718e-14
3.81795e-14
3.82019e-14
3.12168e-14
1.72972e-14
3.82387e-15
1.47967e-14
1.31812e-14
2.66501e-14
9.30964e-15
1.31391e-14
1.06128e-14
1.82541e-14
2.99521e-14
3.45205e-14
2.79127e-14
3.61231e-14
2.94278e-14
2.94334e-14
2.06933e-14
9.328e-15
1.05493e-14
1.58968e-14
1.41089e-14
2.47396e-14
2.94403e-14
3.19201e-14
2.9352e-14
3.03237e-14
3.08474e-14
3.64375e-14
3.29344e-14
4.37602e-14
4.27157e-14
3.03296e-14
3.32089e-14
3.6923e-14
4.09558e-14
4.76838e-14
4.27532e-14
4.96973e-14
5.56634e-14
5.1669e-14
5.35796e-14
5.60719e-14
7.45063e-14
4.88022e-14
4.87814e-14
4.13972e-14
4.45421e-14
7.33996e-14
9.57054e-14
5.91211e-14
4.65289e-14
4.99166e-14
4.21417e-14
3.83694e-14
3.85618e-14
5.59611e-14
5.65418e-14
4.08621e-14
4.5186e-14
3.08712e-14
3.37886e-14
4.11693e-14
3.72623e-14
2.99648e-14
4.97386e-14
4.11057e-14
3.60694e-14
3.37968e-14
3.59644e-14
4.14792e-14
5.53437e-14
4.95003e-14
4.27476e-14
5.20824e-14
3.78316e-14
3.70495e-14
3.32067e-14
3.44371e-14
3.57311e-14
3.02887e-14
3.65404e-14
3.65203e-14
3.64162e-14
3.9602e-14
3.60845e-14
3.94584e-14
4.76029e-14
4.01898e-14
4.50241e-14
5.33275e-14
7.15793e-14
6.741e-14
4.79054e-14
5.04414e-14
6.11449e-14
8.71807e-14
6.93312e-14
5.40566e-14
5.04087e-14
4.33506e-14
3.82926e-14
2.41953e-14
2.54667e-14
2.38289e-14
2.27684e-14
2.08272e-14
1.44547e-14
1.56107e-14
1.75241e-14
3.60833e-14
5.88689e-14
4.36246e-14
5.76229e-14
6.12331e-14
6.40561e-14
4.95893e-14
4.34159e-14
3.94278e-14
4.21156e-14
5.78651e-14
6.97643e-14
8.35842e-14
9.58781e-14
9.3922e-14
9.00044e-14
7.2868e-14
3.14707e-14
3.4124e-14
3.8054e-14
3.9783e-14
3.28315e-14
1.55633e-14
1.61794e-14
2.54976e-14
2.5333e-14
3.07497e-14
2.14696e-14
1.58242e-14
3.2477e-14
4.11574e-14
4.6684e-14
4.35697e-14
4.66141e-14
5.12645e-14
4.45802e-14
4.34285e-14
3.25615e-14
1.41302e-14
1.89615e-14
2.27883e-14
2.74064e-14
1.78305e-14
1.73288e-14
2.02827e-14
2.48879e-14
2.81136e-14
2.88307e-14
3.02824e-14
2.95954e-14
3.04721e-14
2.79985e-14
3.00109e-14
2.85814e-14
2.77201e-14
3.4404e-14
3.30241e-14
3.65214e-14
3.92549e-14
4.44788e-14
5.2403e-14
4.90958e-14
5.28108e-14
6.03305e-14
6.23225e-14
5.9843e-14
5.91161e-14
5.82862e-14
6.15954e-14
6.68215e-14
6.64795e-14
6.67021e-14
6.01659e-14
6.99592e-14
7.15155e-14
6.79673e-14
6.92187e-14
6.83837e-14
7.46258e-14
7.30182e-14
6.38375e-14
7.02452e-14
6.41259e-14
7.59404e-14
6.90055e-14
7.30978e-14
6.97106e-14
5.17459e-14
6.02557e-14
6.1433e-14
7.19871e-14
8.58676e-14
7.30711e-14
5.87692e-14
5.90198e-14
5.30221e-14
5.71578e-14
6.15526e-14
5.53729e-14
5.74034e-14
6.54578e-14
6.40141e-14
5.79106e-14
5.30249e-14
5.4871e-14
6.76969e-14
6.96907e-14
6.10343e-14
6.09373e-14
6.21291e-14
6.19695e-14
5.43587e-14
4.67886e-14
5.13775e-14
6.37611e-14
6.03414e-14
6.04343e-14
6.19722e-14
5.97216e-14
7.04658e-14
7.00055e-14
5.74309e-14
4.79948e-14
4.99908e-14
4.95892e-14
6.84545e-14
8.26636e-14
7.07009e-14
5.17431e-14
5.12948e-14
6.71735e-14
8.6294e-14
7.9316e-14
5.55755e-14
4.25084e-14
3.97651e-14
3.01847e-14
2.7755e-14
1.36181e-14
2.74822e-15
1.08827e-14
1.71317e-14
1.69633e-14
1.73075e-14
1.87165e-14
3.53132e-14
5.57665e-14
5.75554e-14
5.45424e-14
5.98018e-14
6.38734e-14
6.10307e-14
5.31132e-14
5.09388e-14
4.94625e-14
6.26905e-14
7.87271e-14
9.17631e-14
1.01863e-13
1.01878e-13
9.91283e-14
9.52456e-14
4.16759e-14
4.65721e-14
4.92e-14
5.26113e-14
5.07953e-14
3.72459e-14
3.14412e-14
3.32867e-14
3.70615e-14
3.46035e-14
3.32134e-14
3.67346e-14
3.60829e-14
3.35599e-14
4.22318e-14
5.23178e-14
5.89441e-14
6.30502e-14
5.49438e-14
5.60747e-14
4.40104e-14
3.73108e-14
3.00951e-14
3.73614e-14
3.83102e-14
3.21488e-14
3.55319e-14
3.47235e-14
3.33252e-14
3.67682e-14
3.97101e-14
3.28074e-14
2.77247e-14
3.71693e-14
4.25262e-14
4.18767e-14
4.61501e-14
4.52674e-14
4.60878e-14
5.00048e-14
5.03229e-14
5.18976e-14
5.14756e-14
5.52893e-14
5.78678e-14
6.17767e-14
6.85473e-14
7.07015e-14
6.78614e-14
6.8847e-14
6.64086e-14
7.19395e-14
7.74992e-14
7.95353e-14
7.93194e-14
7.07238e-14
7.11444e-14
6.54133e-14
6.87344e-14
6.9926e-14
6.4574e-14
7.08369e-14
6.82591e-14
6.12058e-14
6.83063e-14
6.87445e-14
7.12527e-14
6.47412e-14
7.15176e-14
7.47149e-14
7.02549e-14
6.79357e-14
6.43142e-14
7.03823e-14
7.11358e-14
7.02268e-14
6.71215e-14
6.45844e-14
6.80323e-14
6.75119e-14
6.7521e-14
7.18413e-14
6.80204e-14
6.42166e-14
7.16322e-14
7.20277e-14
6.82857e-14
6.33446e-14
7.21744e-14
6.93364e-14
6.79551e-14
6.79413e-14
6.34921e-14
6.57238e-14
5.90063e-14
5.51334e-14
5.60799e-14
6.91927e-14
7.40363e-14
6.61321e-14
6.24597e-14
6.86091e-14
7.31365e-14
6.09137e-14
6.5616e-14
5.7394e-14
5.24421e-14
6.14687e-14
7.4741e-14
6.77747e-14
5.77483e-14
5.5549e-14
5.68098e-14
5.44237e-14
6.38072e-14
5.96937e-14
5.09763e-14
4.5104e-14
4.27511e-14
2.63339e-14
3.36595e-14
3.27971e-14
2.75683e-14
2.62323e-14
2.7146e-14
2.36216e-14
2.72937e-14
3.04097e-14
3.60134e-14
5.86689e-14
7.44851e-14
5.99533e-14
6.68096e-14
6.46522e-14
5.65108e-14
6.14341e-14
6.73104e-14
6.29504e-14
6.42531e-14
7.54661e-14
9.67412e-14
1.14219e-13
1.12808e-13
1.08603e-13
1.12415e-13
3.50669e-14
4.18821e-14
4.12948e-14
3.78803e-14
2.88472e-14
2.56133e-14
2.39364e-14
1.54079e-14
1.81172e-14
1.59733e-14
2.05872e-14
1.85649e-14
1.85454e-14
1.86582e-14
2.52665e-14
3.16632e-14
3.75322e-14
4.21353e-14
4.08535e-14
3.84483e-14
2.95196e-14
2.86242e-14
3.41925e-14
3.82095e-14
3.33809e-14
2.74124e-14
2.87872e-14
2.7895e-14
2.94545e-14
2.67577e-14
2.42332e-14
1.7555e-14
1.27426e-14
2.19655e-14
2.69845e-14
2.76348e-14
2.86586e-14
3.23203e-14
3.21156e-14
3.8397e-14
3.69497e-14
3.87209e-14
3.8266e-14
3.68318e-14
3.98964e-14
4.42046e-14
4.14158e-14
4.68518e-14
4.31604e-14
4.18887e-14
4.7323e-14
4.2987e-14
4.70055e-14
5.11005e-14
4.84736e-14
4.80471e-14
4.26587e-14
3.41487e-14
3.71007e-14
3.91311e-14
3.25233e-14
3.56872e-14
3.01304e-14
2.31173e-14
2.68212e-14
3.07379e-14
3.30943e-14
4.23933e-14
3.80383e-14
4.67733e-14
5.18262e-14
4.08863e-14
3.78648e-14
3.48281e-14
3.17317e-14
3.6944e-14
3.85031e-14
3.47912e-14
3.76349e-14
3.60754e-14
3.84889e-14
4.52624e-14
4.27226e-14
4.16245e-14
4.42289e-14
4.19127e-14
3.90056e-14
3.58562e-14
3.72552e-14
3.18653e-14
3.85086e-14
3.82239e-14
3.98336e-14
3.81677e-14
3.401e-14
3.29043e-14
3.55177e-14
3.90894e-14
3.782e-14
3.75499e-14
2.92425e-14
3.98686e-14
3.89948e-14
2.81126e-14
3.74774e-14
4.26755e-14
4.67094e-14
4.72659e-14
4.77965e-14
3.82416e-14
3.33847e-14
3.16235e-14
3.39584e-14
2.85031e-14
3.40599e-14
3.44161e-14
3.31895e-14
3.07961e-14
2.72979e-14
1.4665e-14
1.84381e-14
1.43796e-14
1.23018e-14
1.04069e-14
2.04933e-14
1.35476e-14
1.7114e-14
2.52971e-14
2.93678e-14
4.49361e-14
5.9546e-14
5.4828e-14
4.9968e-14
4.46284e-14
3.75021e-14
3.81878e-14
4.25716e-14
4.41465e-14
5.02636e-14
6.56671e-14
8.38628e-14
9.97911e-14
1.04106e-13
1.01392e-13
1.05364e-13
1.96799e-14
2.07542e-14
1.99098e-14
1.15377e-14
1.09963e-14
1.18298e-14
1.22524e-14
1.38921e-14
1.59504e-14
1.3575e-14
1.12015e-14
1.4533e-14
1.54056e-14
8.07415e-15
9.97275e-15
1.6714e-14
1.61031e-14
1.50161e-14
1.2936e-14
7.52905e-15
1.19677e-14
1.41391e-14
2.11688e-14
1.76046e-14
1.63014e-14
1.37869e-14
1.15749e-14
7.34113e-15
9.90252e-15
2.97413e-15
7.6497e-15
1.41745e-14
1.22075e-14
1.20764e-14
1.55594e-14
1.13989e-14
1.48898e-14
2.04086e-14
2.43301e-14
2.54811e-14
1.84331e-14
9.80167e-15
4.66495e-15
1.04465e-14
1.54153e-14
1.75611e-14
2.0103e-14
2.1954e-14
1.73778e-14
1.02912e-14
1.1254e-14
8.27938e-15
1.75229e-14
3.31239e-14
3.1553e-14
3.16798e-14
3.29958e-14
2.75931e-14
2.13132e-14
1.99891e-14
1.68116e-14
8.18734e-15
6.86807e-15
1.37707e-14
1.71188e-14
1.22292e-14
7.93538e-15
1.86465e-14
2.91192e-14
2.67346e-14
2.65169e-14
2.14849e-14
2.0859e-14
1.29777e-14
6.20552e-15
9.23106e-15
1.22093e-14
1.25437e-14
5.91556e-15
4.18205e-15
9.21495e-15
7.48244e-15
9.80532e-15
1.14584e-14
9.76895e-15
5.91026e-15
3.48162e-15
4.03035e-15
1.06685e-14
1.22113e-14
1.05949e-14
1.48065e-14
1.63051e-14
1.16889e-14
1.11089e-14
1.91663e-15
1.94175e-14
1.80934e-14
1.55129e-14
1.41696e-14
1.15922e-14
1.14973e-14
1.78635e-14
1.95351e-14
1.67653e-14
2.50389e-14
3.54509e-14
2.83603e-14
2.20084e-14
2.68076e-14