/*--------------------------------*- C++ -*----------------------------------*\
| =========                 |                                                 |
| \\      /  F ield         | OpenFOAM: The Open Source CFD Toolbox           |
|  \\    /   O peration     | Version:  2406                                  |
|   \\  /    A nd           | Website:  www.openfoam.com                      |
|    \\/     M anipulation  |                                                 |
\*---------------------------------------------------------------------------*/
FoamFile
{
    version     2.0;
    format      ascii;
    arch        "LSB;label=32;scalar=64";
    class       volVectorField;
    location    "0.045";
    object      U;
}
// * * * * * * * * * * * * * * * * * * * * * * * * * * * * * * * * * * * * * //

dimensions      [0 1 -1 0 0 0 0];

internalField   nonuniform List<vector> 
13948
(
(1.86125e-11 1.80864e-11 -1.98103e-11)
(1.51379e-11 3.23432e-11 -5.73338e-12)
(7.09782e-12 4.14919e-11 -1.74605e-12)
(-6.70981e-13 3.61638e-11 -1.6282e-12)
(-5.95886e-12 3.43743e-11 4.09401e-13)
(-1.5089e-13 2.24366e-11 3.05293e-13)
(2.72362e-12 2.66997e-11 -1.85955e-12)
(6.38875e-12 2.28894e-11 -3.98612e-12)
(1.00332e-11 3.51698e-11 5.70582e-12)
(5.9348e-12 3.76089e-11 1.03795e-11)
(1.11549e-11 4.18508e-11 9.05593e-12)
(9.75011e-12 4.76784e-11 1.15887e-11)
(5.13056e-12 4.81066e-11 1.14769e-11)
(1.97119e-12 4.68095e-11 1.93811e-11)
(2.32575e-12 3.99535e-11 2.86407e-11)
(3.62619e-12 4.52478e-11 1.69748e-11)
(-5.1265e-12 4.8747e-11 9.82245e-12)
(-1.14707e-11 4.03684e-11 7.24818e-12)
(-5.16333e-12 3.48933e-11 3.36162e-12)
(-2.2624e-12 4.06476e-11 6.84269e-12)
(-2.64187e-12 4.07273e-11 1.14206e-11)
(-7.12434e-12 3.96957e-11 1.31003e-11)
(-1.30737e-11 3.12729e-11 1.17251e-11)
(-5.91562e-12 2.5791e-11 8.82271e-12)
(-5.87551e-12 2.79226e-11 1.299e-12)
(-9.46322e-12 1.28512e-11 -5.77353e-12)
(3.65945e-12 1.03877e-11 -1.68328e-11)
(7.62592e-12 2.27667e-11 -1.2504e-11)
(1.12342e-12 3.21045e-11 -1.12083e-11)
(-3.14316e-12 2.43762e-11 -1.4372e-11)
(5.22278e-12 1.76086e-11 -2.50028e-11)
(1.19148e-11 2.56861e-11 -2.18773e-11)
(3.59653e-12 3.27696e-11 -1.57223e-11)
(-5.99621e-12 2.99573e-11 -1.30798e-11)
(-9.993e-12 2.52718e-11 -6.05653e-12)
(-4.51428e-12 1.59569e-11 -1.38421e-11)
(3.46096e-12 2.54303e-11 -1.10645e-11)
(1.56172e-12 3.32802e-11 -6.39186e-12)
(-1.1203e-12 2.93587e-11 -8.96646e-12)
(6.22138e-12 2.18606e-11 -1.36828e-11)
(1.05123e-11 3.43256e-11 -6.06608e-13)
(5.68328e-13 3.5733e-11 1.38896e-11)
(9.78769e-13 3.42943e-11 8.98271e-12)
(-1.51751e-12 4.06642e-11 -2.39303e-12)
(-6.56035e-12 3.20417e-11 -1.55655e-11)
(-5.39024e-12 2.54803e-11 -4.22751e-12)
(-1.15873e-11 2.05067e-11 4.89132e-12)
(-6.09092e-12 1.46231e-11 1.72297e-11)
(6.01542e-13 1.70831e-11 3.23983e-11)
(-3.21794e-12 1.90231e-11 1.41721e-11)
(2.88702e-13 2.05052e-11 -1.40504e-13)
(-1.73312e-13 2.28117e-11 -6.39387e-12)
(-6.19757e-12 2.105e-11 -6.06801e-12)
(-8.05491e-12 1.63905e-11 -6.33242e-12)
(-1.00809e-12 1.47052e-11 -6.13545e-12)
(5.55847e-12 1.88022e-11 -6.99033e-12)
(2.76875e-12 2.50014e-11 -1.03934e-11)
(-5.07658e-12 2.45036e-11 -1.72289e-11)
(-9.03736e-12 1.64121e-11 -2.68205e-11)
(-5.71112e-12 9.74284e-12 -3.75311e-11)
(-1.06909e-11 1.35199e-11 -2.68191e-11)
(-1.46211e-11 6.84612e-12 -3.87295e-11)
(-1.56548e-11 2.92075e-12 -2.27741e-11)
(-2.17612e-11 -6.15357e-12 -3.37383e-11)
(-1.66692e-11 -1.93217e-11 -2.19468e-11)
(-5.60925e-12 -2.33207e-11 -9.84295e-12)
(7.21581e-12 -1.755e-11 -5.55301e-12)
(4.67372e-12 -2.97345e-13 -5.06237e-12)
(4.75554e-12 -4.69667e-12 -9.51187e-13)
(1.42135e-11 6.36097e-12 4.49888e-13)
(1.60641e-12 1.47097e-11 3.77992e-12)
(3.30994e-12 6.44384e-12 9.44949e-12)
(1.19445e-11 1.44145e-11 1.8028e-11)
(7.44919e-12 2.77171e-11 1.9556e-12)
(4.36236e-12 3.5444e-11 -2.06975e-13)
(6.79205e-12 3.67708e-11 -2.96805e-12)
(5.27214e-12 4.03225e-11 -4.65931e-12)
(-7.63118e-13 3.76264e-11 -7.74113e-12)
(-4.61321e-13 3.15482e-11 -1.28841e-11)
(3.02503e-12 3.02119e-11 -9.54617e-12)
(2.54435e-12 3.22133e-11 -1.31224e-11)
(4.19114e-12 3.09339e-11 -1.02779e-11)
(4.08235e-12 3.68876e-11 -7.80385e-12)
(2.08907e-12 3.43778e-11 1.96878e-12)
(5.12321e-12 3.27681e-11 1.29808e-12)
(6.02335e-12 2.69859e-11 5.68984e-12)
(2.01769e-12 2.73567e-11 -3.59703e-12)
(-8.5411e-13 2.0498e-11 -6.05228e-12)
(-1.93152e-12 2.06111e-11 -9.19894e-12)
(-3.6182e-12 1.53839e-11 -7.2755e-12)
(3.85367e-13 1.01745e-11 -3.70293e-12)
(2.17813e-12 3.85743e-12 -4.2138e-12)
(9.17678e-12 1.86563e-12 -8.77055e-12)
(2.03318e-11 1.42524e-12 -9.38416e-12)
(2.59539e-11 -1.5947e-12 -1.09525e-11)
(2.07179e-11 1.68264e-13 -9.57512e-12)
(1.59798e-11 -1.08239e-12 -3.0754e-11)
(1.33336e-11 -6.59161e-13 -4.69122e-11)
(1.20772e-11 -4.05726e-12 -4.16065e-11)
(1.29359e-11 1.17891e-11 -6.09552e-12)
(1.65791e-11 1.97137e-11 -1.45859e-11)
(1.3963e-11 3.33191e-11 -5.87017e-12)
(7.47096e-12 4.24909e-11 -1.4511e-12)
(-3.45589e-13 3.54502e-11 -1.37692e-14)
(-4.53933e-12 3.32344e-11 1.19641e-12)
(1.01031e-12 2.22821e-11 8.23569e-13)
(2.73602e-12 2.64478e-11 1.87731e-13)
(6.11137e-12 2.3717e-11 2.01496e-12)
(8.74024e-12 3.62721e-11 7.24656e-12)
(6.09961e-12 3.91594e-11 1.15468e-11)
(1.0421e-11 4.18718e-11 7.9462e-12)
(9.41984e-12 4.77967e-11 1.21105e-11)
(5.36121e-12 4.75335e-11 1.01906e-11)
(2.95864e-12 4.74165e-11 1.7198e-11)
(2.4307e-12 4.14699e-11 2.20597e-11)
(1.79414e-12 4.70841e-11 1.50163e-11)
(-5.00186e-12 4.94716e-11 9.21734e-12)
(-9.48116e-12 4.13121e-11 7.08588e-12)
(-5.46249e-12 3.53563e-11 5.01308e-12)
(-2.84068e-12 4.12826e-11 7.70544e-12)
(-3.14024e-12 4.22739e-11 1.15381e-11)
(-6.43832e-12 3.8607e-11 1.37714e-11)
(-1.19694e-11 3.26352e-11 1.20406e-11)
(-6.73545e-12 2.66663e-11 9.18089e-12)
(-4.85955e-12 2.76822e-11 2.07648e-12)
(-6.85094e-12 1.63375e-11 -3.07807e-12)
(2.39919e-12 1.30432e-11 -9.07672e-12)
(4.35894e-12 2.50776e-11 -9.05557e-12)
(1.43078e-12 3.14284e-11 -1.08599e-11)
(8.16782e-13 2.65486e-11 -1.04746e-11)
(5.16607e-12 1.63088e-11 -1.77199e-11)
(8.84344e-12 2.80273e-11 -1.93085e-11)
(2.91833e-12 3.49678e-11 -1.20523e-11)
(-5.47964e-12 3.33023e-11 -1.03805e-11)
(-8.7186e-12 2.72739e-11 -8.33732e-12)
(-3.59099e-12 1.79805e-11 -1.06888e-11)
(1.27592e-12 2.79828e-11 -1.01905e-11)
(1.26243e-12 3.32773e-11 -4.50636e-12)
(9.39173e-13 3.11015e-11 -7.99377e-12)
(6.10598e-12 2.28248e-11 -7.88136e-12)
(9.13571e-12 3.64746e-11 -1.37589e-12)
(1.87208e-12 3.77456e-11 1.02798e-11)
(-2.81184e-13 3.66187e-11 8.92397e-12)
(-1.0551e-12 4.22068e-11 1.27344e-12)
(-4.76317e-12 3.25581e-11 -3.94023e-12)
(-6.35508e-12 2.72134e-11 9.72801e-13)
(-1.05519e-11 2.39561e-11 4.30008e-12)
(-6.10477e-12 2.00338e-11 1.33469e-11)
(-1.41103e-13 1.82318e-11 2.07996e-11)
(-3.37071e-12 2.24896e-11 1.11401e-11)
(-2.63827e-13 2.15669e-11 5.70393e-14)
(-2.12512e-13 2.40864e-11 -5.2292e-12)
(-5.23611e-12 2.28577e-11 -4.86825e-12)
(-6.47035e-12 1.73256e-11 -5.87683e-12)
(-1.40304e-12 1.62859e-11 -6.87318e-12)
(4.11449e-12 2.04682e-11 -7.2488e-12)
(1.45943e-12 2.67174e-11 -1.07235e-11)
(-4.34604e-12 2.53558e-11 -1.79677e-11)
(-7.12713e-12 1.72783e-11 -2.68825e-11)
(-5.94593e-12 1.06864e-11 -3.27811e-11)
(-1.05457e-11 1.53732e-11 -2.51803e-11)
(-1.41292e-11 7.99967e-12 -3.0575e-11)
(-1.50101e-11 6.35443e-12 -2.3117e-11)
(-2.00133e-11 -4.91485e-12 -2.49294e-11)
(-1.4004e-11 -1.41518e-11 -1.81587e-11)
(-5.36149e-12 -1.8208e-11 -6.51047e-12)
(3.96203e-12 -1.65512e-11 -2.8043e-12)
(3.83492e-12 1.04778e-12 -4.05587e-12)
(5.29541e-12 -3.98667e-12 2.86813e-14)
(1.12736e-11 9.12048e-12 1.70929e-12)
(2.38627e-12 1.59122e-11 4.11448e-12)
(4.49307e-12 6.42667e-12 8.81808e-12)
(9.9186e-12 1.54154e-11 1.37289e-11)
(6.34852e-12 2.61423e-11 1.9103e-12)
(4.50161e-12 3.58379e-11 2.12665e-13)
(6.96346e-12 3.9063e-11 -2.94124e-12)
(5.12725e-12 4.22304e-11 -4.418e-12)
(6.05659e-13 3.79147e-11 -6.19865e-12)
(3.05865e-13 3.24091e-11 -8.92199e-12)
(2.55511e-12 3.03099e-11 -1.02225e-11)
(2.46351e-12 3.17103e-11 -1.36032e-11)
(3.82042e-12 3.11419e-11 -1.26175e-11)
(3.62192e-12 3.91391e-11 -9.36822e-12)
(2.29035e-12 3.49734e-11 -3.58877e-12)
(6.1497e-12 3.31179e-11 -3.01429e-12)
(7.05108e-12 3.01116e-11 -1.19746e-12)
(2.0941e-12 2.73884e-11 -6.26802e-12)
(-5.89776e-13 1.97542e-11 -8.92179e-12)
(-1.64974e-12 2.21844e-11 -9.03968e-12)
(-2.70977e-12 1.56096e-11 -5.9805e-12)
(1.07418e-12 1.1977e-11 -4.55409e-12)
(2.76345e-12 6.00249e-12 -5.88566e-12)
(9.32216e-12 7.33887e-12 -9.65669e-12)
(2.05716e-11 3.7909e-12 -8.21806e-12)
(2.54898e-11 9.60907e-13 -1.39659e-11)
(1.98477e-11 2.28683e-12 -1.50741e-11)
(1.55963e-11 -1.89257e-12 -2.84927e-11)
(1.35305e-11 2.1441e-12 -4.06357e-11)
(1.16321e-11 -2.26584e-13 -4.01742e-11)
(5.24316e-12 3.58022e-12 -7.04105e-12)
(4.10641e-12 1.77581e-12 -5.13951e-12)
(4.38072e-12 3.73552e-12 -3.98073e-12)
(5.01337e-12 3.70806e-12 -3.69704e-12)
(7.16604e-12 1.48473e-12 -4.08484e-12)
(8.80437e-12 2.36139e-12 -3.96299e-12)
(6.97549e-12 4.26603e-12 -1.37066e-12)
(8.48714e-12 6.44085e-12 1.06553e-12)
(1.04693e-11 1.08555e-11 1.14522e-12)
(1.42306e-11 1.48553e-11 2.92116e-12)
(1.62631e-11 2.13757e-11 -1.30196e-12)
(1.21255e-11 3.09677e-11 9.08872e-13)
(7.9982e-12 3.75757e-11 3.01172e-12)
(6.98472e-14 3.60436e-11 1.37211e-12)
(-2.71783e-12 3.1196e-11 1.92557e-12)
(1.80603e-12 2.4798e-11 1.70625e-12)
(1.73362e-12 2.79796e-11 1.74645e-12)
(5.53535e-12 2.96228e-11 2.87636e-12)
(7.38359e-12 3.79653e-11 7.00546e-12)
(6.80036e-12 3.96255e-11 1.06103e-11)
(1.02194e-11 4.0632e-11 1.11401e-11)
(9.47097e-12 4.61175e-11 1.19309e-11)
(5.04688e-12 4.55492e-11 1.17523e-11)
(2.57023e-12 4.63883e-11 1.49387e-11)
(2.16853e-12 4.3088e-11 1.62676e-11)
(6.16516e-13 4.60779e-11 1.18044e-11)
(-4.11648e-12 4.5952e-11 6.68666e-12)
(-7.40742e-12 4.08774e-11 5.91044e-12)
(-5.67338e-12 3.69592e-11 6.22822e-12)
(-4.41241e-12 3.92328e-11 8.2132e-12)
(-2.92171e-12 3.92561e-11 1.25589e-11)
(-5.74834e-12 3.82878e-11 1.48069e-11)
(-1.1716e-11 3.5097e-11 1.22473e-11)
(-6.12735e-12 2.83455e-11 9.28163e-12)
(-4.33889e-12 2.72162e-11 4.2469e-12)
(-5.46313e-12 1.97621e-11 1.13528e-12)
(1.34256e-12 1.78761e-11 -3.98321e-12)
(2.93597e-12 2.6356e-11 -5.55654e-12)
(1.47842e-12 2.66435e-11 -5.9226e-12)
(2.45735e-12 2.78524e-11 -4.8509e-12)
(5.51812e-12 2.45375e-11 -9.45648e-12)
(6.0312e-12 3.09362e-11 -1.52454e-11)
(1.30689e-12 3.25205e-11 -6.22439e-12)
(-5.27639e-12 3.24306e-11 -3.95706e-12)
(-6.73089e-12 2.76519e-11 -7.76377e-12)
(-4.25986e-12 2.20999e-11 -7.31016e-12)
(-1.12657e-12 2.64579e-11 -7.31839e-12)
(1.51556e-12 2.69638e-11 -5.91499e-12)
(3.07852e-12 2.87381e-11 -6.67071e-12)
(6.74361e-12 2.72203e-11 -5.40956e-12)
(7.74136e-12 3.65991e-11 -6.45165e-13)
(2.57393e-12 3.74186e-11 7.62128e-12)
(-2.51155e-13 3.75464e-11 6.22982e-12)
(5.77025e-13 3.86465e-11 6.90096e-12)
(-3.96356e-12 3.5605e-11 9.49443e-12)
(-7.87262e-12 3.20689e-11 4.87271e-12)
(-9.5387e-12 2.6465e-11 2.12228e-12)
(-5.22086e-12 2.30923e-11 9.25115e-12)
(-5.38654e-13 2.57872e-11 1.34268e-11)
(-2.85246e-12 2.57797e-11 8.69929e-12)
(-2.4177e-13 2.41985e-11 1.15778e-12)
(-1.11144e-12 2.69866e-11 -3.49045e-12)
(-4.25277e-12 2.4627e-11 -4.73816e-12)
(-5.37206e-12 2.2794e-11 -5.99353e-12)
(-1.97054e-12 1.98493e-11 -5.49138e-12)
(2.78736e-12 2.4416e-11 -7.46069e-12)
(6.516e-13 2.97255e-11 -1.19478e-11)
(-3.23931e-12 2.93728e-11 -1.86898e-11)
(-4.53567e-12 2.04675e-11 -2.31056e-11)
(-5.24113e-12 1.89299e-11 -2.74327e-11)
(-1.01409e-11 1.93806e-11 -2.4058e-11)
(-1.53663e-11 1.51365e-11 -2.1906e-11)
(-1.39412e-11 8.30922e-12 -1.7451e-11)
(-1.81149e-11 1.83725e-12 -1.42118e-11)
(-1.29025e-11 -4.87842e-12 -1.50602e-11)
(-4.81019e-12 -7.97287e-12 -4.85342e-12)
(2.24411e-12 -6.89863e-12 -5.07694e-12)
(1.99558e-12 1.80134e-12 -6.2016e-12)
(4.64777e-12 2.23859e-12 -2.81695e-12)
(9.8527e-12 1.4382e-11 1.39254e-12)
(3.53317e-12 1.77078e-11 3.39803e-12)
(4.29336e-12 1.0076e-11 8.56956e-12)
(8.54401e-12 1.88463e-11 1.2459e-11)
(4.9682e-12 2.60864e-11 6.51458e-12)
(2.34292e-12 3.04113e-11 1.12798e-12)
(6.0004e-12 3.509e-11 -1.6888e-12)
(6.93975e-12 3.91592e-11 -3.02313e-12)
(3.261e-12 3.66985e-11 -3.87536e-12)
(9.79232e-13 3.40027e-11 -3.7475e-12)
(2.26414e-12 3.08999e-11 -9.13045e-12)
(1.87344e-12 3.13871e-11 -1.38456e-11)
(1.73131e-12 2.88145e-11 -1.38952e-11)
(2.1573e-12 3.72697e-11 -1.27498e-11)
(3.58251e-12 3.53194e-11 -9.63385e-12)
(5.45144e-12 3.09429e-11 -8.7563e-12)
(7.89263e-12 2.92512e-11 -9.5853e-12)
(4.56242e-12 2.68333e-11 -9.59542e-12)
(-1.09674e-12 2.32704e-11 -1.0526e-11)
(-1.63064e-12 2.44829e-11 -8.85372e-12)
(-1.66969e-12 2.0843e-11 -4.74787e-12)
(7.11436e-13 1.60259e-11 -3.02145e-12)
(1.82448e-12 1.21072e-11 -6.64806e-12)
(9.46069e-12 1.03387e-11 -1.2481e-11)
(2.1622e-11 4.82917e-12 -1.505e-11)
(2.61983e-11 6.08836e-12 -1.94688e-11)
(2.00828e-11 5.83585e-12 -2.14603e-11)
(1.51714e-11 3.47279e-13 -2.56172e-11)
(1.23438e-11 4.55847e-12 -3.46308e-11)
(1.28307e-11 3.10731e-12 -4.11031e-11)
(1.85067e-13 -2.20902e-12 1.86083e-11)
(1.15663e-13 -3.91912e-13 1.59657e-11)
(-1.42224e-12 -1.54573e-12 1.04521e-11)
(-1.74686e-12 -2.74012e-12 1.73727e-12)
(-1.08351e-12 -4.52168e-12 -8.40482e-12)
(-7.80075e-13 -3.82017e-12 -1.41987e-11)
(-1.27915e-12 -3.14896e-12 -1.5983e-11)
(-8.03791e-13 -3.88233e-12 -1.57619e-11)
(-4.69887e-13 -1.67643e-12 -1.1406e-11)
(-1.96756e-12 -4.4908e-12 -4.65034e-12)
(1.79214e-12 -4.7241e-12 1.69512e-12)
(2.92713e-12 -5.05084e-12 8.04393e-12)
(2.66033e-12 -4.26965e-12 8.67251e-12)
(3.93034e-12 -3.25747e-12 6.36757e-12)
(2.66316e-12 -3.65484e-12 3.58026e-12)
(2.44468e-13 -2.60178e-12 8.45462e-13)
(-8.9043e-13 -2.68923e-12 -2.72755e-12)
(-3.61434e-12 -1.69098e-12 -6.74134e-12)
(-2.4582e-12 -2.20241e-12 -8.10751e-12)
(-2.27426e-12 -2.61162e-12 -6.67294e-12)
(-2.81307e-12 -2.52476e-12 -1.05681e-11)
(1.85459e-14 -8.2959e-13 -1.60777e-11)
(1.58778e-13 -3.07769e-12 -2.32319e-11)
(-1.91052e-12 -2.50557e-12 -2.68037e-11)
(-2.25151e-12 -1.99347e-12 -2.75361e-11)
(-1.02868e-12 -7.82341e-13 -2.77713e-11)
(-1.72841e-13 -2.40357e-12 -2.53337e-11)
(6.85077e-13 -2.85625e-12 -1.84254e-11)
(1.82222e-12 -3.38331e-12 -1.48942e-11)
(2.74061e-12 -2.00123e-12 -1.58501e-11)
(2.95815e-12 -3.44794e-12 -1.22258e-11)
(3.24548e-12 -3.43422e-12 -9.09938e-12)
(5.34842e-12 -1.19381e-12 -9.3688e-12)
(5.99867e-12 9.1417e-13 -3.50165e-12)
(3.92969e-12 -1.50713e-12 1.96767e-12)
(3.33068e-12 -1.01174e-13 9.27867e-13)
(6.82837e-12 4.78577e-13 5.54204e-13)
(8.45703e-12 -2.64483e-13 -9.72613e-13)
(8.01099e-12 1.9426e-12 -9.41871e-13)
(9.02833e-12 4.84713e-12 1.14387e-12)
(9.33749e-12 6.40226e-12 5.16099e-12)
(1.01168e-11 9.10444e-12 3.26733e-12)
(1.45911e-11 1.09032e-11 7.05322e-12)
(1.57754e-11 1.61202e-11 8.42279e-12)
(1.0672e-11 2.36195e-11 7.15587e-12)
(7.14695e-12 3.21285e-11 8.47226e-12)
(3.50559e-13 3.1986e-11 2.99539e-12)
(-1.45997e-12 2.62843e-11 1.57851e-12)
(2.10685e-12 2.28876e-11 2.10636e-12)
(1.28872e-12 2.38518e-11 2.60926e-12)
(4.21424e-12 2.74658e-11 2.45819e-12)
(7.25546e-12 3.09507e-11 5.51433e-12)
(7.45072e-12 3.44218e-11 1.03139e-11)
(1.00869e-11 3.50173e-11 1.35792e-11)
(9.77725e-12 4.05052e-11 1.34238e-11)
(4.90442e-12 4.14875e-11 1.36858e-11)
(2.68906e-12 4.08679e-11 1.60518e-11)
(2.135e-12 3.9243e-11 1.52972e-11)
(3.8309e-13 4.14708e-11 9.48328e-12)
(-3.52873e-12 3.94219e-11 2.85526e-12)
(-6.83932e-12 3.63348e-11 5.05928e-12)
(-5.44114e-12 3.24114e-11 5.52961e-12)
(-3.97117e-12 3.35276e-11 8.91083e-12)
(-4.36628e-12 3.08466e-11 1.36732e-11)
(-6.5771e-12 3.38662e-11 1.59714e-11)
(-9.87708e-12 3.00561e-11 1.16216e-11)
(-5.47156e-12 2.19211e-11 7.92907e-12)
(-3.89067e-12 2.38641e-11 5.58088e-12)
(-3.86825e-12 1.8463e-11 4.00644e-12)
(1.99755e-13 1.57099e-11 -2.24188e-12)
(2.12954e-12 2.19406e-11 -3.57522e-12)
(1.93391e-12 2.06232e-11 -4.32695e-12)
(1.93572e-12 2.39419e-11 -3.60345e-12)
(4.8619e-12 2.46881e-11 -6.09408e-12)
(5.90027e-12 2.74841e-11 -1.20568e-11)
(2.31191e-12 2.61644e-11 -3.36705e-12)
(-5.05216e-12 2.43334e-11 -3.08328e-13)
(-6.17952e-12 2.14787e-11 -1.51505e-12)
(-3.96889e-12 1.90003e-11 -1.85231e-12)
(-9.63127e-13 1.88969e-11 -4.59637e-12)
(1.17442e-12 1.79615e-11 -5.45319e-12)
(2.44238e-12 2.16915e-11 -5.27882e-12)
(6.86382e-12 2.57296e-11 -3.99295e-12)
(6.93936e-12 3.20878e-11 -1.6819e-12)
(2.83896e-12 3.09662e-11 7.84552e-12)
(-3.00346e-13 3.23218e-11 8.48938e-12)
(-8.47797e-14 2.96885e-11 1.10402e-11)
(-5.24899e-12 2.92736e-11 1.3801e-11)
(-7.7651e-12 2.69871e-11 8.65657e-12)
(-8.17673e-12 2.42196e-11 3.48891e-12)
(-5.95843e-12 1.9896e-11 8.12276e-12)
(-2.4325e-12 2.38764e-11 9.38763e-12)
(-2.04907e-12 2.24816e-11 8.25436e-12)
(-7.7027e-13 2.10625e-11 4.94978e-12)
(-5.8647e-13 2.76641e-11 1.62708e-12)
(-3.6141e-12 2.38932e-11 -1.47625e-14)
(-4.16039e-12 2.3897e-11 -2.34993e-12)
(-2.1043e-12 2.0281e-11 -1.46726e-12)
(1.06721e-13 2.41698e-11 -7.21574e-12)
(-1.06336e-12 2.92677e-11 -1.37214e-11)
(-1.41612e-12 2.69862e-11 -1.95725e-11)
(-1.94508e-12 2.54868e-11 -2.1869e-11)
(-4.01028e-12 2.34332e-11 -1.9449e-11)
(-1.00101e-11 1.98149e-11 -1.80976e-11)
(-1.38367e-11 1.59781e-11 -1.32842e-11)
(-1.19455e-11 8.40046e-12 -1.02393e-11)
(-1.64001e-11 1.56957e-12 -5.70633e-12)
(-1.18184e-11 -5.71939e-12 -1.11946e-11)
(-5.3988e-12 -6.62823e-12 -8.0953e-12)
(-7.09231e-13 -5.27939e-12 -8.40904e-12)
(-4.2101e-13 1.34162e-12 -8.48996e-12)
(2.91351e-12 3.13217e-12 -5.78936e-12)
(8.01302e-12 1.2138e-11 -2.97695e-12)
(5.3484e-12 1.81443e-11 1.27023e-12)
(4.6381e-12 1.6365e-11 8.53995e-12)
(6.16037e-12 1.77374e-11 1.39032e-11)
(5.42944e-12 2.31893e-11 1.09766e-11)
(4.28348e-12 2.14024e-11 4.15546e-12)
(4.7989e-12 2.52218e-11 -6.36986e-13)
(5.17203e-12 2.99253e-11 -1.25543e-12)
(2.92273e-12 3.28088e-11 -1.47095e-12)
(1.88815e-12 2.92465e-11 -2.44422e-12)
(2.48176e-12 2.87742e-11 -7.14948e-12)
(2.41049e-12 2.68665e-11 -1.42972e-11)
(1.10576e-12 2.55317e-11 -1.43129e-11)
(5.36932e-13 2.7991e-11 -1.37896e-11)
(4.44553e-12 2.88776e-11 -1.25743e-11)
(7.77087e-12 2.6277e-11 -1.11343e-11)
(8.38988e-12 2.15485e-11 -8.74852e-12)
(4.36136e-12 2.29987e-11 -1.04239e-11)
(-1.47205e-12 2.33082e-11 -1.07891e-11)
(-1.89931e-12 1.99084e-11 -8.11518e-12)
(-7.508e-13 2.02919e-11 -3.38683e-12)
(1.83853e-12 1.74782e-11 -2.33962e-12)
(3.57379e-12 1.52106e-11 -1.03708e-11)
(1.13928e-11 4.99205e-12 -1.52949e-11)
(2.23475e-11 -1.41758e-12 -2.06665e-11)
(2.55062e-11 4.18921e-12 -2.65151e-11)
(1.99561e-11 5.15825e-12 -2.99182e-11)
(1.53779e-11 4.53743e-12 -3.27723e-11)
(1.42642e-11 4.58795e-12 -3.18816e-11)
(1.37841e-11 1.30879e-12 -3.46855e-11)
(-1.67404e-12 -1.51057e-12 1.46561e-11)
(-3.11875e-13 -3.84066e-12 1.75688e-11)
(-1.46613e-14 -3.96092e-12 1.7782e-11)
(9.88522e-14 -2.7581e-12 1.4269e-11)
(-1.57471e-12 -2.60908e-12 5.14691e-12)
(-1.09914e-12 -4.06191e-12 -3.72749e-12)
(-3.05396e-13 -2.91617e-12 -8.36294e-12)
(-1.91036e-12 -4.50556e-12 -1.1799e-11)
(-1.31545e-12 -3.1256e-12 -1.20226e-11)
(-1.17417e-12 -4.83238e-12 -1.14133e-11)
(-1.15598e-12 -2.77449e-12 -7.33779e-12)
(7.51399e-13 -4.21769e-12 -7.36005e-13)
(2.78588e-12 -6.64537e-12 4.82876e-12)
(1.70425e-12 -6.72183e-12 9.54907e-12)
(7.33261e-13 -5.45535e-12 9.06373e-12)
(2.43625e-12 -5.85636e-12 6.15901e-12)
(1.75032e-12 -3.36771e-12 4.36455e-12)
(-3.77292e-15 -3.60022e-12 2.4158e-12)
(-5.5872e-13 -1.09205e-12 1.0061e-12)
(-2.77195e-12 -2.23154e-12 -2.02461e-12)
(-2.21785e-12 -2.54909e-12 -3.0704e-12)
(-1.73189e-12 -2.89144e-12 -3.10911e-12)
(-2.58201e-12 -2.79474e-12 -7.7315e-12)
(4.8674e-13 -4.07769e-12 -1.33993e-11)
(4.09886e-13 -2.32203e-12 -1.76663e-11)
(-3.39275e-12 -1.58925e-12 -2.31888e-11)
(-3.25679e-12 -3.78192e-12 -2.74668e-11)
(-5.55066e-13 -4.63411e-12 -2.6335e-11)
(1.03042e-12 -4.23876e-12 -2.15992e-11)
(4.44649e-13 -3.20281e-12 -1.56431e-11)
(6.80886e-13 -2.11355e-12 -1.26557e-11)
(2.74088e-12 -1.41098e-12 -1.1989e-11)
(4.67106e-12 -1.30264e-12 -7.79625e-12)
(3.58928e-12 -2.76139e-12 -3.60341e-12)
(3.40836e-12 -6.64625e-13 -3.60729e-12)
(6.7353e-12 1.43303e-14 1.00331e-12)
(5.00953e-12 2.632e-14 5.96561e-12)
(3.26624e-12 -3.04375e-12 5.18453e-12)
(5.63729e-12 -1.51786e-12 4.5178e-12)
(7.52809e-12 4.07411e-14 2.00389e-12)
(7.85194e-12 2.11895e-12 1.62854e-12)
(8.99246e-12 4.05255e-12 1.8665e-12)
(9.16258e-12 8.65296e-12 3.41125e-12)
(1.18673e-11 1.07183e-11 5.72639e-12)
(1.50355e-11 1.43521e-11 1.16277e-11)
(1.4624e-11 1.9627e-11 1.59699e-11)
(8.32081e-12 2.1176e-11 9.76717e-12)
(5.73263e-12 2.95476e-11 7.18049e-12)
(1.62109e-12 2.86371e-11 4.31002e-12)
(2.47453e-13 2.42854e-11 1.7448e-12)
(3.28033e-12 2.29682e-11 1.64144e-12)
(8.90541e-13 2.18684e-11 2.09694e-12)
(2.99486e-12 2.50821e-11 4.63948e-12)
(6.31383e-12 2.62501e-11 8.14484e-12)
(6.19603e-12 3.02052e-11 8.35106e-12)
(8.85947e-12 3.28836e-11 1.4915e-11)
(7.99616e-12 3.58714e-11 1.41037e-11)
(5.73386e-12 3.78705e-11 1.43512e-11)
(4.41028e-12 3.7621e-11 1.66385e-11)
(1.9322e-12 3.88688e-11 1.67674e-11)
(1.47276e-12 4.02475e-11 9.75737e-12)
(-1.54738e-12 3.68455e-11 1.69952e-12)
(-5.97271e-12 3.40806e-11 1.11291e-12)
(-5.44661e-12 2.88415e-11 4.49296e-13)
(-4.81543e-12 2.9815e-11 7.21605e-12)
(-3.45761e-12 2.73614e-11 1.50188e-11)
(-6.25646e-12 2.83524e-11 1.58549e-11)
(-8.33224e-12 2.50767e-11 9.21175e-12)
(-5.68721e-12 1.9952e-11 5.08103e-12)
(-4.92457e-12 2.17695e-11 3.93987e-12)
(-2.54865e-12 1.80575e-11 2.18627e-12)
(-1.82168e-13 1.70794e-11 -2.16277e-12)
(4.64755e-13 1.922e-11 -1.98172e-12)
(1.51171e-12 1.9633e-11 5.49146e-13)
(1.23692e-12 2.04986e-11 6.4768e-13)
(4.96798e-12 2.1326e-11 -2.54681e-12)
(4.93911e-12 2.2462e-11 -1.12298e-11)
(2.62456e-12 2.36981e-11 8.91387e-13)
(-2.33005e-12 2.08019e-11 6.18661e-12)
(-4.67138e-12 1.85625e-11 3.91479e-12)
(-4.01356e-12 1.99876e-11 3.06159e-12)
(-1.25122e-13 1.8479e-11 -1.33367e-12)
(1.91289e-13 1.61972e-11 -2.15251e-12)
(5.01381e-13 1.90137e-11 -2.77797e-12)
(4.8508e-12 2.32159e-11 -2.58094e-12)
(7.20608e-12 2.57881e-11 -3.59077e-12)
(3.28818e-12 2.78972e-11 7.27625e-12)
(-7.44826e-13 2.90746e-11 1.16833e-11)
(1.81848e-13 2.62658e-11 1.62183e-11)
(-4.24855e-12 2.80279e-11 1.59245e-11)
(-8.99228e-12 2.44797e-11 1.25205e-11)
(-8.29554e-12 2.6337e-11 4.72738e-12)
(-5.40877e-12 2.26555e-11 8.01248e-12)
(-2.41212e-12 2.09054e-11 7.81824e-12)
(-1.78514e-12 2.31919e-11 8.83565e-12)
(-1.97881e-12 2.0509e-11 1.14806e-11)
(-2.28724e-12 2.41016e-11 7.25331e-12)
(-3.01668e-12 2.6377e-11 6.36045e-12)
(-3.86855e-12 2.16876e-11 2.25117e-12)
(-1.96064e-12 1.8579e-11 -4.99196e-13)
(-2.10755e-12 2.26462e-11 -6.38829e-12)
(-5.59425e-13 2.58309e-11 -1.4871e-11)
(-1.47644e-12 2.37831e-11 -2.09908e-11)
(-2.85082e-12 2.51948e-11 -2.0621e-11)
(-2.53449e-12 2.77281e-11 -1.51829e-11)
(-8.12161e-12 2.41203e-11 -9.90606e-12)
(-1.01673e-11 1.92032e-11 -1.12621e-11)
(-9.29595e-12 1.54259e-11 -6.47325e-12)
(-1.17179e-11 5.69194e-12 -4.64943e-12)
(-8.45851e-12 -2.82673e-12 -7.5108e-12)
(-4.57312e-12 -1.35174e-12 -8.49338e-12)
(-2.58902e-12 -6.15285e-12 -8.52268e-12)
(-2.46203e-12 -2.92071e-12 -8.31569e-12)
(2.0903e-12 -1.3505e-12 -7.02896e-12)
(5.98104e-12 3.89133e-12 -6.30711e-12)
(2.27004e-12 1.09062e-11 -2.15703e-12)
(4.54021e-12 1.58815e-11 6.71643e-12)
(6.50754e-12 1.66694e-11 1.61866e-11)
(5.0693e-12 1.59162e-11 1.20262e-11)
(4.50921e-12 1.34079e-11 5.65637e-12)
(3.0762e-12 1.74174e-11 3.10434e-12)
(2.24198e-12 2.14232e-11 2.59792e-12)
(3.65318e-12 2.27789e-11 9.21926e-13)
(3.93633e-12 2.13873e-11 9.32439e-13)
(2.68391e-12 2.20585e-11 -3.23962e-12)
(3.2464e-12 2.04691e-11 -9.1319e-12)
(4.27443e-13 2.39419e-11 -1.21373e-11)
(-1.66549e-14 2.17274e-11 -1.33964e-11)
(3.9232e-12 2.31662e-11 -1.37068e-11)
(9.01214e-12 2.19617e-11 -1.07655e-11)
(9.87957e-12 1.97932e-11 -5.28138e-12)
(4.44022e-12 1.9393e-11 -9.65162e-12)
(-5.64069e-13 1.93925e-11 -1.00011e-11)
(-1.28083e-12 1.76283e-11 -7.43221e-12)
(-1.31062e-12 1.80722e-11 -2.75026e-12)
(1.65473e-12 1.74478e-11 -6.00871e-12)
(5.93698e-12 1.13285e-11 -1.3805e-11)
(1.57261e-11 2.76581e-12 -1.96769e-11)
(2.20855e-11 -7.72309e-13 -2.75315e-11)
(2.17839e-11 6.00518e-12 -3.40179e-11)
(1.8525e-11 8.26019e-12 -3.3107e-11)
(1.55104e-11 6.6681e-12 -3.6947e-11)
(1.52205e-11 7.93302e-12 -3.03754e-11)
(1.4155e-11 1.88148e-12 -2.69796e-11)
(-2.78436e-12 -4.54104e-12 1.04157e-11)
(-2.01533e-12 -5.74064e-12 1.47638e-11)
(4.80287e-13 -6.05596e-12 1.89954e-11)
(-1.49527e-13 -6.96116e-12 1.82919e-11)
(2.9922e-13 -4.85033e-12 1.2082e-11)
(-1.40381e-12 -5.94144e-12 4.35562e-13)
(-1.71222e-12 -2.83255e-12 -9.70776e-12)
(3.62265e-13 -3.97712e-12 -1.03404e-11)
(-8.13026e-13 -3.83295e-12 -9.6173e-12)
(-1.23693e-12 -5.77865e-12 -8.18377e-12)
(-9.56775e-13 -3.46306e-12 -5.13205e-12)
(-4.50562e-13 -5.97063e-12 -3.61248e-12)
(8.55804e-13 -5.49885e-12 2.38025e-12)
(1.63381e-12 -8.63208e-12 4.72614e-12)
(8.33046e-13 -7.64396e-12 7.25206e-12)
(3.49602e-13 -8.0642e-12 6.38323e-12)
(1.82668e-12 -8.28854e-12 4.81537e-12)
(1.86057e-12 -5.89487e-12 4.0403e-12)
(-2.93584e-13 -5.44306e-12 4.226e-12)
(-7.99902e-13 -3.62316e-12 2.6234e-12)
(-1.48368e-12 -4.80076e-12 2.84569e-12)
(-1.67787e-12 -6.38171e-12 5.67144e-13)
(-1.45435e-12 -5.14452e-12 -4.44405e-13)
(-2.21525e-12 -5.55534e-12 -5.72376e-12)
(1.47797e-13 -6.88692e-12 -1.13154e-11)
(-9.30886e-13 -5.33072e-12 -1.4158e-11)
(-1.47412e-12 -5.07718e-12 -1.80475e-11)
(-1.08282e-12 -7.3755e-12 -1.98401e-11)
(-6.56297e-14 -6.2597e-12 -1.85141e-11)
(-5.07154e-13 -8.01209e-12 -1.66589e-11)
(-5.58497e-13 -6.54652e-12 -1.33374e-11)
(7.44583e-13 -5.97091e-12 -8.5488e-12)
(3.11096e-12 -3.37922e-12 -4.96615e-12)
(5.2169e-12 -6.24978e-12 -2.86924e-12)
(2.64414e-12 -5.34377e-12 -3.94901e-13)
(1.98776e-12 -3.91295e-12 2.34234e-12)
(5.71467e-12 -4.50205e-13 4.69547e-12)
(6.58775e-12 -2.75562e-13 5.96698e-12)
(5.06178e-12 -2.71448e-12 5.6034e-12)
(4.56674e-12 -2.62374e-12 4.20856e-12)
(6.72673e-12 8.2006e-13 2.94954e-12)
(7.93213e-12 -5.50066e-13 2.40665e-12)
(7.64086e-12 1.75696e-12 1.96942e-12)
(8.1612e-12 8.04885e-12 2.38418e-12)
(1.2323e-11 1.05133e-11 6.69599e-12)
(1.27837e-11 1.57656e-11 1.41612e-11)
(1.29727e-11 1.71859e-11 2.0561e-11)
(7.93374e-12 1.70021e-11 1.3173e-11)
(5.37875e-12 2.41272e-11 5.35548e-12)
(2.38122e-12 2.65206e-11 1.94568e-12)
(1.11445e-12 2.47236e-11 2.07185e-13)
(3.58414e-12 2.61407e-11 6.10763e-13)
(1.0972e-12 2.33411e-11 1.09539e-12)
(2.37495e-12 2.20121e-11 2.79776e-12)
(4.24779e-12 2.55455e-11 8.50985e-12)
(3.8588e-12 2.75186e-11 1.13464e-11)
(7.35273e-12 3.23169e-11 1.13978e-11)
(8.3301e-12 3.06014e-11 1.14776e-11)
(6.40229e-12 3.58603e-11 1.47268e-11)
(4.17413e-12 3.56548e-11 1.93564e-11)
(1.48311e-12 4.16473e-11 1.63683e-11)
(1.20095e-12 3.93167e-11 9.1427e-12)
(-7.53077e-13 3.81682e-11 1.05814e-12)
(-3.61145e-12 3.30221e-11 -2.96611e-12)
(-3.39469e-12 2.68345e-11 -5.82565e-12)
(-3.86302e-12 2.90449e-11 3.39997e-12)
(-2.86312e-12 2.64704e-11 1.73048e-11)
(-5.83149e-12 2.60409e-11 2.12394e-11)
(-7.13663e-12 2.52193e-11 1.25107e-11)
(-6.35262e-12 2.24769e-11 2.10824e-12)
(-3.95801e-12 2.24688e-11 1.89966e-12)
(-1.24608e-12 1.75324e-11 -5.94938e-13)
(-5.35764e-13 1.84683e-11 -4.64979e-12)
(1.5531e-12 1.83533e-11 -1.94766e-12)
(1.97615e-12 1.58059e-11 3.45682e-12)
(1.04162e-12 1.65869e-11 3.93568e-12)
(3.24135e-12 1.84887e-11 1.91674e-12)
(3.96956e-12 2.15225e-11 -6.47258e-12)
(2.95109e-12 2.15948e-11 -1.31249e-12)
(-1.23511e-12 1.68727e-11 7.49864e-12)
(-4.41557e-12 1.78936e-11 6.19001e-12)
(-3.26936e-12 2.08891e-11 5.79619e-13)
(1.33577e-12 1.96264e-11 -1.33264e-12)
(3.88487e-13 1.30585e-11 -1.44641e-12)
(-9.12003e-13 1.91702e-11 -8.18377e-13)
(2.88152e-12 1.98943e-11 -2.45574e-12)
(3.8058e-12 2.31257e-11 -4.11206e-12)
(1.44928e-12 2.6977e-11 1.41585e-12)
(7.71029e-13 2.59786e-11 1.10168e-11)
(-9.15025e-13 2.21351e-11 1.48391e-11)
(-5.78371e-12 2.51296e-11 1.66872e-11)
(-9.74655e-12 2.52126e-11 1.1407e-11)
(-7.50291e-12 2.65712e-11 6.17499e-12)
(-4.16293e-12 2.06262e-11 6.58853e-12)
(-3.6607e-12 1.75541e-11 7.167e-12)
(-1.5166e-12 2.37877e-11 8.50519e-12)
(-9.00243e-14 2.29148e-11 1.4212e-11)
(-2.68793e-12 2.09516e-11 1.10145e-11)
(-3.33283e-12 2.36822e-11 9.9578e-12)
(-1.79531e-12 2.24521e-11 6.15042e-12)
(-2.27746e-12 1.64999e-11 2.4446e-12)
(-4.14108e-12 1.9915e-11 -4.82635e-12)
(-2.05504e-12 2.45232e-11 -1.36112e-11)
(-2.03302e-12 2.28911e-11 -1.8939e-11)
(-4.95039e-12 2.41562e-11 -1.80773e-11)
(-4.25366e-12 2.70168e-11 -1.55352e-11)
(-5.50871e-12 2.42027e-11 -4.56836e-12)
(-8.53062e-12 1.95406e-11 -6.21145e-12)
(-6.27196e-12 1.60561e-11 -2.43806e-12)
(-6.90722e-12 4.96155e-12 9.57025e-13)
(-8.53219e-12 1.83032e-12 -1.67642e-12)
(-3.70405e-12 3.376e-12 -7.80255e-12)
(-1.03066e-12 -5.07149e-12 -7.97407e-12)
(-1.89663e-12 -5.5034e-12 -7.93502e-12)
(6.24193e-13 -3.74004e-13 -8.6206e-12)
(2.29306e-12 7.98651e-13 -1.18036e-11)
(1.48542e-12 2.12358e-12 -5.63108e-12)
(2.41227e-12 1.12824e-11 1.6925e-12)
(5.5025e-12 1.39556e-11 8.50838e-12)
(6.47881e-12 9.92835e-12 8.28396e-12)
(4.27214e-12 7.70961e-12 5.40899e-12)
(1.04391e-12 1.01239e-11 5.54781e-12)
(2.3955e-12 1.89166e-11 9.80596e-12)
(2.72763e-12 2.01963e-11 6.90953e-12)
(2.25485e-12 1.46292e-11 4.53565e-12)
(3.43036e-12 1.45467e-11 -9.09891e-13)
(2.97041e-12 1.537e-11 -6.78367e-12)
(-5.5073e-14 1.92103e-11 -9.23922e-12)
(7.90412e-13 2.04051e-11 -1.1811e-11)
(6.49365e-12 2.16749e-11 -1.29924e-11)
(1.13891e-11 2.1114e-11 -1.23167e-11)
(1.03489e-11 1.65599e-11 -9.19447e-12)
(5.03422e-12 1.92228e-11 -1.06134e-11)
(-3.71993e-13 1.41109e-11 -9.37788e-12)
(-1.98565e-12 1.97107e-11 -8.80259e-12)
(-9.39093e-13 2.16536e-11 -5.47308e-12)
(3.00541e-12 1.92859e-11 -9.56323e-12)
(8.71925e-12 1.29493e-11 -1.66364e-11)
(1.71658e-11 6.16274e-12 -2.27069e-11)
(1.98466e-11 5.11342e-12 -3.13909e-11)
(1.92323e-11 1.15205e-11 -4.00369e-11)
(1.88131e-11 7.18576e-12 -3.44164e-11)
(1.57799e-11 4.46863e-12 -3.65445e-11)
(1.58014e-11 5.06872e-12 -2.76519e-11)
(1.49864e-11 -2.51914e-12 -2.35256e-11)
(-1.9422e-12 -1.53498e-12 6.40626e-12)
(-3.18333e-13 -4.47273e-12 1.17684e-11)
(1.2276e-12 -3.69576e-12 1.61036e-11)
(-6.29803e-13 -3.51567e-12 1.50796e-11)
(-9.06926e-13 -3.42227e-12 9.84541e-12)
(-3.18482e-12 -4.53834e-12 -1.58043e-12)
(-1.85147e-12 -3.7597e-12 -1.13802e-11)
(-1.95236e-13 -3.42762e-12 -8.47718e-12)
(-5.51893e-13 -1.40707e-12 -6.4682e-12)
(-1.69812e-12 -3.60054e-12 -4.64905e-12)