/*--------------------------------*- C++ -*----------------------------------*\
| =========                 |                                                 |
| \\      /  F ield         | OpenFOAM: The Open Source CFD Toolbox           |
|  \\    /   O peration     | Version:  2406                                  |
|   \\  /    A nd           | Website:  www.openfoam.com                      |
|    \\/     M anipulation  |                                                 |
\*---------------------------------------------------------------------------*/
FoamFile
{
    version     2.0;
    format      ascii;
    arch        "LSB;label=32;scalar=64";
    class       volScalarField;
    location    "0.005";
    object      Ma;
}
// * * * * * * * * * * * * * * * * * * * * * * * * * * * * * * * * * * * * * //

dimensions      [0 0 0 0 0 0 0];

internalField   nonuniform List<scalar> 
13988
(
2.10467e-14
1.1668e-14
1.38219e-14
1.13749e-14
4.62657e-15
9.16919e-15
1.03548e-14
7.04488e-15
1.48641e-14
1.49215e-14
2.51632e-14
3.22513e-14
2.02226e-14
1.45207e-14
1.25121e-14
7.84615e-15
1.49804e-14
1.03919e-14
1.85949e-14
2.0463e-14
1.57417e-14
1.25141e-14
1.07911e-14
1.10805e-14
2.05079e-14
1.19609e-14
1.56784e-14
8.9964e-15
1.11343e-14
8.60816e-15
1.13696e-14
1.33341e-14
1.51032e-14
8.23599e-15
1.54397e-14
9.03896e-15
5.51866e-15
1.49561e-14
3.1432e-14
2.03793e-14
1.74732e-14
1.60698e-14
2.0677e-14
1.20441e-14
9.76168e-15
6.00464e-15
1.22906e-14
1.26465e-14
1.29734e-14
6.56714e-15
7.96186e-15
1.08606e-14
1.72223e-14
1.80651e-14
1.70808e-14
1.06244e-14
1.11283e-14
7.70984e-15
1.76545e-14
2.10991e-14
1.9167e-14
1.17609e-14
1.60204e-14
1.45609e-14
1.71639e-14
1.45735e-14
1.9402e-14
1.63013e-14
1.20267e-14
1.70759e-14
1.70374e-14
2.04123e-14
1.53397e-14
1.66394e-14
1.41954e-14
1.63184e-14
1.83458e-14
2.05467e-14
1.1204e-14
1.13012e-14
4.30883e-15
1.26725e-14
1.61392e-14
2.29311e-14
2.54783e-14
3.45954e-14
2.16075e-14
1.65776e-14
1.77591e-14
1.33673e-14
8.54038e-15
8.42774e-15
7.94645e-15
1.25651e-14
8.45391e-15
6.50033e-15
7.62719e-15
9.86928e-15
5.4776e-15
8.40368e-15
9.98933e-15
1.3428e-14
8.212e-15
1.23686e-14
1.1012e-14
5.25888e-15
1.21159e-14
6.86809e-15
1.02723e-14
1.20539e-14
1.67674e-14
1.91898e-14
2.65622e-14
1.61341e-14
9.7452e-15
1.34794e-14
1.02654e-14
1.81967e-14
1.8673e-14
2.25992e-14
2.36341e-14
2.39687e-14
1.47543e-14
9.50108e-15
1.14895e-14
1.1523e-14
1.32132e-14
1.29247e-14
1.14252e-14
1.16256e-14
1.83642e-14
1.98865e-14
1.79111e-14
1.80958e-14
1.48153e-14
2.37162e-14
1.74e-14
1.40198e-14
1.61937e-14
2.14091e-14
1.85112e-14
1.704e-14
1.81778e-14
1.72845e-14
1.62228e-14
1.12246e-14
1.06307e-14
1.66452e-14
1.30947e-14
7.7745e-15
3.21698e-15
7.91681e-15
2.10462e-14
3.00638e-14
2.00296e-14
2.02809e-14
1.09046e-14
6.72734e-15
1.15969e-14
2.0366e-14
1.60145e-14
1.07215e-14
1.28912e-14
1.65152e-14
2.10013e-14
2.20429e-14
1.90646e-14
2.2548e-14
2.48338e-14
1.76014e-14
2.49806e-14
3.51207e-14
3.2013e-14
2.11927e-14
1.68668e-14
1.36606e-14
1.72659e-14
2.52166e-14
2.05847e-14
1.50227e-14
1.05109e-14
1.07371e-14
1.86047e-14
2.02992e-14
1.73946e-14
2.92436e-14
3.34844e-14
2.53139e-14
2.40107e-14
2.48108e-14
1.27877e-14
1.01901e-14
1.59486e-14
1.95189e-14
1.7813e-14
1.48254e-14
1.16976e-14
6.89272e-15
9.75483e-15
1.02455e-14
1.07425e-14
1.88731e-14
1.97484e-14
2.33098e-14
1.48881e-14
5.66578e-15
3.20763e-15
4.05124e-15
6.96225e-15
7.37827e-15
7.59622e-15
1.19178e-14
1.3629e-14
1.08552e-14
6.66162e-15
2.29601e-15
6.88379e-15
1.03325e-14
5.87566e-15
9.04777e-15
1.09279e-14
1.59159e-14
1.81109e-14
8.66015e-15
1.04483e-14
9.76898e-15
4.54306e-15
4.79205e-15
3.97201e-15
4.16529e-15
7.9428e-15
1.1201e-14
7.82061e-15
6.2272e-15
7.16737e-15
1.62495e-14
5.93444e-15
9.5769e-15
8.98105e-15
9.9776e-15
8.80869e-15
9.9169e-15
9.69936e-15
1.06087e-14
7.57355e-15
6.23689e-15
5.99686e-15
1.02056e-14
1.00433e-14
5.5342e-15
4.17137e-15
3.28413e-15
1.44568e-14
2.58525e-14
1.55466e-14
1.06292e-14
8.77064e-15
5.15727e-15
1.03646e-14
1.21901e-14
9.11677e-15
7.90316e-15
6.73653e-15
9.14647e-15
1.12655e-14
1.2017e-14
8.7671e-15
1.95465e-14
1.66935e-14
1.43592e-14
2.18005e-14
2.13094e-14
1.61551e-14
1.3451e-14
9.41823e-15
7.51365e-15
1.05974e-14
1.31899e-14
9.73927e-15
7.66687e-15
4.46591e-15
7.60168e-15
1.01669e-14
8.89265e-15
8.19442e-15
1.69141e-14
2.51043e-14
1.92852e-14
1.75227e-14
1.30226e-14
9.15284e-15
8.93806e-15
1.21865e-14
1.0422e-14
7.93106e-15
1.03679e-14
9.30412e-15
6.886e-15
9.54e-15
9.98288e-15
9.99414e-15
1.98104e-14
1.82756e-14
1.63556e-14
7.19087e-15
1.01107e-14
8.79572e-15
1.13186e-14
7.80697e-15
9.49482e-15
1.29887e-14
1.43225e-14
9.56957e-15
1.06985e-14
9.49626e-15
9.32706e-15
1.50512e-14
1.34132e-14
8.61097e-15
9.61214e-15
1.3756e-14
1.45915e-14
8.67346e-15
1.42484e-14
1.7672e-14
1.81202e-14
1.4338e-14
1.15444e-14
9.12796e-15
1.16408e-14
9.52482e-15
1.19411e-14
1.33852e-14
1.35994e-14
9.61243e-15
4.37972e-15
5.801e-15
8.84554e-15
9.3317e-15
1.43682e-14
1.08469e-14
1.09363e-14
1.6734e-14
1.38239e-14
1.15177e-14
8.7238e-15
6.90938e-15
5.59358e-15
7.47499e-15
9.88461e-15
1.15575e-14
1.0106e-14
9.96611e-15
1.07838e-14
4.62082e-15
3.08912e-15
6.25061e-15
1.46835e-14
1.70194e-14
1.71428e-14
1.32789e-14
1.5062e-14
5.70283e-15
8.24401e-15
1.1048e-14
1.27724e-14
2.0686e-14
2.10531e-14
1.69096e-14
1.89253e-14
1.9843e-14
1.65192e-14
1.73331e-14
1.23909e-14
1.6518e-14
1.7273e-14
1.60312e-14
1.70045e-14
1.555e-14
1.12475e-14
1.43076e-14
9.38963e-15
1.16575e-14
1.12552e-14
9.95935e-15
9.22671e-15
1.0206e-14
5.98599e-15
6.22339e-15
6.75168e-15
8.51291e-15
1.50823e-14
1.95321e-14
1.16152e-14
1.06742e-14
4.37865e-15
3.03647e-15
6.73498e-15
1.49116e-14
1.06726e-14
1.354e-14
8.17719e-15
5.08101e-15
4.46675e-15
1.0153e-14
1.0424e-14
8.37403e-15
7.85989e-15
6.11694e-15
1.0487e-14
4.98559e-15
6.62378e-15
6.9681e-15
1.19179e-14
1.85144e-14
1.76244e-14
1.00804e-14
7.23573e-15
7.21148e-15
8.28757e-15
1.18856e-14
1.18665e-14
1.42822e-14
1.23785e-14
1.38026e-14
1.02924e-14
1.29734e-14
1.20657e-14
1.2878e-14
1.14123e-14
1.27354e-14
1.51329e-14
8.10006e-15
2.23779e-15
7.45266e-15
1.27143e-14
1.44569e-14
1.13442e-14
9.71659e-15
7.50884e-15
1.09262e-14
8.69712e-15
9.58297e-15
1.14107e-14
1.09632e-14
1.41152e-14
1.54438e-14
1.18181e-14
1.21595e-14
1.07415e-14
1.12618e-14
1.014e-14
7.84711e-15
3.70615e-15
6.36558e-15
1.0758e-14
1.70816e-14
1.45765e-14
1.05483e-14
9.00466e-15
1.05094e-14
9.7975e-15
1.5169e-14
1.31512e-14
1.18957e-14
1.16222e-14
1.14935e-14
1.03275e-14
1.19446e-14
1.74872e-14
1.54032e-14
1.762e-14
1.55848e-14
1.65948e-14
1.70476e-14
1.08349e-14
9.50906e-15
1.13325e-14
1.0182e-14
1.43389e-14
1.22517e-14
1.07401e-14
6.78305e-15
5.23768e-15
4.7015e-15
9.73138e-15
1.04475e-14
8.24378e-15
7.9228e-15
6.04176e-15
8.4962e-15
1.031e-14
8.50737e-15
1.04071e-14
9.62972e-15
7.63349e-15
1.41662e-14
1.29928e-14
1.68987e-14
1.51673e-14
1.62303e-14
1.19008e-14
8.15339e-15
9.42841e-15
2.62407e-15
5.04132e-15
5.93216e-15
6.39126e-15
6.71535e-15
7.67773e-15
6.17717e-15
8.44001e-15
1.10829e-14
1.15371e-14
1.12329e-14
8.53059e-15
7.81916e-15
6.77962e-15
2.32009e-15
5.94932e-15
7.3422e-15
4.90557e-15
4.50683e-15
5.2088e-15
3.70032e-15
5.51546e-15
4.11657e-15
5.14193e-15
4.35557e-15
5.14236e-15
4.70186e-15
5.16781e-15
2.74277e-15
6.2911e-15
6.47011e-15
6.57673e-15
6.25414e-15
7.2923e-15
5.99192e-15
7.38473e-15
5.91793e-15
5.31481e-15
2.99613e-15
4.42069e-15
4.11306e-15
2.57858e-15
6.54968e-15
5.94402e-15
8.35715e-15
7.49591e-15
5.72873e-15
8.30653e-15
1.25194e-14
8.48021e-15
7.06842e-15
5.91803e-15
4.6093e-15
7.87563e-15
2.25997e-15
4.46104e-15
2.5565e-15
4.13781e-15
7.25577e-15
1.09834e-14
8.19238e-15
5.17358e-15
5.7619e-15
3.05381e-15
5.14926e-15
6.52889e-15
6.96378e-15
6.22351e-15
8.77857e-15
3.80537e-15
4.63475e-15
4.28602e-15
5.3174e-15
2.22516e-15
3.00416e-15
7.51926e-15
6.22671e-15
5.60008e-15
8.09732e-15
3.90087e-15
2.38534e-15
6.45563e-15
7.08656e-15
9.40528e-15
1.01234e-14
3.62662e-15
4.76681e-15
1.60314e-15
3.90626e-15
7.3198e-15
1.11872e-14
1.70853e-14
2.06561e-14
1.56427e-14
9.66935e-15
1.08023e-14
1.50891e-14
1.0284e-14
6.59361e-15
5.49474e-15
6.91754e-15
1.0254e-14
1.55564e-14
1.15146e-14
6.84357e-15
1.249e-14
1.12255e-14
8.33949e-15
2.19946e-14
1.13221e-14
1.615e-14
1.63794e-14
1.19423e-14
9.31387e-15
5.31794e-15
7.328e-15
8.10465e-15
8.69628e-15
8.78517e-15
8.19286e-15
3.30124e-15
9.74257e-15
7.6508e-15
4.34622e-15
1.78288e-14
1.33503e-14
1.22106e-14
1.38864e-14
1.54745e-14
1.14391e-14
1.50442e-14
9.48494e-15
1.2324e-14
8.49663e-15
9.08583e-15
8.09254e-15
1.03509e-14
7.01251e-15
6.10688e-15
1.15978e-14
1.48738e-14
1.26773e-14
1.51218e-14
1.60442e-14
1.35371e-14
9.60522e-15
1.31785e-14
1.48418e-14
1.62513e-14
1.39115e-14
1.09522e-14
1.16891e-14
1.34574e-14
1.03241e-14
1.04798e-14
5.00334e-15
4.32417e-15
6.97193e-15
6.14589e-15
1.02721e-14
1.11532e-14
7.60437e-15
8.53425e-15
1.23289e-14
8.1603e-15
7.52714e-15
2.85878e-15
6.02175e-15
3.36382e-15
8.2771e-15
7.24853e-15
2.60461e-15
3.03639e-15
1.18032e-14
9.4107e-15
1.47043e-14
1.0924e-14
1.23993e-14
1.31354e-14
1.5683e-14
1.50414e-14
1.17823e-14
8.76568e-15
7.28194e-15
6.41261e-15
6.4099e-15
1.00827e-14
1.25452e-14
1.46925e-14
5.93653e-15
9.82083e-15
7.8386e-15
3.34605e-15
5.52473e-15
5.58628e-15
5.61499e-15
7.77862e-15
3.86855e-15
5.67249e-15
1.3302e-14
1.61467e-14
1.1413e-14
8.59807e-15
6.95689e-15
8.06185e-15
3.92634e-15
9.73201e-15
6.61603e-15
6.87294e-15
1.02445e-14
8.54672e-15
3.33813e-15
4.51318e-15
5.4688e-15
3.82003e-15
7.09573e-15
9.97501e-15
6.32462e-15
7.39899e-15
7.97902e-15
8.544e-15
6.2064e-15
1.18477e-14
3.4393e-15
4.8236e-15
4.32746e-15
1.02434e-14
9.50275e-15
1.79529e-14
1.06321e-14
8.58515e-15
6.84046e-15
5.88529e-15
6.69364e-15
8.41777e-15
9.54268e-15
6.96493e-15
1.30252e-14
1.57636e-14
1.1817e-14
9.6926e-15
1.15917e-14
9.29324e-15
3.36075e-15
6.61396e-15
1.28862e-14
1.2005e-14
1.10818e-14
5.60286e-15
6.58758e-15
4.35064e-15
4.04334e-15
8.03608e-15
5.56006e-15
1.43337e-15
3.49406e-15
7.58638e-15
9.87918e-15
5.62622e-15
7.55977e-15
7.39322e-15
1.55625e-14
1.00028e-14
5.81714e-15
3.55365e-15
5.9975e-15
6.57852e-15
5.12092e-15
6.09948e-15
5.28895e-15
1.43645e-15
4.17888e-15
5.25988e-15
9.09032e-15
6.12281e-15
2.62523e-15
9.46815e-15
7.59336e-15
1.1969e-14
1.12581e-14
1.01902e-14
7.8301e-15
4.05945e-15
3.42164e-15
1.03537e-14
1.36051e-14
2.0466e-14
7.84486e-15
3.57877e-15
4.53406e-15
4.2824e-15
5.88476e-15
6.39034e-15
2.13779e-15
2.78001e-15
6.77926e-15
4.91773e-15
1.00453e-14
1.14024e-14
8.77814e-15
7.291e-15
4.77287e-15
1.4079e-14
7.69475e-15
6.90262e-15
5.20127e-15
4.92236e-15
8.78834e-15
1.04844e-14
8.14949e-16
5.98288e-15
1.28523e-14
1.24896e-14
9.46088e-15
1.37347e-14
1.28428e-14
1.08283e-14
1.13683e-14
9.04057e-15
4.67193e-15
1.16609e-14
1.67362e-14
2.22561e-14
1.53927e-14
9.17048e-15
2.15791e-15
9.12272e-15
8.18951e-15
8.53255e-15
2.439e-15
5.24507e-15
5.62628e-15
1.222e-14
5.61973e-15
2.80175e-15
5.65511e-15
4.70118e-15
3.86761e-15
7.36405e-15
5.38548e-15
5.60054e-15
4.59754e-15
6.28199e-15
2.60946e-15
8.12638e-15
1.02606e-14
6.73798e-15
5.29301e-15
1.1597e-14
1.22195e-14
9.67495e-15
8.85284e-15
9.28305e-15
7.86716e-15
1.40071e-15
7.10719e-15
4.52189e-15
4.92142e-15
9.44808e-15
1.72266e-14
6.98701e-15
6.76202e-15
5.14649e-15
7.6605e-15
2.9433e-15
6.96306e-15
2.37065e-15
5.62203e-15
5.96252e-15
1.17505e-14
4.93636e-15
6.76997e-15
6.30983e-15
8.7243e-15
4.00094e-15
3.87703e-15
5.70686e-15
5.16771e-15
6.77362e-15
8.57119e-15
1.04102e-14
4.69953e-15
2.67354e-15
8.32033e-15
2.10758e-14
1.33547e-14
1.20614e-14
9.97953e-15
1.19376e-14
9.15827e-15
8.961e-15
4.79805e-15
1.03496e-14
4.7773e-15
4.00635e-15
7.83632e-15
6.7388e-15
1.38397e-14
1.41292e-14
6.61167e-15
1.38131e-14
1.37217e-14
1.52125e-14
1.52714e-14
1.84378e-14
1.80085e-14
1.4752e-14
8.67412e-15
1.81285e-14
9.02386e-15
1.58954e-14
1.50782e-14
1.49627e-14
1.71046e-14
1.66837e-14
1.23995e-14
1.38914e-14
1.02456e-14
1.89515e-14
1.8177e-14
2.56658e-14
2.32287e-14
2.75385e-14
1.57348e-14
1.89249e-14
2.00976e-14
1.9752e-14
1.86867e-14
2.13608e-14
1.8335e-14
2.01455e-14
1.57186e-14
1.1913e-14
1.2058e-14
1.58332e-14
1.53493e-14
1.77319e-14
1.74038e-14
1.8461e-14
1.49585e-14
1.67105e-14
2.03795e-14
2.29204e-14
1.71567e-14
1.72845e-14
1.44023e-14
1.5802e-14
1.60482e-14
1.72871e-14
1.54162e-14
1.08163e-14
1.85892e-14
1.54524e-14
2.00581e-14
1.90457e-14
1.81718e-14
1.8922e-14
1.88757e-14
1.16979e-14
1.59477e-14
6.62129e-15
1.11777e-14
1.06203e-14
9.66112e-15
1.09376e-14
5.09825e-15
9.35901e-15
1.84733e-14
1.97033e-14
2.14299e-14
1.86562e-14
1.62937e-14
1.572e-14
8.75854e-15
1.47622e-14
2.26632e-14
1.97501e-14
2.47741e-14
1.62506e-14
1.84379e-14
1.44251e-14
1.20722e-14
1.39256e-14
1.13231e-14
5.46802e-15
9.55133e-15
4.30354e-15
8.42681e-15
4.33672e-15
5.33815e-15
1.65787e-15
3.63844e-15
2.68298e-15
1.11131e-14
7.90147e-15
1.3254e-14
1.0507e-14
7.78166e-15
1.22226e-14
1.56611e-14
1.27002e-14
1.20832e-14
1.2256e-14
3.88988e-15
9.64045e-16
3.10099e-15
4.93738e-15
3.78125e-15
2.89206e-15
6.42748e-15
4.88652e-15
5.64219e-15
7.88801e-15
6.36347e-15
6.72133e-15
9.22428e-15
9.22605e-15
1.12706e-14
1.16276e-14
1.29117e-14
1.42999e-14
1.38168e-14
9.9756e-15
8.19556e-15
9.59015e-15
1.51353e-14
1.26129e-14
1.34507e-14
8.9193e-15
1.27272e-14
7.43117e-15
1.15477e-14
1.15482e-14
9.61734e-15
6.30299e-15
9.05639e-15
6.22054e-15
1.22465e-14
1.26932e-14
1.42625e-14
7.60053e-15
4.97487e-15
4.09832e-15
1.07409e-14
7.84833e-15
1.31157e-14
1.04702e-14
7.61126e-15
2.99224e-15
5.401e-15
1.11356e-14
8.57541e-15
1.29598e-14
1.05157e-14
9.21701e-15
7.03629e-15
7.69061e-15
3.15503e-15
3.53141e-15
7.29987e-15
1.00142e-14
6.79374e-15
1.28071e-14
7.78461e-15
1.13329e-14
1.15961e-14
1.19536e-14
8.18506e-15
1.23002e-14
9.3375e-15
1.52708e-14
6.48469e-15
1.34297e-14
9.03858e-15
1.13412e-14
1.04581e-14
8.46738e-15
1.13601e-14
1.50204e-14
8.94472e-15
7.60816e-15
8.52314e-15
9.74484e-15
6.07491e-15
3.39935e-15
2.35442e-15
9.82064e-16
7.77224e-16
4.81996e-15
8.25374e-15
7.61787e-15
4.17986e-15
6.4028e-15
1.20851e-14
4.8519e-15
3.35292e-15
2.15311e-15
4.81287e-15
3.94867e-15
3.61157e-15
9.86777e-15
1.48709e-14
1.57698e-14
1.17603e-14
1.20078e-14
7.05985e-15
1.03112e-14
6.87151e-15
9.63035e-15
9.16501e-15
7.94472e-15
7.77102e-15
8.1675e-15
7.78209e-15
1.04839e-14
9.02104e-15
5.93902e-15
5.32862e-15
8.42754e-15
1.27879e-14
6.404e-15
1.17511e-14
8.45128e-15
2.91563e-15
7.36512e-15
9.9912e-15
1.33876e-14
8.50469e-15
4.03179e-15
7.49727e-15
3.4449e-15
6.91965e-15
1.17731e-14
8.64464e-15
5.92063e-15
2.86453e-15
3.78309e-15
3.9381e-15
7.79274e-15
1.0195e-14
9.95803e-15
8.40312e-15
6.03217e-15
8.71088e-15
4.52361e-15
6.51085e-15
6.12985e-15
7.80388e-15
5.97879e-15
7.61177e-15
3.87912e-15
6.60156e-15
7.62295e-15
8.74956e-15
3.69857e-15
4.50701e-15
2.85527e-15
1.73959e-15
4.08592e-15
2.45497e-15
2.99254e-15
4.2701e-15
2.58866e-15
3.89931e-15
5.25331e-15
8.55411e-15
3.51751e-15
9.05011e-15
1.21715e-14
2.31659e-15
6.25692e-15
7.43336e-15
1.14665e-14
1.26116e-14
6.71584e-15
9.40502e-15
7.06449e-15
5.42927e-15
1.79049e-15
8.62377e-15
6.41287e-15
5.11565e-15
5.22616e-15
3.10609e-15
3.54032e-15
1.83558e-15
6.86873e-15
4.5926e-15
1.15276e-14
7.13448e-15
4.90206e-15
5.51092e-15
4.37011e-15
7.05042e-15
7.35129e-15
5.31899e-15
4.52242e-15
1.10251e-14
1.83205e-14
9.90578e-15
8.08153e-15
7.89392e-15
1.22368e-14
7.1531e-15
5.25143e-15
6.73073e-15
1.16288e-14
8.55972e-15
7.97967e-15
9.21978e-15
1.2408e-14
1.03633e-14
1.22257e-14
6.97219e-15
6.44847e-15
1.04307e-14
1.32025e-14
1.16058e-14
4.84671e-15
1.06982e-14
1.44205e-14
1.29782e-14
1.24871e-14
1.20133e-14
1.0609e-14
8.84204e-15
3.99394e-15
5.32879e-15
6.08567e-15
4.47034e-15
1.09165e-14
4.2159e-15
5.80256e-15
5.97357e-15
7.6529e-15
8.47785e-15
9.41325e-15
1.00512e-14
7.90923e-15
1.31593e-14
1.52646e-14
1.19983e-14
6.65442e-15
8.06623e-15
1.16455e-14
8.63386e-15
8.86713e-15
7.24304e-15
6.12581e-15
4.86716e-15
1.00402e-14
1.28267e-14
8.69917e-15
4.35514e-15
4.35815e-15
5.04177e-15
5.02874e-15
4.17542e-15
6.05898e-15
5.63022e-15
6.47392e-15
5.72191e-15
8.20824e-15
6.65115e-15
8.59295e-15
1.1692e-14
7.80761e-15
1.86867e-15
5.68214e-15
7.74184e-15
1.33656e-14
1.78636e-14
1.63233e-14
1.75329e-14
1.31385e-14
6.36847e-15
7.8429e-15
1.45955e-14
6.58005e-15
6.60427e-15
5.71334e-15
5.46526e-15
2.68726e-15
5.6677e-15
5.3075e-15
9.54653e-15
5.85462e-15
3.41539e-15
3.29521e-15
4.77032e-15
1.23604e-15
1.78048e-15
5.18154e-15
1.84771e-15
5.54685e-15
1.08035e-14
8.36159e-15
8.9415e-15
4.31634e-15
7.75897e-15
5.81345e-15
3.87515e-15
1.20789e-15
3.93138e-15
5.55648e-15
4.28653e-15
7.33447e-15
9.34541e-15
5.11299e-15
7.19992e-15
1.18632e-14
6.29051e-15
4.52217e-15
8.44645e-15
6.68421e-15
8.63398e-15
4.38831e-15
3.72535e-15
8.75625e-15
7.29296e-15
5.52939e-15
7.01536e-15
3.9696e-15
5.87785e-15
4.1476e-15
2.40436e-15
3.3035e-15
3.0006e-15
2.76007e-15
6.75035e-15
3.69217e-15
9.31906e-15
4.48408e-15
7.60106e-15
4.01407e-15
6.27577e-15
3.63504e-15
1.00273e-15
7.67683e-15
1.0229e-14
4.19036e-15
5.4652e-15
7.77487e-15
5.15403e-15
7.09961e-15
6.50218e-15
3.44038e-15
5.47407e-15
7.97804e-15
6.7253e-15
1.08636e-14
8.07851e-15
2.95847e-15
3.05166e-15
4.99639e-15
5.12581e-15
4.47086e-15
5.8708e-15
9.26154e-15
5.09939e-15
7.95922e-15
7.50638e-15
4.9476e-15
5.83109e-15
3.70141e-15
3.142e-15
5.05225e-15
5.31632e-15
5.64156e-15
6.52539e-15
6.07853e-15
1.0817e-14
1.20708e-14
8.75455e-15
9.33229e-15
1.96303e-14
7.67966e-15
1.67702e-14
1.1862e-14
6.43536e-15
1.3261e-14
6.20273e-15
2.66658e-15
5.6249e-15
4.34371e-15
4.22536e-15
7.35856e-15
4.42295e-15
6.44325e-15
7.71946e-15
8.3354e-15
9.93036e-15
6.25562e-15
1.49941e-14
1.4089e-14
6.40662e-15
7.66028e-15
7.03058e-15
4.94566e-15
7.22943e-15
5.54654e-15
5.70896e-15
2.41314e-15
3.41061e-15
8.43871e-15
4.16958e-15
5.94176e-15
1.24553e-14
6.28049e-15
3.44909e-15
8.1622e-15
8.67771e-15
9.21522e-15
8.23458e-15
6.50615e-15
9.22373e-15
6.75213e-15
1.01858e-14
7.60736e-15
9.73381e-15
5.30774e-15
1.06758e-14
3.66865e-15
4.34549e-15
6.23142e-15
3.34802e-15
4.77761e-15
4.7429e-15
8.35839e-15
7.97597e-15
4.86243e-15
6.49542e-15
3.70818e-15
3.64851e-15
6.96116e-15
1.02965e-14
1.08347e-14
1.14404e-14
6.60741e-15
7.77873e-15
7.11446e-15
9.41204e-15
1.33391e-14
8.81397e-15
6.51344e-15
1.17642e-14
3.46894e-15
8.3065e-15
9.0275e-15
9.57543e-15
1.10454e-14
4.71293e-15
1.33808e-14
9.74415e-15
5.33673e-15
1.09547e-14
4.23638e-15
5.28671e-15
5.83266e-15
4.90853e-15
3.94544e-15
8.36256e-15
3.476e-15
5.77517e-15
1.00606e-14
5.30046e-15
2.90088e-15
6.15211e-15
4.26908e-15
4.76559e-15
2.63364e-15
5.03089e-15
4.79325e-15
9.64439e-15
5.33472e-15
6.5606e-15
5.99395e-15
9.01683e-15
8.21807e-15
5.75295e-15
4.03289e-15
3.17828e-15
4.37586e-15
3.78103e-15
1.77634e-15
2.2621e-15
3.04441e-15
2.95794e-15
3.44024e-15
6.01906e-15
5.90734e-15
6.997e-15
6.25586e-15
4.82896e-15
3.13425e-15
3.75289e-15
2.40303e-15
3.80912e-15
3.11633e-15
2.9826e-15
3.39126e-15
2.20017e-15
3.71323e-15
5.85001e-15
2.78605e-15
5.63811e-15
6.60693e-15
2.30389e-15
6.85048e-15
6.22362e-15
4.73834e-15
2.84058e-15
2.09417e-15
4.22172e-15
5.31301e-15
4.67029e-15
6.26001e-15
4.32521e-15
8.21638e-15
1.79819e-15
2.80609e-15
2.8456e-15
2.76233e-15
5.31531e-15
7.16274e-15
5.13182e-15
3.245e-15
1.80553e-15
1.73966e-15
6.29712e-15
2.80837e-15
5.75221e-15
8.35353e-15
1.13074e-14
1.01328e-14
3.92451e-15
2.91627e-15
9.32422e-16
2.3175e-15
3.27009e-15
5.72053e-15
6.77047e-15
5.64096e-15
8.13351e-15
7.54408e-15
4.34031e-15
2.83736e-15
5.53164e-15
7.0065e-15
3.44751e-15
6.52507e-15
8.46548e-15
8.89637e-15
5.8641e-15
1.73816e-15
2.04024e-15
2.06637e-15
2.47263e-15
3.77878e-15
7.55957e-15
9.19493e-15
7.66532e-15
8.48275e-15
6.167e-15
7.30135e-15
5.4261e-15
4.13429e-15
5.87511e-15
5.67967e-15
6.01417e-15
4.8756e-15
3.2082e-15
3.50253e-15
6.66695e-15
1.48584e-14
7.9813e-15
9.21998e-15
1.02218e-14
7.48476e-15
3.76548e-15
5.72206e-15
9.44058e-15
5.35135e-15
2.27702e-15
6.24848e-15
8.41715e-15
9.23053e-15
2.62597e-15
2.70598e-15
2.28734e-15
9.31264e-15
1.3832e-14
9.40421e-15
1.14989e-14
8.94334e-15
5.31078e-15
6.09834e-15
4.25206e-15
7.35397e-15
9.89131e-15
1.23553e-14
9.49281e-15
9.30091e-15
7.49477e-15
9.19062e-15
6.0543e-15
5.37161e-15
8.23328e-15
8.09885e-15
7.0477e-15
8.75364e-15
9.15869e-15
6.26129e-15
5.47709e-15
6.93367e-15
8.73726e-15
7.45688e-15
8.25753e-15
8.46677e-15
9.63163e-15
1.00225e-14
4.99016e-15
1.01475e-14
8.53251e-15
3.52053e-15
3.69676e-15
5.32062e-15
8.78411e-15
9.90163e-15
1.1957e-14
1.03871e-14
1.07636e-14
1.11255e-14
1.29992e-14
1.19516e-14
4.97633e-15
6.31479e-15
7.09983e-15
3.90935e-15
4.59468e-15
5.18276e-15
7.20153e-15
3.87186e-15
7.50127e-15
1.02054e-14
9.10347e-15
8.35564e-15
6.53547e-15
8.54664e-15
1.01095e-14
1.05564e-14
7.77387e-15
3.59978e-15
5.97944e-15
2.82486e-15
6.49625e-15
1.42141e-14
1.85746e-14
1.53502e-14
1.3569e-14
1.37432e-14
1.16643e-14
8.34725e-15
1.18002e-14
1.25611e-14
1.042e-14
5.61251e-15
9.96634e-15
9.17144e-15
2.79746e-15
5.35162e-15
5.17372e-15
4.22114e-15
3.09743e-15
9.28545e-15
3.45772e-15
7.90468e-15
5.26819e-15
7.51927e-15
3.92304e-15
7.01642e-15
1.74024e-15
6.43914e-15
1.33124e-15
8.31537e-15
4.9908e-15
6.67452e-15
5.42233e-15
6.86318e-15
2.04746e-15
6.10636e-15
3.43508e-15
6.96609e-15
2.84229e-15
5.33134e-15
5.24379e-15
9.48874e-15
6.18271e-15
7.48097e-15
4.35535e-15
5.89082e-15
2.00094e-15
1.58542e-15
5.16315e-15
7.08373e-15
2.43681e-15
5.28663e-15
2.67658e-15
7.93774e-15
4.43973e-15
7.68757e-15
2.72259e-15
7.98918e-15
5.14115e-15
4.79268e-15
2.78726e-15
1.23964e-15
3.34681e-15
1.31368e-14
4.95678e-15
1.05931e-14
5.02711e-15
7.93958e-15
3.09836e-15
6.19599e-15
9.97184e-15
7.97622e-15
1.12673e-15
2.00487e-15
1.13745e-15
2.25602e-15
1.63213e-15
9.57223e-15
5.03824e-15
6.57374e-15
4.18644e-15
2.85368e-15
8.46692e-15
3.79272e-15
9.13078e-15
4.01601e-15
1.04167e-14
3.06674e-15
6.69482e-15
2.74958e-15
8.60075e-15
5.33606e-15
1.40666e-14
4.49655e-15
4.9966e-15
2.29776e-15
5.35515e-15
3.75742e-15
1.1196e-14
7.96373e-15
3.40491e-15
2.09391e-15
1.75894e-15
2.99708e-15
8.88575e-15
2.98599e-15
1.0403e-14
4.25385e-15
1.29978e-14
5.36943e-15
6.62795e-15
6.73017e-15
5.42187e-15
3.76908e-15
5.89869e-15
7.19138e-15
5.29017e-15
6.80204e-15
1.19019e-14
1.15221e-14
1.53918e-14
9.81754e-15
1.01488e-14
5.88126e-15
4.62418e-15
5.25673e-15
6.99261e-15
6.35421e-15
5.40203e-15
4.60809e-15
4.23988e-15
8.0194e-15
1.44847e-14
8.40417e-15
1.10414e-14
9.59046e-15
9.85727e-15
6.02291e-15
4.08674e-15
5.62509e-15
7.40067e-15
4.92165e-15
6.33038e-15
4.82745e-15
3.6045e-15
6.34228e-15
6.74852e-15
5.64104e-15
8.60812e-15
4.99709e-15
6.19025e-15
5.96756e-15
5.51772e-15
4.22551e-15
9.07505e-15
3.55612e-15
1.00973e-14
8.77372e-15
9.48751e-15
9.34804e-15
9.28951e-15
8.11138e-15
6.14153e-15
5.86554e-15
7.77979e-15
3.91169e-15
6.95618e-15
8.10133e-15
8.46476e-15
9.42852e-15
1.02608e-14
8.35163e-15
8.71552e-15
8.69569e-15
1.06682e-14
8.60738e-15
4.19642e-15
5.08588e-15
5.23403e-15
3.75095e-15
5.57772e-15
8.27308e-15
6.06836e-15
4.0854e-15
8.4878e-15
1.06948e-14
8.17848e-15
5.80087e-15
9.20324e-15
1.18111e-14
7.47569e-15
4.43354e-15
5.56698e-15
3.56282e-15
4.62084e-15
3.01001e-15
5.52829e-15
1.25572e-14
1.27673e-14
1.10591e-14
5.63804e-15
9.99518e-15
5.49998e-15
3.70267e-15
7.84759e-15
8.13654e-15
5.00396e-15
1.69755e-15
4.17583e-15
6.87062e-15
2.80708e-15
2.78215e-15
4.27253e-15
2.65475e-15
1.13907e-15
1.24389e-15
5.68494e-15
1.06328e-14
8.84089e-15
3.62548e-15
7.47291e-15
4.05067e-15
4.52165e-15
5.4037e-15
5.69065e-15
5.33249e-15
6.00201e-15
3.66087e-15
4.69673e-15
2.3625e-15
4.14959e-15
6.63497e-15
7.69934e-15
4.91281e-15
2.88021e-15
1.08446e-15
4.7891e-15
6.24096e-15
7.83568e-15
6.69009e-15
4.06653e-15
4.17361e-15
5.3892e-15
4.05364e-15
6.2441e-15
5.14276e-15
7.97556e-15
7.55303e-15
4.89907e-15
2.98452e-15
5.941e-15
7.79256e-15
9.52057e-15
3.93759e-15
6.13102e-15
6.02299e-15
4.25574e-15
5.37425e-15
6.83975e-15
6.24775e-15
6.6222e-15
4.20797e-15
4.55064e-15
1.83859e-15
3.62233e-15
4.7023e-15
8.88652e-15
8.50686e-15
9.65855e-15
9.20654e-15
7.96917e-15
7.21855e-15
5.18835e-15
3.91022e-15
5.51521e-15
3.26027e-15
5.98536e-15
7.90425e-15
4.80337e-15
5.23994e-15
3.49459e-15
4.6799e-15
3.3726e-15
6.14254e-15
7.48213e-15
6.35188e-15
6.78192e-15
5.82684e-15
4.01546e-15
5.90886e-15
7.26758e-15
7.36873e-15
6.0467e-15
4.61401e-15
3.22158e-15
5.3881e-15
6.81681e-15
8.47921e-15
3.71002e-15
5.05803e-15
4.3492e-15
5.95004e-15
5.45748e-15
6.32352e-15
4.53409e-15
6.10272e-15
4.95876e-15
7.8745e-15
6.67418e-15
6.78755e-15
3.10669e-15
7.92317e-15
1.11468e-15
5.26294e-15
6.86987e-15
8.09667e-15
4.32126e-15
7.17177e-15
1.11906e-14
4.34755e-15
3.65336e-15
2.5375e-15
1.20165e-14
1.38702e-14
1.22998e-14
1.07348e-14
2.45353e-15
1.37562e-15
1.21965e-15
2.04248e-15
1.88009e-15
5.93362e-15
1.32165e-15
4.10733e-15
5.11849e-15
1.1012e-14
1.54358e-14
3.59058e-15
9.05129e-15
4.77719e-15
5.61977e-15
2.60719e-15
4.86404e-15
6.46939e-15
1.21078e-14
8.81182e-15
3.14539e-15
7.23554e-15
1.43209e-14
5.22037e-15
1.63921e-14
9.24138e-15
6.94079e-15
8.18132e-15
1.30991e-14
9.29497e-15
8.1158e-15
5.3231e-15
2.42497e-15
3.45857e-15
7.02237e-15
1.44372e-15
2.01253e-15
3.2159e-15
3.21787e-15
2.51582e-15
2.25697e-15
4.45423e-15
5.90715e-15
7.20445e-15
5.65217e-15
5.07901e-15
3.24786e-15
1.99939e-15
4.03262e-15
1.03602e-14
5.27419e-15
3.38814e-15
2.25827e-15
2.31773e-15
2.73382e-15
1.97251e-15
2.89422e-15
5.73806e-15
4.45141e-15
5.81797e-15
2.76794e-15
6.10548e-15
7.03303e-15
3.06208e-15
3.81716e-15
3.69761e-15
3.2813e-15
2.08604e-15
9.78614e-16
3.90245e-15
6.16732e-15
4.21879e-15
2.43963e-15
6.61569e-15
3.63855e-15
5.77538e-15
5.06765e-15
8.53886e-15
1.15313e-14
1.90585e-14
5.98114e-15
7.12697e-15
4.31925e-15
1.66608e-15
3.73817e-15
3.85789e-15
4.83824e-15
8.52794e-15
8.54626e-15
9.80678e-15
4.44673e-15
2.08764e-15
1.04736e-15
5.31038e-15
7.63399e-15
8.07138e-15
6.62385e-15
1.47265e-14
9.28896e-15
4.66484e-15
5.89777e-15
7.07554e-15
7.02598e-15
8.31344e-15
5.32797e-15
7.78878e-15
6.46067e-15
3.54766e-15
7.35507e-15
1.01463e-14
4.67493e-15
5.36104e-16
4.8527e-15
6.29929e-15
4.87298e-15
4.15949e-15
6.66924e-15
6.581e-15
5.4804e-15
3.6785e-15
9.17953e-15
6.85421e-15
4.00277e-15
6.7992e-15
9.23492e-15
9.69457e-15
1.30937e-14
1.96666e-14
1.09165e-14
4.61883e-15
8.87097e-15
6.84788e-15
3.38262e-15
3.49171e-15
5.17946e-15
3.58501e-15
6.51997e-15
6.87669e-15
6.29069e-15
6.718e-15
1.21064e-14
1.45231e-14
4.32602e-15
9.7051e-15
6.53893e-15
1.52407e-15
1.24981e-14
3.72111e-15
8.0197e-15
5.38374e-15
3.9075e-15
4.75027e-15
3.2435e-15
5.09634e-15
1.29441e-14
7.74006e-15
7.67042e-15
7.56695e-15
1.13116e-14
5.99635e-15
6.01599e-15
4.67509e-15
5.3676e-15
5.83772e-15
7.60219e-15
4.70387e-15
8.47484e-16
5.75633e-15
1.32827e-14
8.11253e-15
3.74621e-15
5.61832e-15
8.2877e-15
4.50874e-15
3.45212e-15
9.15492e-15
2.41659e-14
1.04707e-14
9.91948e-15
5.93881e-15
2.44125e-15
4.46867e-15
7.62898e-15
5.75211e-15
4.52393e-15
5.43926e-15
3.14056e-15
2.80494e-15
2.25585e-15
2.28661e-15
2.60637e-15
4.72233e-15
3.77235e-15
4.60659e-15
5.43768e-15
3.6379e-15
9.28329e-15
1.20416e-14
6.74145e-15
1.00947e-14
6.56521e-15
5.33461e-15
8.2585e-15
6.50132e-15
4.95888e-15
7.72056e-15
7.6812e-15
3.38089e-15
3.71705e-15
2.48846e-15
2.01375e-15
3.25625e-15
1.12817e-15
3.24444e-15
5.34792e-15
2.55607e-15
4.85317e-15
2.42856e-15
1.02067e-15
3.13803e-15
4.16591e-15
3.07839e-15
3.59727e-15
6.39712e-15
5.91362e-15
9.40959e-15
9.22577e-15
4.18794e-15
4.48116e-15
2.41901e-15
3.59276e-15
3.90441e-15
5.18481e-15
8.83139e-15
5.72755e-15
4.74955e-15
4.36119e-15
5.43679e-15
6.18022e-15
3.67378e-15
3.85962e-15
7.95806e-15
7.585e-15
2.85388e-15
7.76666e-15
8.57325e-15
6.31465e-16
2.3123e-15
1.97997e-15
1.00409e-15
1.1893e-15
2.86646e-15
5.02435e-15
3.83691e-15
2.46178e-15
8.43094e-15
9.35028e-15
5.49138e-15
2.68843e-15
3.51159e-15
6.25455e-15
6.12922e-15
4.10559e-15
5.17415e-15
1.56153e-15
5.76978e-15
5.64427e-15
7.47687e-15
4.50707e-15
3.81069e-15
1.43002e-15
2.07984e-15
2.89295e-15
7.15539e-15
1.31789e-14
8.22582e-15
1.0681e-14
7.99155e-15
5.30415e-15
7.92599e-15
4.9589e-15
9.95527e-16
8.28621e-15
2.23019e-15
5.15221e-15
1.55914e-15
1.12424e-14
4.17649e-15
3.00844e-15
1.40271e-15
3.57056e-15
6.44545e-15
5.01769e-15
8.8504e-15
5.85593e-15
2.65648e-15
6.78392e-15
4.07331e-15
3.15198e-15
1.8073e-15
2.87314e-15
2.25274e-15
6.35319e-15
4.27631e-15
3.07279e-15
4.62993e-15
7.05377e-15
4.30205e-15
2.76494e-15
1.34122e-15
1.54807e-15
2.56187e-15
2.89447e-15
1.97219e-15
3.80637e-15
5.35986e-15
3.36047e-15
5.06885e-15
3.68846e-15
6.00362e-15
5.86156e-15
5.33315e-15
4.48179e-15
8.25111e-15
9.34129e-15
6.15782e-15
4.57283e-15
4.33984e-15
3.57166e-15
6.60881e-16
5.20844e-15
5.26313e-16
2.68424e-15
1.66284e-15
1.37303e-15
2.81207e-15
3.84227e-15
3.26213e-15
2.79564e-15
1.88149e-15
3.03331e-15
3.69186e-15
2.18701e-15
2.92919e-15
2.29069e-15
8.16346e-16
3.21157e-15
3.56864e-15
2.75614e-15
5.73973e-15
4.22842e-15
2.78402e-15
8.23642e-15
8.40832e-15
4.73763e-15
3.32093e-15
3.91411e-15
3.1603e-15
5.02887e-15
4.02025e-15
3.00479e-15
7.63165e-15
9.30814e-16
4.40752e-15
1.72677e-15
4.57039e-15
9.07608e-15
3.28307e-15
6.83567e-15
4.48137e-15
4.2553e-15
4.02917e-15
4.73528e-15
4.42833e-15
7.56254e-15
4.80102e-15
3.57634e-15
3.14806e-15
5.0115e-15
6.31714e-15
6.74457e-15
5.5707e-15
4.27595e-15
4.30493e-15
2.37172e-15
3.20701e-15
2.21151e-15
3.18398e-15
2.54573e-15
2.89406e-15
2.65892e-15
3.74342e-15
6.68814e-15
6.81e-15
2.70143e-15
2.67867e-15
3.57467e-15
2.12838e-15
4.07563e-15
2.76163e-15
4.06827e-15
8.90051e-15
6.29512e-15
4.16407e-15
2.17737e-15
2.71569e-15
2.94981e-15
4.92497e-15
1.18629e-15
3.63957e-15
5.70666e-15
8.52284e-15
6.53241e-15
5.85252e-15
4.0226e-15
2.16519e-15
3.6787e-15
3.77289e-15
6.02698e-15
9.77833e-15
7.92094e-15
5.22135e-15
3.45883e-15
3.94146e-15
3.42781e-15
2.90993e-15
2.39459e-15
1.20053e-15
2.15642e-15
4.94017e-15
2.14407e-15
1.06825e-15
1.1257e-15
2.83282e-15
4.17086e-15
5.66406e-15
3.30115e-15
4.61392e-15
1.88037e-15
1.48459e-15
2.18541e-15
2.26075e-15
3.71384e-15
1.8631e-15
4.46175e-15
1.11923e-15
5.56862e-15
4.19215e-15
1.41796e-15
5.42343e-15
4.84849e-15
4.10817e-15
7.37136e-15
4.04179e-15
2.15921e-15
4.37792e-15
3.71306e-15
3.36994e-15
1.96162e-15
5.71726e-15
2.8601e-15
1.9069e-15
2.77892e-15
6.47576e-16