/*--------------------------------*- C++ -*----------------------------------*\
| =========                 |                                                 |
| \\      /  F ield         | OpenFOAM: The Open Source CFD Toolbox           |
|  \\    /   O peration     | Version:  2406                                  |
|   \\  /    A nd           | Website:  www.openfoam.com                      |
|    \\/     M anipulation  |                                                 |
\*---------------------------------------------------------------------------*/
FoamFile
{
    version     2.0;
    format      ascii;
    arch        "LSB;label=32;scalar=64";
    class       volVectorField;
    location    "0.1";
    object      U;
}
// * * * * * * * * * * * * * * * * * * * * * * * * * * * * * * * * * * * * * //

dimensions      [0 1 -1 0 0 0 0];

internalField   nonuniform List<vector> 
83682
(
(347.059 2.14697e-11 -2.89414e-11)
(347.059 1.84196e-11 -2.85652e-11)
(347.059 1.40345e-11 -3.02809e-11)
(347.059 7.07784e-12 -3.10805e-11)
(347.059 6.31678e-12 -3.28851e-11)
(347.059 7.00838e-12 -3.33304e-11)
(347.059 7.71851e-12 -3.28119e-11)
(347.059 6.86983e-12 -3.30834e-11)
(347.059 5.47876e-12 -3.32347e-11)
(347.059 -1.97638e-13 -3.3796e-11)
(347.059 7.05952e-14 -3.24686e-11)
(347.059 3.38701e-12 -3.1767e-11)
(347.059 8.35601e-12 -3.08483e-11)
(347.059 5.83924e-12 -2.99939e-11)
(347.059 8.37643e-12 -2.89217e-11)
(347.059 1.26655e-11 -2.81434e-11)
(347.059 1.516e-11 -2.78363e-11)
(347.059 1.51751e-11 -2.84683e-11)
(347.059 1.12726e-11 -2.8562e-11)
(347.059 8.16569e-12 -2.85011e-11)
(347.059 1.00808e-11 -2.87691e-11)
(347.059 1.46243e-11 -2.93574e-11)
(347.059 1.41781e-11 -2.89934e-11)
(347.059 1.17869e-11 -2.91201e-11)
(347.059 1.58223e-11 -2.93989e-11)
(347.059 1.8738e-11 -2.93984e-11)
(347.059 1.97384e-11 -2.99681e-11)
(347.059 1.50367e-11 -3.07664e-11)
(347.059 6.74623e-12 -3.13895e-11)
(347.059 -5.5832e-12 -3.02402e-11)
(347.059 -2.45094e-11 -2.93124e-11)
(347.059 -3.20979e-11 -2.7399e-11)
(347.059 -2.77696e-11 -2.80087e-11)
(347.059 -2.84831e-11 -2.89486e-11)
(347.059 -3.18581e-11 -2.97373e-11)
(347.059 -3.02462e-11 -2.98043e-11)
(347.059 -2.85993e-11 -3.05853e-11)
(347.059 -2.10802e-11 -3.10082e-11)
(347.059 -1.0842e-11 -3.11352e-11)
(347.059 -2.74334e-12 -3.35744e-11)
(347.059 2.21041e-12 -3.21137e-11)
(347.059 1.50464e-12 -3.15742e-11)
(347.059 -3.65962e-12 -3.17188e-11)
(347.059 -8.69461e-12 -3.20692e-11)
(347.059 -1.37985e-11 -3.05013e-11)
(347.059 -1.69184e-11 -3.04742e-11)
(347.059 -1.60177e-11 -3.06912e-11)
(347.059 -1.42891e-11 -3.08307e-11)
(347.059 -1.35389e-11 -3.08164e-11)
(347.059 2.71675e-11 -3.18356e-11)
(347.059 -3.74839e-10 -2.53989e-11)
(347.054 -4.5818e-09 2.72687e-10)
(346.928 3.04725e-07 -1.1533e-08)
(343.99 -4.99369e-06 1.26995e-07)
(326.645 -1.2296e-05 7.43509e-07)
(318.423 2.63321e-05 -9.26606e-07)
(318.305 1.57068e-05 -6.54792e-07)
(318.311 -3.96193e-07 -1.34928e-07)
(318.316 -7.74292e-06 1.87731e-07)
(318.319 -1.57594e-05 5.8332e-07)
(318.321 -1.79691e-05 6.79188e-07)
(318.322 -2.37656e-05 9.16471e-07)
(318.321 -1.51603e-05 7.30471e-07)
(318.321 6.0486e-06 8.50566e-08)
(318.328 1.77159e-05 -3.37619e-07)
(318.336 2.33141e-05 -6.427e-07)
(318.34 2.26219e-05 -6.78116e-07)
(318.344 1.78079e-05 -6.13972e-07)
(318.346 7.67401e-06 -3.55498e-07)
(318.344 -3.90718e-06 -3.75191e-08)
(318.336 -1.05969e-05 1.93971e-07)
(318.327 -1.38098e-05 3.6937e-07)
(318.323 -1.52942e-05 4.86475e-07)
(318.321 -1.59841e-05 5.78408e-07)
(318.319 -1.3071e-05 6.03289e-07)
(318.318 -2.61529e-06 3.6629e-07)
(318.317 8.40475e-06 2.48901e-08)
(318.321 1.26983e-05 -1.72588e-07)
(318.322 1.21406e-05 -2.27398e-07)
(318.321 1.1075e-05 -2.1928e-07)
(318.321 8.99533e-06 -1.99037e-07)
(318.322 5.01471e-06 -1.36994e-07)
(318.323 -3.25116e-06 7.99048e-08)
(318.324 -8.75649e-06 2.68405e-07)
(318.321 -9.9815e-06 3.41135e-07)
(318.318 -9.56695e-06 3.50133e-07)
(318.315 -8.59089e-06 3.2446e-07)
(318.31 -5.83897e-06 2.53077e-07)
(318.306 -1.65062e-07 1.01326e-07)
(318.303 5.39375e-06 -6.2999e-08)
(318.304 6.95332e-06 -1.23016e-07)
(318.308 6.74333e-06 -1.3265e-07)
(318.312 6.14796e-06 -1.15791e-07)
(318.317 3.53657e-06 -2.715e-08)
(318.321 -1.26948e-06 1.16549e-07)
(318.324 -5.59887e-06 2.30274e-07)
(318.324 -6.42908e-06 2.2886e-07)
(318.32 -4.92126e-06 1.63778e-07)
(318.316 -2.96147e-06 1.02048e-07)
(318.315 -2.09932e-06 7.82832e-08)
(318.314 4.55205e-07 7.0433e-09)
(318.315 4.72865e-06 -1.12081e-07)
(318.316 7.3613e-06 -1.66683e-07)
(318.32 6.83229e-06 -1.2766e-07)
(318.325 4.42998e-06 -4.03223e-08)
(318.329 1.99079e-06 3.84244e-08)
(318.331 1.33262e-06 6.58012e-08)
(318.333 1.17186e-07 1.52835e-07)
(318.335 -1.84977e-06 1.96106e-07)
(318.336 -3.66837e-06 2.19261e-07)
(318.335 -4.58457e-06 2.37533e-07)
(318.334 -4.75976e-06 2.29121e-07)
(318.332 -4.61725e-06 2.2158e-07)
(318.33 -4.41599e-06 2.12654e-07)
(318.327 -4.66631e-06 2.25895e-07)
(318.323 -4.76174e-06 2.31771e-07)
(318.32 -3.71224e-06 1.83455e-07)
(318.32 -2.35536e-06 1.17673e-07)
(318.32 -2.07813e-06 1.04409e-07)
(318.321 -2.18634e-06 1.06142e-07)
(318.322 -2.45737e-06 8.85494e-08)
(318.323 -1.29487e-06 2.62566e-08)
(318.324 8.32023e-07 -6.15217e-08)
(318.321 2.19957e-06 -1.37469e-07)
(318.316 2.71295e-06 -1.80785e-07)
(318.313 2.71898e-06 -1.86128e-07)
(318.31 3.21636e-06 -1.99229e-07)
(318.307 3.85359e-06 -1.99673e-07)
(318.306 2.15204e-06 -1.04131e-07)
(318.307 -8.06116e-07 2.87026e-08)
(318.311 -3.11634e-06 1.25639e-07)
(318.317 -4.96799e-06 1.94094e-07)
(318.32 -5.67004e-06 2.17272e-07)
(318.323 -5.76429e-06 2.15006e-07)
(318.326 -4.77747e-06 1.6005e-07)
(318.328 -2.29485e-06 6.09242e-08)
(318.329 -7.97638e-07 1.25471e-08)
(318.328 7.71048e-07 -4.41919e-08)
(318.328 1.60028e-06 -7.92538e-08)
(318.327 1.92834e-06 -9.38077e-08)
(318.326 1.56569e-06 -7.63578e-08)
(318.325 -8.67808e-07 4.17171e-08)
(318.323 -2.91099e-06 1.45947e-07)
(318.324 -4.31203e-06 2.06379e-07)
(318.323 -4.64943e-06 2.19579e-07)
(318.324 -5.15739e-06 2.30925e-07)
(318.324 -4.97589e-06 1.97764e-07)
(318.326 -2.63264e-06 8.12635e-08)
(318.327 2.21388e-07 -3.26102e-08)
(318.326 2.34944e-06 -1.24215e-07)
(318.324 4.50291e-06 -2.16088e-07)
(318.322 5.60064e-06 -2.60063e-07)
(318.319 5.92312e-06 -2.71501e-07)
(318.316 5.73118e-06 -2.63492e-07)
(318.314 4.31966e-06 -2.06803e-07)
(318.313 2.62393e-06 -1.24919e-07)
(318.315 9.25359e-07 -3.01858e-08)
(318.318 -7.9133e-07 6.94034e-08)
(318.322 -1.92383e-06 1.38384e-07)
(318.324 -1.99867e-06 1.53102e-07)
(318.326 -1.71779e-06 1.51073e-07)
(318.327 -1.52445e-06 1.53345e-07)
(318.327 -1.38111e-06 1.51178e-07)
(318.326 -1.45992e-06 1.54108e-07)
(318.326 -1.25838e-06 1.37941e-07)
(318.325 -1.42943e-06 1.54782e-07)
(318.324 -1.37072e-06 1.60562e-07)
(318.323 -8.89254e-07 1.32549e-07)
(318.321 -5.55885e-06 3.27284e-07)
(318.315 3.84902e-06 -7.5232e-08)
(318.306 -1.47593e-05 7.65531e-07)
(318.305 2.05141e-05 -7.36756e-07)
(318.311 -1.42191e-05 6.46396e-07)
(318.339 1.21731e-05 -3.8652e-07)
(318.412 2.4316e-05 -1.22957e-06)
(318.546 -9.60551e-05 4.34517e-06)
(318.746 0.000180202 -8.34778e-06)
(318.999 -0.000274523 1.26203e-05)
(319.289 0.000230681 -1.09435e-05)
(319.598 -0.000156441 8.45189e-06)
(319.92 0.000213955 -1.08728e-05)
(320.241 -0.000285849 1.48878e-05)
(320.564 0.000409757 -2.30685e-05)
(320.873 -0.000778699 3.79251e-05)
(321.18 0.000678792 -2.84737e-05)
(321.45 -0.000874257 3.09419e-05)
(321.778 0.0115116 -0.000335555)
(322.024 0.0126992 -0.000479134)
(322.19 0.012058 -0.00051655)
(322.24 0.0107806 -0.000470464)
(322.237 0.00875304 -0.000390909)
(322.228 0.0081273 -0.000360153)
(322.208 0.00831998 -0.000366112)
(322.181 0.00808089 -0.000357912)
(322.15 0.00694367 -0.000304748)
(322.118 0.00546406 -0.000242449)
(322.089 0.00470312 -0.000207379)
(322.066 0.00434632 -0.000195559)
(322.049 0.00381776 -0.000167803)
(322.035 0.00342444 -0.000150446)
(322.019 0.00318139 -0.000152578)
(321.989 0.00306605 -0.000122198)
(321.921 0.00266797 -0.000114045)
(321.766 0.00246326 -0.000218041)
(321.451 0.00205249 0.000112944)
(320.951 0.00266066 0.000441448)
(320.414 0.00244066 -0.00167013)
(320.028 0.00108852 -0.000164478)
(319.797 0.00126714 0.00139199)
(319.638 0.00169554 0.000559975)
(319.504 0.00164522 -0.000702994)
(319.381 0.00129607 -0.00101133)
(319.269 0.000981223 -0.000473264)
(319.173 0.000840089 0.000126617)
(319.095 0.000833267 0.000383741)
(319.032 0.000856659 0.000306088)
(318.981 0.000846693 0.000155002)
(318.943 0.000743232 -9.39902e-05)
(318.914 0.000573984 -0.000133732)
(318.891 0.000436446 1.19572e-05)
(318.875 0.000392901 0.000103081)
(318.861 0.000398738 0.000101889)
(318.849 0.000419135 3.01939e-05)
(318.838 0.000426631 -6.39062e-05)
(318.828 0.000394993 -0.000102931)
(318.817 0.00034922 -8.76434e-05)
(318.806 0.000330005 -7.00296e-05)
(318.794 0.000298028 -4.85077e-05)
(318.782 0.000279287 -5.2047e-05)
(318.768 0.000276792 -6.51908e-05)
(318.754 0.000275913 -6.09105e-05)
(318.738 0.000260776 -3.59563e-05)
(318.724 0.000248774 -2.27136e-05)
(318.709 0.000237889 -1.53394e-05)
(318.695 0.000212344 -1.16026e-05)
(318.684 0.000162718 -6.90135e-06)
(318.676 0.000109117 5.84137e-06)
(318.672 7.19867e-05 2.61221e-05)
(318.672 6.13482e-05 4.07553e-05)
(318.672 7.99984e-05 3.49729e-05)
(318.673 9.31221e-05 2.40501e-05)
(318.673 0.00010499 3.98984e-06)
(318.673 0.000127349 -5.32697e-05)
(318.673 0.000131554 -7.62381e-05)
(318.671 0.000120567 -7.78685e-05)
(318.67 0.000113125 -7.45312e-05)
(318.668 8.72817e-05 -6.10043e-05)
(318.666 7.27224e-06 -2.47906e-05)
(318.663 -0.000113084 3.31487e-05)
(318.66 -0.000152407 5.41953e-05)
(318.656 -0.000158222 6.00193e-05)
(318.652 -0.000153089 7.00933e-05)
(318.647 -0.000120185 8.285e-05)
(318.641 -6.34797e-05 9.41076e-05)
(318.635 -7.66347e-06 9.72169e-05)
(318.628 3.9559e-05 8.51351e-05)
(318.622 6.21403e-05 6.96611e-05)
(318.617 6.22441e-05 5.61177e-05)
(318.613 5.03449e-05 1.84339e-05)
(318.61 2.4888e-05 -2.71157e-05)
(318.608 -5.51725e-06 -6.57416e-05)
(318.607 -3.22253e-05 -8.84149e-05)
(318.608 -5.9082e-05 -9.90938e-05)
(318.608 -7.79405e-05 -6.89827e-05)
(318.609 -0.000103259 -9.44576e-05)
(318.61 -9.90682e-05 -4.46098e-05)
(318.61 -8.96857e-05 -6.03711e-06)
(318.611 -8.63299e-05 1.62215e-05)
(318.611 -7.448e-05 3.86739e-05)
(318.61 -5.07321e-05 5.31684e-05)
(318.609 -3.94952e-05 5.53844e-05)
(318.607 -1.81273e-05 4.45568e-05)
(318.604 -3.75256e-06 3.53981e-05)
(318.6 1.49375e-06 2.74364e-05)
(318.595 4.69256e-06 1.10613e-05)
(318.589 2.69901e-06 -8.91363e-06)
(318.584 -2.06326e-06 -2.6131e-05)
(318.579 -4.62795e-06 -3.89447e-05)
(318.574 -6.55887e-06 -4.45168e-05)
(318.569 -5.97376e-06 -4.42067e-05)
(318.563 9.97993e-08 -3.8807e-05)
(318.559 4.5557e-06 -3.36192e-05)
(318.554 7.34401e-06 -3.02816e-05)
(318.55 1.18344e-05 -2.24483e-05)
(318.546 1.0629e-05 -1.02583e-05)
(318.543 -2.26209e-06 6.18089e-06)
(318.54 -1.78191e-05 2.40694e-05)
(318.539 -3.16613e-05 3.7466e-05)
(318.537 -4.99573e-05 4.83483e-05)
(318.535 -6.92806e-05 5.80779e-05)
(318.534 -7.6153e-05 6.3429e-05)
(318.533 -6.63951e-05 6.02881e-05)
(318.532 -4.50947e-05 4.96521e-05)
(318.53 -1.89429e-05 3.53499e-05)
(318.529 1.08046e-05 1.82791e-05)
(318.528 3.78641e-05 4.1811e-07)
(318.526 4.92642e-05 -8.6727e-06)
(318.523 5.47844e-05 -1.5029e-05)
(318.521 5.5069e-05 -2.27439e-05)
(318.519 4.17625e-05 -2.59534e-05)
(318.516 1.70854e-05 -2.31991e-05)
(318.513 -8.04605e-06 -1.55448e-05)
(318.51 -2.73998e-05 -5.74283e-06)
(318.508 -3.85837e-05 3.51313e-06)
(318.506 -3.84624e-05 1.22723e-05)
(318.504 -3.28189e-05 1.79193e-05)
(318.502 -2.76902e-05 1.94392e-05)
(318.5 -1.71069e-05 1.91842e-05)
(318.498 -2.88574e-06 1.70867e-05)
(318.497 1.06327e-05 9.28635e-06)
(318.497 1.85772e-05 1.80782e-06)
(318.498 1.78424e-05 -3.7817e-06)
(318.499 9.54573e-06 -8.30936e-06)
(318.5 -1.8005e-06 -1.15528e-05)
(318.5 -1.36791e-05 -1.06015e-05)
(318.5 -2.37567e-05 -5.03496e-06)
(318.498 -2.90709e-05 1.94327e-06)
(318.496 -2.7785e-05 8.31903e-06)
(318.494 -2.12872e-05 1.27637e-05)
(318.491 -1.67901e-05 1.43907e-05)
(318.489 -8.80227e-06 1.64171e-05)
(318.487 2.73278e-06 1.86919e-05)
(318.485 1.05139e-05 2.10407e-05)
(318.482 1.44898e-05 2.07477e-05)
(318.479 1.23435e-05 2.36279e-05)
(318.475 8.05588e-06 2.57658e-05)
(318.472 8.94651e-07 2.2674e-05)
(318.47 -7.61491e-06 2.44364e-05)
(318.469 -1.39873e-05 2.88918e-05)
(318.468 -1.60364e-05 2.83633e-05)
(318.467 -1.37171e-05 2.55843e-05)
(318.465 -8.30289e-06 2.32316e-05)
(318.463 -7.57982e-07 2.04962e-05)
(318.462 5.47331e-06 1.68006e-05)
(318.461 9.37949e-06 1.30018e-05)
(318.461 1.41807e-05 5.23058e-06)
(318.461 1.62559e-05 -4.02071e-06)
(318.461 1.38222e-05 -1.11074e-05)
(318.46 8.42598e-06 -1.44834e-05)
(318.459 2.82221e-06 -1.40234e-05)
(318.458 -2.04652e-06 -9.74829e-06)
(318.456 -6.04449e-06 -3.96213e-06)
(318.455 -7.31905e-06 -1.66895e-06)
(318.454 -9.60709e-06 3.20356e-06)
(318.454 -1.24814e-05 8.62174e-06)
(318.455 -1.29991e-05 9.54447e-06)
(318.457 -1.29766e-05 6.74059e-06)
(318.459 -8.91584e-06 -2.6581e-06)
(318.461 -6.12144e-06 -1.19517e-05)
(318.46 5.15644e-07 -2.41678e-05)
(318.46 7.38535e-06 -3.19055e-05)
(318.459 1.3053e-05 -3.66586e-05)
(318.458 1.80402e-05 -4.0058e-05)
(318.459 2.38731e-05 -4.26455e-05)
(318.46 2.58927e-05 -3.94812e-05)
(318.461 2.1395e-05 -2.95044e-05)
(318.462 9.8086e-06 -1.71949e-05)
(318.462 1.41867e-06 -1.04734e-05)
(318.463 -1.33304e-05 1.49046e-06)
(318.462 -2.63739e-05 1.3233e-05)
(318.463 -3.30952e-05 2.09105e-05)
(318.463 -3.35281e-05 2.42303e-05)
(318.464 -2.75488e-05 2.30073e-05)
(318.465 -1.77087e-05 1.92587e-05)
(318.466 -5.63874e-06 1.33173e-05)
(318.465 1.56434e-06 9.14162e-06)
(318.463 7.28737e-06 5.04788e-06)
(318.461 1.38823e-05 -1.58997e-06)
(318.459 1.58956e-05 -6.76329e-06)
(318.456 1.21425e-05 -7.51196e-06)
(318.455 4.73675e-06 -4.3331e-06)
(318.453 -2.81347e-06 3.35764e-08)
(318.451 -9.51269e-06 5.56751e-06)
(318.449 -1.55619e-05 1.23116e-05)
(318.448 -1.89168e-05 1.72972e-05)
(318.447 -2.07839e-05 2.04403e-05)
(318.446 -2.1901e-05 2.21637e-05)
(318.445 -2.18136e-05 2.2184e-05)
(318.444 -2.02071e-05 1.95058e-05)
(318.443 -1.7622e-05 1.37045e-05)
(318.442 -1.50307e-05 7.15813e-06)
(318.44 -1.18533e-05 1.19073e-06)
(318.439 -7.85492e-06 -4.04363e-06)
(318.437 -3.85303e-06 -8.69107e-06)
(318.435 8.71517e-08 -1.20613e-05)
(318.433 4.12576e-06 -1.30528e-05)
(318.432 7.45891e-06 -1.13452e-05)
(318.431 9.40474e-06 -8.0436e-06)
(318.43 9.6737e-06 -4.10301e-06)
(318.427 8.92204e-06 -9.81012e-07)
(318.424 8.18653e-06 1.12105e-06)
(318.421 6.99451e-06 4.0999e-06)
(318.417 5.799e-06 5.94224e-06)
(318.414 3.81636e-06 6.80495e-06)
(318.411 2.94481e-06 6.95802e-06)
(318.409 3.54449e-06 5.25452e-06)
(318.406 3.47383e-06 2.32906e-06)
(318.404 2.14964e-06 -1.76556e-06)
(318.401 9.81111e-07 -4.42682e-06)
(318.399 4.43695e-07 -5.81914e-06)
(318.397 -4.75538e-07 -5.99787e-06)
(318.396 -1.52858e-06 -5.36543e-06)
(318.395 -2.73471e-06 -2.54428e-06)
(318.396 -3.71066e-06 1.6072e-06)
(318.399 -3.61422e-06 7.97334e-06)
(318.403 -2.40774e-06 1.5638e-05)
(318.406 -1.3045e-07 2.22267e-05)
(318.408 2.77717e-06 2.88563e-05)
(318.409 4.89785e-06 3.41917e-05)
(318.41 5.75703e-06 3.92587e-05)
(318.411 7.25404e-06 4.35035e-05)
(318.412 7.55002e-06 4.71009e-05)
(318.413 5.69848e-06 4.95489e-05)
(318.414 3.51288e-06 5.11391e-05)
(318.414 1.83941e-06 5.24506e-05)
(318.414 2.36292e-07 5.31581e-05)
(318.412 -1.13392e-06 5.40522e-05)
(318.409 -1.11688e-06 5.25717e-05)
(318.406 1.58086e-07 5.03186e-05)
(318.404 3.21965e-07 4.96333e-05)
(318.402 2.3268e-06 4.69095e-05)
(318.401 6.91359e-06 4.14073e-05)
(318.4 1.08438e-05 3.62788e-05)
(318.399 1.19477e-05 3.24522e-05)
(318.397 1.16071e-05 3.07473e-05)
(318.396 9.85237e-06 2.76079e-05)
(318.396 6.30292e-06 2.42567e-05)
(318.395 1.93107e-06 2.20581e-05)
(318.395 -3.96699e-06 2.10586e-05)
(318.395 -1.11345e-05 2.10053e-05)
(318.395 -1.70619e-05 2.18141e-05)
(318.395 -2.08452e-05 2.20536e-05)
(318.394 -2.18309e-05 2.22802e-05)
(318.393 -2.02781e-05 2.22218e-05)
(318.392 -1.52553e-05 2.08305e-05)
(318.392 -1.4965e-05 2.04726e-05)
(318.391 -7.92134e-06 1.8471e-05)
(318.391 -1.28225e-06 1.60647e-05)
(318.392 1.36746e-06 1.43704e-05)
(318.392 4.38517e-06 1.20129e-05)
(318.391 9.37664e-06 8.474e-06)
(318.389 1.00954e-05 5.0832e-06)
(318.387 3.93232e-06 2.42915e-06)
(318.386 -2.24683e-06 7.80878e-07)
(318.384 -6.84824e-06 -1.64431e-07)
(318.383 -1.33865e-05 -5.40143e-07)
(318.382 -1.92136e-05 3.2725e-07)
(318.38 -2.04832e-05 2.13931e-06)
(318.378 -1.84369e-05 4.27717e-06)
(318.376 -1.5327e-05 5.90613e-06)
(318.375 -1.26904e-05 7.08273e-06)
(318.373 -6.25425e-06 9.66584e-06)
(318.373 2.51031e-06 1.13625e-05)
(318.373 1.07325e-05 1.27215e-05)
(318.374 1.76952e-05 1.32664e-05)
(318.374 2.42381e-05 1.24664e-05)
(318.375 2.96144e-05 1.08712e-05)
(318.375 2.84112e-05 7.2014e-06)
(318.375 2.65013e-05 4.02288e-06)
(318.376 2.37783e-05 1.90708e-06)
(318.376 1.75495e-05 -1.09887e-06)
(318.377 1.42673e-05 -1.99952e-06)
(318.378 8.27118e-06 -4.45071e-06)
(318.379 2.26619e-06 -7.18589e-06)
(318.38 -3.23801e-06 -9.34622e-06)
(318.38 -7.01332e-06 -1.23468e-05)
(318.38 -9.01123e-06 -1.53258e-05)
(318.379 -9.30916e-06 -1.80456e-05)
(318.379 -6.82133e-06 -2.02157e-05)
(318.377 -3.69822e-06 -2.19987e-05)
(318.375 -1.18711e-06 -2.271e-05)
(318.373 1.93916e-06 -2.29371e-05)
(318.372 4.94606e-06 -2.27688e-05)
(318.369 6.26957e-06 -2.21142e-05)
(318.366 8.15934e-06 -2.04345e-05)
(318.363 8.6883e-06 -1.80968e-05)
(318.361 6.84421e-06 -1.53711e-05)
(318.359 4.5667e-06 -1.08051e-05)
(318.357 1.55038e-06 -4.20984e-06)
(318.357 -2.60603e-06 3.3051e-06)
(318.356 -4.01078e-06 1.08505e-05)
(318.355 -5.52068e-06 1.41693e-05)
(318.353 -8.77172e-06 1.8442e-05)
(318.35 -8.3641e-06 2.52939e-05)
(318.347 -5.88451e-06 2.97913e-05)
(318.344 -3.11695e-06 3.40692e-05)
(318.342 -1.51916e-06 3.5089e-05)
(318.34 6.84525e-07 3.53184e-05)
(318.339 2.58304e-06 3.53214e-05)
(318.338 4.88436e-06 3.37623e-05)
(318.336 5.69793e-06 3.01636e-05)
(318.333 6.59029e-06 2.68075e-05)
(318.33 1.02725e-07 2.17717e-05)
(318.328 -3.30805e-06 1.63849e-05)
(318.327 -7.26839e-06 1.03118e-05)
(318.328 -1.51043e-05 5.00404e-06)
(318.331 -2.00297e-05 -1.93263e-06)
(318.332 -2.04422e-05 -1.17525e-05)
(318.332 -2.16231e-05 -2.10811e-05)
(318.33 -2.2972e-05 -2.38076e-05)
(318.328 -1.99352e-05 -2.98098e-05)
(318.326 -1.32072e-05 -3.76977e-05)
(318.326 -9.53697e-06 -4.44536e-05)
(318.327 -4.75453e-06 -5.28168e-05)
(318.329 7.15831e-06 -5.86121e-05)
(318.332 1.3406e-05 -6.4271e-05)
(318.333 1.23008e-05 -6.98777e-05)
(318.333 1.70957e-05 -7.55783e-05)
(318.332 2.0752e-05 -7.78701e-05)
(318.332 2.32292e-05 -8.0014e-05)
(318.333 2.30736e-05 -8.1444e-05)
(318.333 2.11085e-05 -8.12159e-05)
(318.335 1.90162e-05 -7.98823e-05)
(318.336 1.6532e-05 -7.87084e-05)
(318.338 1.17071e-05 -7.45185e-05)
(318.34 7.37791e-06 -7.10364e-05)
(318.341 3.85972e-06 -6.69507e-05)
(318.342 -3.58875e-07 -6.14073e-05)
(318.341 -3.97634e-06 -5.4854e-05)
(318.34 -8.35369e-06 -4.88883e-05)
(318.341 -1.03879e-05 -4.48493e-05)
(318.342 -9.84452e-06 -3.95558e-05)
(318.343 -9.8227e-06 -3.68124e-05)
(318.343 -1.08555e-05 -3.30906e-05)
(318.342 -1.06754e-05 -2.98352e-05)
(318.342 -8.4046e-06 -2.74858e-05)
(318.342 -7.25348e-06 -2.5679e-05)
(318.343 -6.59215e-06 -2.42878e-05)
(318.344 -5.42279e-06 -2.33295e-05)
(318.346 -5.26429e-06 -2.22856e-05)
(318.348 -4.98409e-06 -2.18307e-05)
(318.351 -2.11514e-06 -2.10727e-05)
(318.352 -7.64757e-07 -2.04691e-05)
(318.353 -1.72852e-06 -1.91703e-05)
(318.354 -1.51274e-06 -1.81933e-05)
(318.354 4.27622e-07 -1.67988e-05)
(318.353 1.3079e-06 -1.48748e-05)
(318.353 -2.17355e-07 -1.27896e-05)
(318.354 5.0294e-07 -1.03608e-05)
(318.354 4.34796e-06 -8.7316e-06)
(318.353 5.08662e-06 -5.87706e-06)
(318.352 -7.61243e-07 -3.17822e-06)
(318.351 1.65044e-07 -3.6459e-07)
(318.352 5.8625e-06 2.1919e-06)
(318.353 5.43553e-06 4.85881e-06)
(318.356 4.62592e-06 6.74596e-06)
(318.358 4.68023e-06 7.76753e-06)
(318.359 4.47988e-06 9.37069e-06)
(318.359 3.93249e-06 1.15875e-05)
(318.359 3.85637e-06 1.26424e-05)
(318.358 2.25474e-06 1.30713e-05)
(318.359 1.41877e-06 1.41625e-05)
(318.359 2.34277e-06 1.50658e-05)
(318.36 4.36177e-06 1.62041e-05)
(318.361 1.90635e-06 1.89158e-05)
(318.363 -1.25592e-06 1.83465e-05)
(318.363 -1.88688e-07 2.14452e-05)
(318.362 -8.20827e-07 2.59324e-05)
(318.362 -1.72169e-06 2.73176e-05)
(318.362 -3.58287e-06 2.98504e-05)
(318.364 -1.46201e-06 3.32028e-05)
(318.366 1.29861e-06 3.61598e-05)
(318.368 5.2457e-06 4.16448e-05)
(318.369 -1.44037e-06 4.44972e-05)
(318.369 -1.05208e-06 4.7865e-05)
(318.368 5.01297e-06 5.12957e-05)
(318.366 7.36948e-06 5.29302e-05)
(318.365 5.53236e-06 5.50931e-05)
(318.365 6.27555e-06 5.61946e-05)
(318.364 7.20199e-06 5.68986e-05)
(318.364 4.30347e-06 5.7828e-05)
(318.365 -1.69242e-06 5.86809e-05)
(318.366 4.02461e-06 5.74358e-05)
(318.366 5.8644e-06 5.61013e-05)
(318.367 -1.58387e-06 5.4955e-05)
(318.368 -5.81948e-06 5.06901e-05)
(318.371 -1.87231e-06 4.86266e-05)
(318.373 1.76545e-06 4.34901e-05)
(318.374 -1.45337e-06 4.03712e-05)
(318.374 -2.74679e-06 3.80949e-05)
(318.375 -1.2959e-06 3.47264e-05)
(318.375 9.68218e-07 2.98042e-05)
(318.374 1.37845e-06 2.3735e-05)
(318.373 -1.6253e-06 1.67026e-05)
(318.372 -5.22838e-07 9.60057e-06)
(318.372 -9.44895e-07 7.6002e-06)
(318.372 -4.09223e-07 4.84189e-06)
(318.372 2.30685e-06 -1.88327e-06)
(318.373 2.60476e-06 -8.90033e-06)
(318.373 -1.28351e-06 -1.49371e-05)
(318.374 -2.60132e-06 -1.83419e-05)
(318.373 -1.9054e-07 -1.95562e-05)
(318.373 -3.60013e-06 -2.08885e-05)
(318.373 -1.08649e-05 -2.26176e-05)
(318.374 -3.12102e-06 -2.36386e-05)
(318.374 2.51236e-06 -2.26186e-05)
(318.376 -6.10829e-06 -1.91892e-05)
(318.379 -1.43955e-05 -1.57879e-05)
(318.381 -3.18221e-06 -1.41474e-05)
(318.383 -1.61257e-06 -1.062e-05)
(318.383 -1.29812e-05 -5.55062e-06)
(318.384 -7.25844e-06 -1.54893e-06)
(318.384 -6.09748e-06 1.5145e-06)
(318.384 -7.25777e-06 3.60166e-06)
(318.384 -3.61523e-06 6.22052e-06)
(318.385 7.48841e-06 7.99319e-06)
(318.385 6.66458e-06 1.0273e-05)
(318.383 -6.12108e-06 1.10722e-05)
(318.382 -2.35052e-07 1.01348e-05)
(318.38 1.0677e-05 9.64299e-06)
(318.378 7.75411e-06 7.41823e-06)
(318.378 -1.33875e-06 5.35189e-06)
(318.379 2.60508e-06 2.14356e-06)
(318.383 1.15556e-06 -8.2743e-07)
(318.389 1.10062e-06 -5.74177e-06)
(318.391 1.96335e-06 -1.08449e-05)
(318.39 -1.64666e-07 -1.45405e-05)
(318.385 -2.88697e-06 -1.99474e-05)
(318.373 3.58789e-06 -2.69856e-05)
(318.346 8.134e-06 -2.87122e-05)
(318.339 3.02875e-06 -3.51262e-05)
(318.366 -2.70093e-06 -4.6767e-05)
(318.492 -7.97399e-06 -4.70741e-05)
(318.796 2.97908e-05 -5.60091e-05)
(319.287 -7.85679e-05 -4.15779e-05)
(319.917 0.000167331 -7.51427e-05)
(320.627 -0.00026482 -2.90747e-05)
(321.376 0.000368625 -8.8043e-05)
(322.142 -0.000494946 -2.42201e-05)
(322.916 0.000582929 -8.77575e-05)
(323.695 -0.000684842 -2.80322e-05)
(324.478 0.000653131 -6.35788e-05)
(325.263 -0.000698262 -4.221e-05)
(326.054 0.000597389 -4.49892e-05)
(326.845 -0.000660406 -4.12477e-05)
(327.642 0.000625682 -4.78455e-05)
(328.437 -0.00075555 -2.01004e-05)
(329.239 0.000804779 -4.53643e-05)
(330.038 -0.0010696 -2.5846e-05)
(330.843 0.00104585 -2.08835e-05)
(331.644 -0.00132652 -3.1252e-05)
(332.452 0.00111461 -1.756e-05)
(333.255 -0.0013781 -4.96111e-06)
(334.065 0.00115274 -1.99339e-05)
(334.87 -0.00151771 -3.4181e-05)
(335.682 0.00139216 1.05628e-05)
(336.489 -0.00182931 1.73943e-05)
(337.302 0.00158091 -7.54534e-05)
(338.109 -0.00205852 5.18402e-05)
(338.923 0.0016657 -6.03128e-05)
(339.732 -0.0022779 6.0617e-05)
(340.546 0.00190342 -7.06835e-05)
(341.355 -0.00261277 8.62045e-05)
(342.17 0.00215877 -0.000108873)
(342.98 -0.00286311 8.64327e-05)
(343.796 0.00237685 -6.81539e-05)
(344.606 -0.00326354 0.000117741)
(345.423 0.00262262 -0.000107306)
(346.233 -0.00366862 0.000104758)
(347.051 0.00291624 -0.000101049)
(347.862 -0.00402052 0.000156667)
(348.68 0.00329823 -9.35821e-05)
(349.492 -0.00443765 0.000158666)
(350.313 0.0035812 -0.000219141)
(351.126 -0.00491666 0.000239967)
(351.949 0.00403866 -0.000116242)
(352.763 -0.00536116 0.000261328)
(353.586 0.00440581 -0.000296954)
(354.401 -0.00609847 0.000236801)
(355.225 0.00473863 -0.000170527)
(356.039 -0.00666242 0.000405116)
(356.863 0.00551097 -0.000233968)
(357.677 -0.00731266 0.000202775)
(358.502 0.00602778 -0.00032937)
(359.316 -0.00828304 0.000422432)
(360.142 0.00667012 -0.000124953)
(360.956 -0.00911007 0.000431443)
(361.781 0.007663 -0.000423066)
(362.595 -0.0100839 0.000284107)
(363.421 0.00854309 -0.000416436)
(364.234 -0.0115194 0.000654071)
(365.061 0.00952894 -0.000231606)
(365.874 -0.0129268 0.000559794)
(366.701 0.0111782 -0.000722849)
(367.513 -0.0144294 0.000449188)
(368.34 0.0130448 -0.000457716)
(369.152 -0.0167746 0.00102796)
(369.98 0.0152063 -0.000454345)
(370.791 -0.0199203 0.000729966)
(371.622 0.018803 -0.00116241)
(372.431 -0.024247 0.000952647)
(373.269 0.0250624 -0.00086992)
(374.058 -0.0322257 0.00162076)
(374.973 0.0409 -0.00168225)
(375.507 -0.0585287 0.00210025)
(347.059 2.51027e-11 -2.71823e-11)
(347.059 2.00273e-11 -2.85904e-11)
(347.059 1.03993e-11 -3.20653e-11)
(347.059 -1.33581e-12 -3.44648e-11)
(347.059 -9.06368e-13 -3.52938e-11)
(347.059 3.22123e-12 -3.69751e-11)
(347.059 3.82093e-12 -3.8143e-11)
(347.059 1.56654e-12 -3.79706e-11)
(347.059 9.3488e-13 -3.80863e-11)
(347.059 7.83963e-13 -3.89504e-11)
(347.059 -2.87012e-12 -3.69432e-11)
(347.059 -2.98391e-13 -3.71041e-11)
(347.059 8.90131e-12 -3.64685e-11)
(347.059 8.04281e-12 -3.5311e-11)
(347.059 9.05826e-12 -3.43649e-11)
(347.059 1.14475e-11 -3.44722e-11)
(347.059 1.25912e-11 -3.44333e-11)
(347.059 1.10319e-11 -3.43608e-11)
(347.059 8.93814e-12 -3.40961e-11)
(347.059 4.12825e-12 -3.39492e-11)
(347.059 1.09302e-11 -3.3578e-11)
(347.059 1.91555e-11 -3.38427e-11)
(347.059 1.94944e-11 -3.40496e-11)
(347.059 1.83735e-11 -3.38482e-11)
(347.059 1.91902e-11 -3.52422e-11)
(347.059 2.23724e-11 -3.5296e-11)
(347.059 2.38573e-11 -3.5526e-11)
(347.059 1.83706e-11 -3.6701e-11)
(347.059 7.83121e-12 -3.70346e-11)
(347.059 -7.45209e-12 -3.55857e-11)
(347.059 -2.77281e-11 -3.42419e-11)
(347.059 -2.99504e-11 -3.15462e-11)
(347.059 -2.99479e-11 -3.28679e-11)
(347.059 -2.93119e-11 -3.37633e-11)
(347.059 -2.85246e-11 -3.40362e-11)
(347.059 -3.00564e-11 -3.49851e-11)
(347.059 -2.59143e-11 -3.63084e-11)
(347.059 -1.92393e-11 -3.60676e-11)
(347.059 -1.17147e-11 -3.64697e-11)
(347.059 -3.95983e-12 -3.6562e-11)
(347.059 -1.57137e-12 -3.4442e-11)
(347.059 -1.96388e-12 -3.42562e-11)
(347.059 -6.02058e-12 -3.46744e-11)
(347.059 -1.19466e-11 -3.486e-11)
(347.059 -2.00292e-11 -3.42802e-11)
(347.059 -2.11752e-11 -3.42885e-11)
(347.059 -1.86736e-11 -3.41756e-11)
(347.059 -1.57851e-11 -3.44402e-11)
(347.059 -1.36551e-11 -3.41503e-11)
(347.059 2.39366e-11 -3.55198e-11)
(347.059 -3.28845e-10 -3.04079e-11)
(347.054 -4.15655e-09 2.26967e-10)
(346.928 2.68555e-07 -9.51442e-09)
(343.99 -4.21609e-06 8.58473e-08)
(326.645 -1.2746e-05 8.01138e-07)
(318.423 2.40587e-05 -8.67673e-07)
(318.305 1.43863e-05 -6.21457e-07)
(318.311 -2.14981e-07 -1.46939e-07)
(318.316 -6.68192e-06 1.4384e-07)
(318.319 -1.39437e-05 5.06356e-07)
(318.321 -1.60591e-05 6.01313e-07)
(318.322 -2.1573e-05 8.32389e-07)
(318.321 -1.39059e-05 6.71526e-07)
(318.321 5.46986e-06 7.99295e-08)
(318.328 1.61797e-05 -3.08129e-07)
(318.336 2.14256e-05 -6.01219e-07)
(318.34 2.08252e-05 -6.4123e-07)
(318.344 1.64893e-05 -5.886e-07)
(318.346 7.28587e-06 -3.50129e-07)
(318.344 -3.21516e-06 -5.77617e-08)
(318.336 -9.34756e-06 1.54962e-07)
(318.327 -1.24337e-05 3.1942e-07)
(318.323 -1.39158e-05 4.28315e-07)
(318.321 -1.45997e-05 5.12345e-07)
(318.319 -1.19874e-05 5.38051e-07)
(318.318 -2.59447e-06 3.34496e-07)
(318.317 7.32946e-06 3.65907e-08)
(318.321 1.1362e-05 -1.43598e-07)
(318.322 1.10055e-05 -1.97896e-07)
(318.321 1.00034e-05 -1.90412e-07)
(318.321 8.00587e-06 -1.71446e-07)
(318.322 4.34013e-06 -1.20372e-07)
(318.323 -3.17799e-06 6.7096e-08)
(318.324 -8.29892e-06 2.37168e-07)
(318.321 -9.44947e-06 3.02039e-07)
(318.318 -9.02948e-06 3.0802e-07)
(318.315 -8.09955e-06 2.83122e-07)
(318.31 -5.52875e-06 2.1523e-07)
(318.306 -4.52333e-07 8.35568e-08)
(318.303 4.59645e-06 -5.60204e-08)
(318.304 6.13191e-06 -1.09437e-07)
(318.308 5.9356e-06 -1.16935e-07)
(318.312 5.37716e-06 -1.01332e-07)
(318.317 3.00801e-06 -2.01522e-08)
(318.321 -1.23303e-06 1.09091e-07)
(318.324 -5.00009e-06 2.04538e-07)
(318.324 -5.7006e-06 1.94787e-07)
(318.32 -4.29229e-06 1.29461e-07)
(318.316 -2.50641e-06 7.31388e-08)
(318.315 -1.75876e-06 5.28778e-08)
(318.314 4.65102e-07 -9.89917e-09)
(318.315 4.15277e-06 -1.06836e-07)
(318.316 6.35776e-06 -1.42245e-07)
(318.32 5.99676e-06 -1.07336e-07)
(318.325 4.05974e-06 -3.78823e-08)
(318.329 1.99256e-06 1.98966e-08)
(318.331 1.43393e-06 3.36989e-08)
(318.333 4.57856e-07 1.04079e-07)
(318.335 -1.15695e-06 1.7222e-07)
(318.336 -2.86997e-06 1.93515e-07)
(318.335 -4.00901e-06 2.13062e-07)
(318.334 -4.65448e-06 2.18887e-07)
(318.332 -4.56459e-06 2.12834e-07)
(318.33 -4.52996e-06 2.09859e-07)
(318.327 -5.03504e-06 2.37504e-07)
(318.323 -5.18768e-06 2.53959e-07)
(318.32 -3.97873e-06 2.00009e-07)
(318.32 -2.40422e-06 1.24352e-07)
(318.32 -2.07732e-06 1.09678e-07)
(318.321 -2.06819e-06 1.01348e-07)
(318.322 -2.18456e-06 7.96031e-08)
(318.323 -9.37031e-07 2.01216e-08)
(318.324 1.18287e-06 -7.21096e-08)
(318.321 2.51691e-06 -1.5471e-07)
(318.316 2.91015e-06 -2.0011e-07)
(318.313 2.84284e-06 -2.04322e-07)
(318.31 3.25925e-06 -2.16738e-07)
(318.307 3.79068e-06 -2.14594e-07)
(318.306 2.07174e-06 -1.16284e-07)
(318.307 -8.16563e-07 1.84608e-08)
(318.311 -3.00878e-06 1.14459e-07)
(318.317 -4.74247e-06 1.7925e-07)
(318.32 -5.3967e-06 1.98988e-07)
(318.323 -5.47984e-06 1.94892e-07)
(318.326 -4.49313e-06 1.36749e-07)
(318.328 -2.00296e-06 3.60655e-08)
(318.329 -4.95491e-07 -9.37039e-09)
(318.328 9.94261e-07 -6.2326e-08)
(318.328 1.76033e-06 -9.22255e-08)
(318.327 2.06051e-06 -1.04898e-07)
(318.326 1.69393e-06 -8.44031e-08)
(318.325 -6.55937e-07 3.26884e-08)
(318.323 -2.66432e-06 1.36025e-07)
(318.324 -4.0931e-06 2.02201e-07)
(318.323 -4.42393e-06 2.17161e-07)
(318.324 -4.89553e-06 2.31776e-07)