/*--------------------------------*- C++ -*----------------------------------*\
| =========                 |                                                 |
| \\      /  F ield         | OpenFOAM: The Open Source CFD Toolbox           |
|  \\    /   O peration     | Version:  2406                                  |
|   \\  /    A nd           | Website:  www.openfoam.com                      |
|    \\/     M anipulation  |                                                 |
\*---------------------------------------------------------------------------*/
FoamFile
{
    version     2.0;
    format      ascii;
    arch        "LSB;label=32;scalar=64";
    class       volScalarField;
    location    "0.04";
    object      Ma;
}
// * * * * * * * * * * * * * * * * * * * * * * * * * * * * * * * * * * * * * //

dimensions      [0 0 0 0 0 0 0];

internalField   nonuniform List<scalar> 
83682
(
1.132
1.132
1.132
1.132
1.132
1.132
1.132
1.132
1.132
1.132
1.132
1.132
1.132
1.132
1.132
1.132
1.132
1.132
1.132
1.13199
1.1316
1.12263
1.05928
1.0208
1.01984
1.01983
1.01971
1.01953
1.0193
1.0191
1.01902
1.01898
1.01895
1.01896
1.01901
1.01906
1.01909
1.01907
1.01903
1.01895
1.01886
1.0188
1.01876
1.01877
1.01883
1.01892
1.01901
1.01907
1.01909
1.01909
1.01906
1.019
1.01898
1.01899
1.01902
1.01908
1.01914
1.0192
1.01924
1.01924
1.01922
1.01919
1.01915
1.01912
1.01911
1.01911
1.01911
1.01912
1.01912
1.0191
1.01908
1.01906
1.01903
1.01901
1.01901
1.01902
1.01902
1.01904
1.01905
1.01906
1.01905
1.01905
1.01905
1.01905
1.01906
1.01907
1.01908
1.01909
1.0191
1.01911
1.01911
1.0191
1.0191
1.01908
1.01906
1.01905
1.01905
1.01906
1.01907
1.01909
1.01911
1.01914
1.01914
1.01914
1.01914
1.01912
1.0191
1.01908
1.01908
1.01907
1.01908
1.0191
1.01911
1.01911
1.0191
1.01908
1.01906
1.01903
1.01902
1.01902
1.01903
1.01904
1.01907
1.01909
1.01911
1.01912
1.01911
1.01911
1.0191
1.0191
1.01909
1.0191
1.0191
1.0191
1.01911
1.0191
1.0191
1.01909
1.01909
1.01909
1.01908
1.01908
1.01908
1.01908
1.01908
1.01909
1.01909
1.0191
1.01911
1.01911
1.01911
1.0191
1.0191
1.01909
1.01908
1.01908
1.01908
1.01908
1.01908
1.01908
1.01908
1.01908
1.01905
1.01892
1.01885
1.01897
1.01956
1.02097
1.02314
1.02575
1.02835
1.03053
1.03217
1.03318
1.03379
1.03411
1.0343
1.03427
1.03414
1.03393
1.03369
1.0335
1.03338
1.03336
1.03335
1.03338
1.03336
1.03331
1.03315
1.03274
1.03192
1.03065
1.02922
1.02799
1.02704
1.02628
1.02563
1.02504
1.02451
1.02402
1.02357
1.02316
1.02278
1.02244
1.02215
1.0219
1.0217
1.02154
1.02142
1.02132
1.02125
1.0212
1.02116
1.02112
1.02108
1.02105
1.02101
1.02098
1.02093
1.02088
1.02084
1.02079
1.02073
1.02067
1.02062
1.02056
1.02051
1.02047
1.02045
1.02044
1.02043
1.02042
1.02042
1.02042
1.02042
1.02042
1.02042
1.02043
1.02042
1.02041
1.0204
1.02039
1.02038
1.02036
1.02034
1.02032
1.0203
1.02027
1.02024
1.02023
1.02021
1.0202
1.02019
1.0202
1.0202
1.02019
1.02018
1.02019
1.02019
1.02019
1.02019
1.02019
1.02019
1.02018
1.02016
1.02014
1.02013
1.0201
1.02008
1.02006
1.02004
1.02003
1.02
1.01998
1.01997
1.01994
1.01993
1.0199
1.01986
1.01982
1.01973
1.01956
1.01931
1.01893
1.01834
1.01747
1.01615
1.01424
1.01148
1.00756
1.00215
0.994802
0.985054
0.972466
0.956686
0.93755
0.915093
0.889799
0.862633
0.835174
0.809616
0.788456
0.774066
0.767588
0.76584
0.765154
0.764971
0.764965
0.765014
0.765153
0.765395
0.765723
0.766119
0.766407
0.766431
0.766383
0.76627
0.766125
0.766006
0.765938
0.765925
0.765935
0.765972
0.766019
0.766044
0.766038
0.765998
0.765911
0.765804
0.765755
0.765754
0.765771
0.765819
0.765902
0.765985
0.766012
0.76601
0.765988
0.765934
0.765854
0.765777
0.765733
0.765728
0.765735
0.765758
0.765791
0.765808
0.765808
0.7658
0.765773
0.765726
0.765681
0.765665
0.765665
0.765673
0.765694
0.765718
0.765724
0.765722
0.765709
0.765681
0.765638
0.765587
0.765545
0.765528
0.765527
0.765532
0.765542
0.765561
0.765584
0.7656
0.765607
0.765608
0.765612
0.765624
0.765636
0.765643
0.765646
0.765644
0.765631
0.765608
0.765583
0.765566
0.765558
0.76556
0.765569
0.765584
0.765608
0.765617
0.765619
0.765615
0.765603
0.765581
0.765547
0.765502
0.765449
0.765399
0.765357
0.765327
0.765305
0.765287
0.765269
0.765248
0.76522
0.765188
0.765155
0.765122
0.765093
0.765068
0.765049
0.765033
0.765019
0.765002
0.764981
0.764958
0.764931
0.764903
0.764876
0.764855
0.764839
0.764829
0.76482
0.76481
0.764797
0.76478
0.764758
0.764732
0.764701
0.764669
0.76464
0.764615
0.764595
0.764578
0.764563
0.764548
0.764531
0.764509
0.764482
0.764449
0.764412
0.76438
0.764363
0.764359
0.764357
0.764357
0.764358
0.764362
0.764367
0.764376
0.764385
0.764396
0.764408
0.764421
0.764436
0.764453
0.764472
0.764495
0.764519
0.764546
0.764574
0.764604
0.764637
0.764671
0.76471
0.764754
0.764805
0.764864
0.764932
0.765008
0.76509
0.765176
0.765258
0.765332
0.765394
0.765442
0.765477
0.765501
0.765516
0.765524
0.765528
0.765528
0.765528
0.765528
0.765527
0.765524
0.76552
0.765515
0.765509
0.765506
0.765506
0.765506
0.765507
0.765508
0.76551
0.765514
0.765517
0.765521
0.765523
0.765525
0.765527
0.765529
0.765531
0.765535
0.765539
0.765545
0.765553
0.765561
0.765568
0.765575
0.765581
0.765585
0.765588
0.765591
0.765595
0.765598
0.765603
0.765608
0.765613
0.765617
0.76562
0.765622
0.765622
0.765623
0.765623
0.765624
0.765625
0.765626
0.765628
0.76563
0.765631
0.765632
0.765632
0.765632
0.765632
0.765631
0.765625
0.765587
0.765349
0.763847
0.754485
0.700762
0.474802
0.0956725
0.00179138
2.33093e-06
1.582e-10
3.82373e-14
3.68668e-14
3.06357e-14
2.85993e-14
2.73669e-14
2.67767e-14
3.15532e-14
3.63206e-14
4.10983e-14
4.39429e-14
4.73957e-14
4.51531e-14
3.68741e-14
2.85095e-14
2.52082e-14
2.20849e-14
2.1077e-14
1.95909e-14
1.89243e-14
1.99912e-14
2.51839e-14
3.08699e-14
3.25708e-14
2.97008e-14
2.69927e-14
2.06256e-14
2.05036e-14
2.82149e-14
3.18215e-14
3.44533e-14
3.52664e-14
3.4192e-14
3.05624e-14
2.52393e-14
2.40557e-14
2.02223e-14
2.63954e-14
3.35284e-14
3.18781e-14
2.64077e-14
2.47027e-14
2.39365e-14
2.53821e-14
2.5907e-14
2.66273e-14
2.94614e-14
3.09501e-14
2.99192e-14
2.73901e-14
2.95755e-14
3.16552e-14
3.52614e-14
3.67562e-14
3.54232e-14
3.40663e-14
3.42848e-14
3.41948e-14
2.87569e-14
2.3355e-14
2.22403e-14
2.54935e-14
3.06803e-14
3.49928e-14
3.74322e-14
3.63098e-14
3.16349e-14
3.62047e-14
3.51331e-14
2.84375e-14
3.01637e-14
3.50019e-14
3.07657e-14
2.07117e-14
1.41966e-14
1.54458e-14
1.56572e-14
2.64088e-14
3.58185e-14
4.93386e-14
5.63386e-14
5.80243e-14
5.66566e-14
5.16973e-14
4.8089e-14
4.8381e-14
4.27729e-14
4.35253e-14
3.89729e-14
3.46388e-14
3.14749e-14
2.86105e-14
2.94169e-14
3.63848e-14
3.9039e-14
3.45317e-14
2.98792e-14
2.34082e-14
1.88334e-14
2.13279e-14
2.32815e-14
1.92019e-14
1.59295e-14
1.32888e-14
1.17624e-14
1.25985e-14
1.66818e-14
2.24671e-14
2.07435e-14
2.47784e-14
2.8019e-14
2.9143e-14
2.65034e-14
3.17723e-14
3.11345e-14
2.60958e-14
2.58129e-14
2.36207e-14
1.80808e-14
1.95762e-14
2.06819e-14
2.55494e-14
3.16308e-14
3.54036e-14
3.62664e-14
3.59238e-14
3.39487e-14
3.34186e-14
3.08794e-14
3.02314e-14
3.16765e-14
3.30171e-14
3.60772e-14
3.86338e-14
3.43142e-14
2.72474e-14
1.90714e-14
1.03905e-14
1.14958e-14
1.82736e-14
1.64305e-14
1.56969e-14
1.60658e-14
1.70826e-14
1.59173e-14
2.12781e-14
2.56612e-14
2.41515e-14
2.30301e-14
2.64031e-14
1.132
1.132
1.132
1.132
1.132
1.132
1.132
1.132
1.132
1.132
1.132
1.132
1.132
1.132
1.132
1.132
1.132
1.132
1.132
1.13199
1.1316
1.12263
1.05928
1.0208
1.01984
1.01983
1.01971
1.01953
1.0193
1.0191
1.01902
1.01898
1.01895
1.01896
1.01901
1.01906
1.01909
1.01907
1.01903
1.01895
1.01886
1.0188
1.01876
1.01877
1.01883
1.01892
1.01901
1.01907
1.01909
1.01909
1.01906
1.019
1.01898
1.01899
1.01902
1.01908
1.01914
1.0192
1.01924
1.01924
1.01922
1.01919
1.01915
1.01912
1.01911
1.01911
1.01911
1.01912
1.01912
1.0191
1.01908
1.01906
1.01903
1.01901
1.01901
1.01902
1.01902
1.01904
1.01905
1.01906
1.01905
1.01905
1.01905
1.01905
1.01906
1.01907
1.01908
1.01909
1.0191
1.01911
1.01911
1.0191
1.0191
1.01908
1.01906
1.01905
1.01905
1.01906
1.01907
1.01909
1.01911
1.01914
1.01914
1.01914
1.01914
1.01912
1.0191
1.01908
1.01908
1.01907
1.01908
1.0191
1.01911
1.01911
1.0191
1.01908
1.01906
1.01903
1.01902
1.01902
1.01903
1.01904
1.01907
1.01909
1.01911
1.01912
1.01911
1.01911
1.0191
1.0191
1.01909
1.0191
1.0191
1.0191
1.01911
1.0191
1.0191
1.01909
1.01909
1.01909
1.01908
1.01908
1.01908
1.01908
1.01908
1.01909
1.01909
1.0191
1.01911
1.01911
1.01911
1.0191
1.0191
1.01909
1.01908
1.01908
1.01908
1.01908
1.01908
1.01908
1.01908
1.01908
1.01905
1.01892
1.01885
1.01896
1.01956
1.02097
1.02315
1.02576
1.02835
1.03051
1.03214
1.03315
1.03378
1.03413
1.03434
1.0343
1.03416
1.03393
1.03368
1.03348
1.03336
1.03333
1.03333
1.03337
1.03337
1.03332
1.03315
1.03274
1.03192
1.03065
1.02922
1.02799
1.02705
1.02628
1.02563
1.02504
1.02451
1.02402
1.02357
1.02316
1.02278
1.02244
1.02215
1.0219
1.0217
1.02155
1.02142
1.02132
1.02125
1.0212
1.02116
1.02112
1.02108
1.02105
1.02101
1.02098
1.02093
1.02088
1.02084
1.02079
1.02073
1.02067
1.02062
1.02056
1.02051
1.02047
1.02045
1.02044
1.02043
1.02042
1.02042
1.02042
1.02042
1.02042
1.02042
1.02043
1.02042
1.02041
1.0204
1.02039
1.02038
1.02036
1.02034
1.02032
1.0203
1.02027
1.02024
1.02023
1.02021
1.0202
1.02019
1.0202
1.0202
1.02019
1.02018
1.02019
1.02019
1.02019
1.02019
1.02019
1.02019
1.02018
1.02016
1.02014
1.02013
1.0201
1.02008
1.02006
1.02004
1.02003
1.02
1.01998
1.01997
1.01994
1.01993
1.0199
1.01986
1.01982
1.01973
1.01956
1.01931
1.01894
1.01835
1.01748
1.01617
1.01427
1.01153
1.00764
1.00228
0.994996
0.985324
0.972824
0.957144
0.938101
0.915724
0.890481
0.863317
0.835788
0.810089
0.788771
0.774237
0.767664
0.765887
0.765181
0.76498
0.764971
0.765016
0.765153
0.765393
0.76572
0.766115
0.766404
0.766429
0.766381
0.766269
0.766124
0.766006
0.765937
0.765924
0.765934
0.765971
0.766018
0.766042
0.766037
0.765997
0.765909
0.765803
0.765754
0.765753
0.76577
0.765818
0.765901
0.765983
0.766011
0.766009
0.765987
0.765934
0.765854
0.765776
0.765733
0.765727
0.765735
0.765757
0.765791
0.765808
0.765807
0.765799
0.765773
0.765726
0.765681
0.765665
0.765664
0.765672
0.765694
0.765717
0.765724
0.765721
0.765709
0.76568
0.765637
0.765586
0.765544
0.765527
0.765525
0.765529
0.76554
0.765559
0.765584
0.765603
0.765611
0.765614
0.76562
0.765633
0.765646
0.765654
0.765657
0.765653
0.765638
0.765614
0.765587
0.765567
0.765556
0.765556
0.765564
0.765579
0.765604
0.765614
0.765616
0.765613
0.765602
0.76558
0.765547
0.765501
0.765449
0.765399
0.765358
0.765327
0.765306
0.765289
0.765271
0.765249
0.765221
0.765189
0.765155
0.765122
0.765093
0.765068
0.765049
0.765033
0.765019
0.765002
0.764982
0.764958
0.764931
0.764903
0.764877
0.764855
0.76484
0.764829
0.76482
0.76481
0.764797
0.76478
0.764759
0.764732
0.764701
0.764669
0.76464
0.764615
0.764595
0.764578
0.764564
0.764548
0.764531
0.764509
0.764482
0.764449
0.764412
0.76438
0.764363
0.764359
0.764357
0.764357
0.764358
0.764361
0.764367
0.764376
0.764385
0.764396
0.764408
0.764421
0.764435
0.764452
0.764472
0.764494
0.764519
0.764546
0.764574
0.764604
0.764636
0.764671
0.76471
0.764754
0.764805
0.764864
0.764932
0.765008
0.76509
0.765176
0.765258
0.765332
0.765394
0.765442
0.765477
0.765501
0.765516
0.765524
0.765528
0.765528
0.765528
0.765528
0.765527
0.765524
0.76552
0.765515
0.765509
0.765506
0.765506
0.765506
0.765506
0.765508
0.76551
0.765514
0.765517
0.765521
0.765523
0.765525
0.765527
0.765529
0.765531
0.765535
0.765539
0.765545
0.765553
0.765561
0.765568
0.765575
0.765581
0.765585
0.765588
0.765591
0.765595
0.765598
0.765603
0.765608
0.765613
0.765617
0.76562
0.765622
0.765622
0.765623
0.765623
0.765624
0.765625
0.765626
0.765628
0.76563
0.765631
0.765632
0.765632
0.765632
0.765632
0.765631
0.765625
0.765587
0.76535
0.763847
0.754485
0.700763
0.474804
0.095673
0.00179139
2.33095e-06
1.58198e-10
3.96897e-14
3.65713e-14
3.08233e-14
3.1568e-14
2.85588e-14
2.57977e-14
2.94161e-14
3.43198e-14
4.0611e-14
4.31912e-14
4.6319e-14
4.23451e-14
3.68082e-14
2.90213e-14
2.79118e-14
2.51044e-14
2.38665e-14
2.3171e-14
2.03149e-14
1.74643e-14
2.1921e-14
2.76786e-14
3.04008e-14
2.87894e-14
2.66898e-14
1.96066e-14
2.08617e-14
2.90163e-14
3.28393e-14
3.39019e-14
3.3018e-14
3.11865e-14
3.03739e-14
2.64497e-14
2.72199e-14
2.51523e-14
2.23755e-14
2.79651e-14
3.25872e-14
2.83531e-14
2.66406e-14
2.47512e-14
2.73223e-14
2.77093e-14
3.00754e-14
3.16059e-14
2.94542e-14
3.00443e-14
3.16953e-14
3.4009e-14
3.45855e-14
3.54691e-14
3.54517e-14
3.44326e-14
3.46294e-14
3.3041e-14
3.15338e-14
2.98651e-14
2.62848e-14
2.55851e-14
2.83666e-14
3.24439e-14
3.59936e-14
3.66129e-14
3.61648e-14
3.40313e-14
3.41929e-14
3.4289e-14
3.07687e-14
3.2563e-14
3.14056e-14
2.81981e-14
2.27553e-14
1.66571e-14
1.47426e-14
1.74088e-14
2.61014e-14
3.55644e-14
4.84576e-14
5.69492e-14
5.6412e-14
5.73246e-14
5.47665e-14
5.16039e-14
4.67256e-14
4.33535e-14
4.56285e-14
4.22497e-14
3.69033e-14
3.25927e-14
3.32344e-14
3.42947e-14
3.66522e-14
3.64036e-14
3.1191e-14
2.79573e-14
2.3527e-14
1.98644e-14
1.9925e-14
2.04563e-14
1.73206e-14
1.23348e-14
1.06152e-14
1.23056e-14
1.51141e-14
1.73549e-14
1.93047e-14
2.18271e-14
2.68057e-14
3.11956e-14
3.13287e-14
3.06932e-14
3.50983e-14
3.24435e-14
2.92426e-14
2.81727e-14
2.41285e-14
1.80803e-14
2.05712e-14
2.00522e-14
2.62681e-14
3.15341e-14
3.82142e-14
3.50168e-14
3.46468e-14
3.29572e-14
3.05066e-14
3.22865e-14
3.12843e-14
3.17217e-14
3.35091e-14
3.63672e-14
3.66483e-14
3.34438e-14
2.63054e-14
2.18276e-14
1.60857e-14
1.54086e-14
2.14104e-14
2.04368e-14
1.97588e-14
2.16415e-14
2.11005e-14
1.99079e-14
2.29667e-14
2.60413e-14
2.3007e-14
2.37531e-14
2.69188e-14
1.132
1.132
1.132
1.132
1.132
1.132
1.132
1.132
1.132
1.132
1.132
1.132
1.132
1.132
1.132
1.132
1.132
1.132
1.132
1.13199
1.1316
1.12263
1.05928
1.0208
1.01984
1.01983
1.01971
1.01953
1.0193
1.0191
1.01902
1.01898
1.01895
1.01896
1.01901
1.01906
1.01909
1.01907
1.01903
1.01895
1.01886
1.0188
1.01876
1.01877
1.01883
1.01892
1.01901
1.01907
1.01909
1.01909
1.01906
1.019
1.01898
1.01899
1.01902
1.01908
1.01914
1.0192
1.01924
1.01924
1.01922
1.01919
1.01915
1.01912
1.01911
1.01911
1.01911
1.01912
1.01912
1.0191
1.01908
1.01906
1.01903
1.01901
1.01901
1.01902
1.01902
1.01904
1.01905
1.01906
1.01905
1.01905
1.01905
1.01905
1.01906
1.01907
1.01908
1.01909
1.0191
1.01911
1.01911
1.0191
1.0191
1.01908
1.01906
1.01905
1.01905
1.01906
1.01907
1.01909
1.01911
1.01914
1.01914
1.01914
1.01914
1.01912
1.0191
1.01908
1.01908
1.01907
1.01908
1.0191
1.01911
1.0191
1.0191
1.01908
1.01906
1.01903
1.01902
1.01902
1.01903
1.01904
1.01907
1.01909
1.01911
1.01912
1.01911
1.01911
1.0191
1.0191
1.01909
1.0191
1.0191
1.0191
1.01911
1.0191
1.0191
1.01909
1.01909
1.01909
1.01908
1.01908
1.01908
1.01908
1.01908
1.01909
1.01909
1.0191
1.01911
1.01911
1.01911
1.0191
1.0191
1.01909
1.01908
1.01908
1.01908
1.01908
1.01908
1.01908
1.01908
1.01908
1.01905
1.01892
1.01885
1.01896
1.01956
1.02097
1.02316
1.02577
1.02836
1.0305
1.03211
1.03313
1.03378
1.03415
1.03438
1.03433
1.03418
1.03393
1.03367
1.03347
1.03334
1.03331
1.03331
1.03336
1.03337
1.03332
1.03315
1.03274
1.03192
1.03065
1.02922
1.028
1.02705
1.02629
1.02563
1.02504
1.02451
1.02403
1.02358
1.02316
1.02278
1.02244
1.02215
1.0219
1.0217
1.02155
1.02142
1.02132
1.02125
1.0212
1.02116
1.02112
1.02108
1.02105
1.02101
1.02098
1.02093
1.02088
1.02084
1.02079
1.02073
1.02067
1.02062
1.02056
1.02051
1.02047
1.02045
1.02044
1.02043
1.02042
1.02042
1.02042
1.02042
1.02042
1.02042
1.02043
1.02042
1.02041
1.0204
1.02039
1.02038
1.02036
1.02034
1.02032
1.0203
1.02027
1.02024
1.02023
1.02021
1.0202
1.02019
1.0202
1.0202
1.02019
1.02018
1.02019
1.02019
1.02019
1.02019
1.02019
1.02019
1.02018
1.02016
1.02014
1.02013
1.0201
1.02008
1.02006
1.02004
1.02003
1.02
1.01998
1.01997
1.01995
1.01993
1.0199
1.01987
1.01983
1.01973
1.01956
1.01932
1.01895
1.01836
1.01749
1.01617
1.0143
1.01157
1.00772
1.0024
0.995161
0.98555
0.973117
0.957505
0.938515
0.916167
0.890922
0.86372
0.83612
0.810324
0.788919
0.774317
0.767711
0.765942
0.765225
0.765004
0.764987
0.765026
0.765157
0.765394
0.765719
0.766111
0.7664
0.766424
0.766377
0.766265
0.766121
0.766003
0.765935
0.765922
0.765932
0.765969
0.766015
0.766039
0.766034
0.765994
0.765907
0.7658
0.765751
0.76575
0.765768
0.765816
0.765899
0.765981
0.766009
0.766007
0.765985
0.765932
0.765852
0.765775
0.765731
0.765726
0.765733
0.765755
0.765789
0.765806
0.765806
0.765797
0.765771
0.765724
0.765679
0.765663
0.765663
0.765671
0.765692
0.765716
0.765722
0.76572
0.765707
0.765679
0.765635
0.765583
0.76554
0.765522
0.765519
0.765523
0.765534
0.765555
0.765584
0.765608
0.765622
0.765631
0.765644
0.765661
0.765678
0.76569
0.765692
0.765682
0.76566
0.76563
0.765599
0.765573
0.765556
0.76555
0.765554
0.765568
0.765592
0.765604
0.765608
0.765607
0.765598
0.765578
0.765545
0.7655
0.765448
0.765399
0.765358
0.765329
0.765308
0.765291
0.765273
0.765251
0.765223
0.765191
0.765157
0.765123
0.765093
0.765068
0.765049
0.765033
0.765019
0.765002
0.764982
0.764958
0.764931
0.764903
0.764877
0.764855
0.76484
0.764829
0.76482
0.764809
0.764797
0.76478
0.764759
0.764732
0.764701
0.764669
0.76464
0.764615
0.764595
0.764578
0.764563
0.764548
0.764531
0.764509
0.764482
0.764449
0.764412
0.76438
0.764363
0.764359
0.764357
0.764357
0.764358
0.764361
0.764367
0.764376
0.764385
0.764396
0.764408
0.764421
0.764435
0.764452
0.764472
0.764494
0.764519
0.764546
0.764574
0.764605
0.764637
0.764671
0.76471
0.764754
0.764805
0.764864
0.764932
0.765008
0.76509
0.765176
0.765258
0.765333
0.765394
0.765442
0.765477
0.765501
0.765516
0.765524
0.765528
0.765528
0.765528
0.765528
0.765527
0.765524
0.76552
0.765515
0.765509
0.765506
0.765506
0.765506
0.765506
0.765508
0.76551
0.765514
0.765517
0.765521
0.765523
0.765525
0.765527
0.765529
0.765531
0.765535
0.765539
0.765545
0.765553
0.765561
0.765568
0.765575
0.765581
0.765585
0.765588
0.765591
0.765595
0.765598
0.765603
0.765608
0.765613
0.765617
0.76562
0.765622
0.765622
0.765623
0.765623
0.765624
0.765625
0.765626
0.765628
0.76563
0.765631
0.765632
0.765632
0.765632
0.765632
0.765631
0.765625
0.765587
0.76535
0.763847
0.754485
0.700762
0.474803
0.095673
0.00179139
2.33095e-06
1.582e-10
3.71778e-14
3.4684e-14
3.14388e-14
3.25152e-14
3.0942e-14
3.07868e-14
3.2253e-14
3.69034e-14
3.98361e-14
4.19318e-14
4.24741e-14
3.69018e-14
2.97679e-14
3.10599e-14
3.20525e-14
2.94226e-14
2.76968e-14
2.9161e-14
2.43368e-14
2.1403e-14
2.25945e-14
2.80061e-14
3.11622e-14
2.73797e-14
2.60652e-14
2.00467e-14
2.12944e-14
2.92326e-14
3.4172e-14
3.45283e-14
3.28107e-14
3.15491e-14
2.86463e-14
2.66786e-14
2.70153e-14
2.76633e-14
2.69245e-14
2.35566e-14
2.70545e-14
2.84148e-14
2.44567e-14
2.68791e-14
2.73474e-14
2.87437e-14
3.30116e-14
3.47203e-14
3.18702e-14
3.39912e-14
3.6759e-14
3.64769e-14
3.79982e-14
3.75351e-14
3.67325e-14
3.69659e-14
3.64013e-14
3.29051e-14
3.3492e-14
3.07146e-14
3.15301e-14
3.29728e-14
3.10913e-14
3.35771e-14
3.68699e-14
3.89523e-14
3.56928e-14
3.50534e-14
3.48138e-14
3.60317e-14
3.27352e-14
3.22097e-14
3.07944e-14
2.83332e-14
2.55484e-14
2.03782e-14
1.8006e-14
1.96056e-14
2.77517e-14
3.7475e-14
4.64908e-14
5.15272e-14
5.45772e-14
5.68277e-14
5.39092e-14
5.10845e-14
4.86126e-14
4.44834e-14
4.38037e-14
4.13516e-14
3.8501e-14
3.61598e-14
3.83803e-14
3.72191e-14
3.78141e-14
3.4945e-14
3.26342e-14
3.11504e-14
2.49565e-14
1.98692e-14
1.97344e-14
1.84402e-14
1.76303e-14
1.4935e-14
1.54325e-14
1.76613e-14
1.91428e-14
1.86704e-14
2.06552e-14
2.51152e-14
2.82432e-14
2.99652e-14
3.17241e-14
3.48416e-14
3.72147e-14
3.42323e-14
3.19201e-14
2.95878e-14
2.45292e-14
2.00252e-14
2.08223e-14
2.0437e-14
2.6155e-14
2.97706e-14
3.4496e-14
3.50443e-14
3.41199e-14
3.32738e-14
3.15278e-14
3.33758e-14
3.22773e-14
3.27802e-14
3.46897e-14
3.52478e-14
3.42972e-14
3.28453e-14
2.75092e-14
2.17391e-14
1.90167e-14
2.01568e-14
2.12329e-14
2.25198e-14
2.40122e-14
2.60781e-14
2.36268e-14
2.2667e-14
2.4809e-14
2.78411e-14
2.60784e-14
2.70372e-14
2.97464e-14
1.132
1.132
1.132
1.132
1.132
1.132
1.132
1.132
1.132
1.132
1.132
1.132
1.132
1.132
1.132
1.132
1.132
1.132
1.132
1.13199
1.1316
1.12263
1.05928
1.0208
1.01984
1.01983
1.01971
1.01953
1.0193
1.0191
1.01902
1.01898
1.01895
1.01896
1.01901
1.01906
1.01909
1.01907
1.01903
1.01895
1.01886
1.0188
1.01876
1.01877
1.01883
1.01892
1.01901
1.01907
1.01909
1.01909
1.01906
1.019
1.01898
1.01899
1.01902
1.01908
1.01914
1.0192
1.01924
1.01924
1.01922
1.01919
1.01915
1.01912
1.01911
1.01911
1.01911
1.01912
1.01912
1.0191
1.01908
1.01906
1.01903
1.01901
1.01901
1.01902
1.01902
1.01904
1.01905
1.01906
1.01905
1.01905
1.01905
1.01905
1.01906
1.01907
1.01908
1.01909
1.0191
1.01911
1.01911
1.0191
1.0191
1.01908
1.01906
1.01905
1.01905
1.01906
1.01907
1.01909
1.01911
1.01914
1.01914
1.01914
1.01914
1.01912
1.0191
1.01908
1.01908
1.01907
1.01908
1.0191
1.01911
1.0191
1.0191
1.01908
1.01906
1.01903
1.01902
1.01902
1.01903
1.01904
1.01907
1.01909
1.01911
1.01912
1.01911
1.01911
1.0191
1.0191
1.01909
1.0191
1.0191
1.0191
1.01911
1.0191
1.0191
1.01909
1.01909
1.01909
1.01908
1.01908
1.01908
1.01908
1.01908
1.01909
1.01909
1.0191
1.01911
1.01911
1.01911
1.0191
1.0191
1.01909
1.01908
1.01908
1.01908
1.01908
1.01908
1.01908
1.01908
1.01908
1.01905
1.01892
1.01884
1.01896
1.01956
1.02097
1.02317
1.02578
1.02836
1.03048
1.03208
1.03311
1.03377
1.03416
1.03441
1.03436
1.03419
1.03393
1.03366
1.03345
1.03332
1.03329
1.0333
1.03335
1.03338
1.03333
1.03316
1.03274
1.03192
1.03065
1.02922
1.028
1.02705
1.02629
1.02563
1.02504
1.02451
1.02403
1.02358
1.02316
1.02278
1.02244
1.02215
1.02191
1.02171
1.02155
1.02142
1.02132
1.02125
1.0212
1.02116
1.02112
1.02108
1.02105
1.02102
1.02098
1.02093
1.02088
1.02084
1.02079
1.02073
1.02067
1.02062
1.02056
1.02051
1.02047
1.02045
1.02044
1.02043
1.02042
1.02042
1.02042
1.02042
1.02042
1.02042
1.02043
1.02042
1.02041
1.0204
1.02039
1.02038
1.02036
1.02034
1.02032
1.0203
1.02027
1.02024
1.02023
1.02021
1.0202
1.02019
1.0202
1.0202
1.02019
1.02018
1.02019
1.02019
1.02019
1.02019
1.02019
1.02019
1.02018
1.02015
1.02014
1.02013
1.02011
1.02008
1.02006
1.02004
1.02003
1.02
1.01998
1.01997
1.01995
1.01993
1.0199
1.01988
1.01984
1.01973
1.01956
1.01933
1.01896
1.01837
1.01749
1.01619
1.01433
1.01162
1.0078
1.00252
0.995318
0.985749
0.973346
0.957753
0.938748
0.916356
0.891057
0.863811
0.836192
0.810417
0.789046
0.774425
0.767787
0.766009
0.765279
0.765037
0.765011
0.765043
0.765168
0.765399
0.76572
0.766108
0.766394
0.766418
0.76637
0.766258
0.766115
0.765997
0.76593
0.765917
0.765928
0.765964
0.76601
0.766034
0.766029
0.765988
0.765901
0.765795
0.765747
0.765746
0.765764
0.765812
0.765895
0.765977
0.766006
0.766003
0.765982
0.765928
0.765849
0.765772
0.765728
0.765722
0.76573
0.765752
0.765786
0.765802
0.765802
0.765794
0.765768
0.765721
0.765676
0.765659
0.765659
0.765667
0.765689
0.765713
0.765719
0.765717
0.765704
0.765674
0.76563
0.765577
0.765532
0.765512
0.765508
0.76551
0.765523
0.765548
0.765583
0.765618
0.765643
0.765668
0.765693
0.76572
0.765744
0.765762
0.765763
0.765743
0.765707
0.765666
0.765624
0.765585
0.765557
0.765541
0.765537
0.765547
0.765569
0.765584
0.765591
0.765594
0.765588
0.765573
0.765542
0.765497
0.765447
0.765399
0.76536
0.765331
0.765311
0.765295
0.765278
0.765255
0.765227
0.765194
0.765159
0.765125
0.765094
0.765069
0.765049
0.765033
0.765018
0.765002
0.764981
0.764958
0.764931
0.764904
0.764877
0.764855
0.76484
0.764829
0.764819
0.764809
0.764797
0.76478
0.764759
0.764732
0.764701
0.764669
0.76464
0.764615
0.764595
0.764578
0.764563
0.764548
0.764531
0.764509
0.764482
0.764449
0.764412
0.76438
0.764363
0.764359
0.764357
0.764357
0.764358
0.764361
0.764367
0.764376
0.764385
0.764396
0.764408
0.764421
0.764435
0.764452
0.764472
0.764494
0.764519
0.764546
0.764574
0.764605
0.764637
0.764671
0.76471
0.764754
0.764805
0.764864
0.764932
0.765008
0.76509
0.765176
0.765258
0.765333
0.765394
0.765442
0.765477
0.765501
0.765516
0.765524
0.765528
0.765528
0.765528
0.765528
0.765527
0.765524
0.76552
0.765515
0.765509
0.765506
0.765506
0.765506
0.765506
0.765508
0.76551
0.765514
0.765518
0.765521
0.765523
0.765525
0.765527
0.765529
0.765531
0.765535
0.765539
0.765545
0.765553
0.765561
0.765568
0.765575
0.765581
0.765585
0.765588
0.765591
0.765595
0.765598
0.765603
0.765608
0.765613
0.765617
0.76562
0.765622
0.765622
0.765623
0.765623
0.765624
0.765625
0.765626
0.765628
0.76563
0.765631
0.765632
0.765632
0.765632
0.765632
0.765631
0.765625
0.765587
0.765349
0.763847
0.754485
0.700762
0.474803
0.095673
0.00179139
2.33095e-06
1.58202e-10
3.53738e-14
3.57352e-14
3.42019e-14
3.10463e-14
2.90075e-14
2.90077e-14
3.1677e-14
3.41265e-14
3.509e-14
3.69848e-14
3.63981e-14
3.43962e-14
3.143e-14
3.35521e-14
3.17933e-14
2.88676e-14
2.62031e-14
2.61697e-14
2.29188e-14
1.87547e-14
1.84737e-14
2.1614e-14
2.41854e-14
2.25639e-14
1.96142e-14
1.84948e-14
2.11514e-14
2.64241e-14
3.04475e-14
3.11912e-14
3.27427e-14
3.19776e-14
2.93001e-14
2.52881e-14
2.59754e-14
2.36829e-14
2.51305e-14
2.28966e-14
1.83607e-14
2.17451e-14
1.93347e-14
2.4743e-14
2.32724e-14
2.67796e-14
2.93501e-14
2.97161e-14
3.03608e-14
3.12966e-14
3.31291e-14
3.37704e-14
3.63857e-14
3.8238e-14
3.68265e-14
3.861e-14
3.78189e-14
3.62922e-14
3.56216e-14
3.35621e-14
3.18807e-14
3.26006e-14
3.35079e-14
3.38282e-14
3.5433e-14
3.71052e-14
3.46987e-14
3.34497e-14
3.21975e-14
3.46484e-14
3.42593e-14
3.25924e-14
2.95147e-14
2.7665e-14
2.54196e-14
2.34681e-14
2.13939e-14
2.15397e-14
2.79811e-14
3.45034e-14
4.06123e-14
4.27112e-14
4.7024e-14
4.99911e-14
4.98628e-14
5.0169e-14
4.60761e-14
4.1337e-14
3.92538e-14
3.89239e-14
3.73327e-14
3.73093e-14
3.6657e-14
3.49252e-14
3.5366e-14
3.44532e-14
3.16045e-14
2.8928e-14
2.48513e-14
2.07526e-14
1.9988e-14
1.87785e-14
1.84384e-14
1.86074e-14
1.73196e-14
1.87568e-14
1.80792e-14
1.81297e-14
2.17104e-14
2.53185e-14
2.70524e-14
2.72116e-14
2.96748e-14
3.16366e-14
3.13421e-14
2.9916e-14
2.85187e-14
2.67369e-14
2.29157e-14
1.87474e-14
1.89977e-14
1.9517e-14
2.43228e-14
2.7058e-14
2.76464e-14
2.92901e-14
2.95356e-14
3.00755e-14
3.10626e-14
3.23535e-14
2.84328e-14
2.9232e-14
2.93729e-14
2.81422e-14
2.8536e-14
2.61228e-14
2.12067e-14
1.58012e-14
1.53784e-14
1.92259e-14
2.04767e-14
2.1657e-14
2.1699e-14
2.12217e-14
1.8706e-14
1.98486e-14
2.22435e-14
2.65908e-14
2.63655e-14
2.43223e-14
2.71157e-14
1.132
1.132
1.132
1.132
1.132
1.132
1.132
1.132
1.132
1.132
1.132
1.132
1.132
1.132
1.132
1.132
1.132
1.132
1.132
1.13199
1.1316
1.12263
1.05928
1.0208
1.01984
1.01983
1.01971
1.01953
1.0193
1.0191
1.01902
1.01898
1.01895
1.01896
1.01901
1.01906
1.01909
1.01907
1.01903
1.01895
1.01886
1.0188
1.01876
1.01877
1.01883
1.01892
1.01901
1.01907
1.01909
1.01909
1.01906
1.019
1.01898
1.01899
1.01902
1.01908
1.01914
1.0192
1.01924
1.01924
1.01922
1.01919
1.01915
1.01912
1.01911
1.01911
1.01911
1.01912
1.01912
1.0191
1.01908
1.01906
1.01903
1.01901
1.01901
1.01902
1.01902
1.01904
1.01905
1.01906
1.01905
1.01905
1.01905
1.01905
1.01906
1.01907
1.01908
1.01909
1.0191
1.01911
1.01911
1.0191
1.0191
1.01908
1.01906
1.01905
1.01905
1.01906
1.01907
1.01909
1.01911
1.01914
1.01914
1.01914
1.01914
1.01912
1.0191
1.01908
1.01908
1.01907
1.01908
1.0191
1.01911
1.0191
1.0191
1.01908
1.01906
1.01903
1.01902
1.01902
1.01903
1.01904
1.01907
1.01909
1.01911
1.01912
1.01911
1.01911
1.0191
1.0191
1.01909
1.0191
1.0191
1.0191
1.01911
1.0191
1.0191
1.01909
1.01909
1.01909
1.01908
1.01908
1.01908
1.01908
1.01908
1.01909
1.01909
1.0191
1.01911
1.01911
1.01911
1.0191
1.0191
1.01909
1.01908
1.01908
1.01908
1.01908
1.01908
1.01908
1.01908
1.01908
1.01905
1.01892
1.01884
1.01896
1.01956
1.02098
1.02317
1.02578
1.02837
1.03047
1.03206
1.03309
1.03377
1.03418
1.03443
1.03438
1.0342
1.03394
1.03366
1.03344
1.03331
1.03328
1.03329
1.03335
1.03339
1.03334
1.03316
1.03274
1.03192
1.03065
1.02922
1.028
1.02706
1.02629
1.02563
1.02504
1.02451
1.02403
1.02358
1.02316
1.02278
1.02244
1.02215
1.02191
1.02171
1.02155
1.02142
1.02132
1.02125
1.0212
1.02116
1.02112
1.02108
1.02105
1.02102
1.02098
1.02093
1.02088
1.02084
1.02079
1.02073
1.02067
1.02062
1.02056
1.02051
1.02047
1.02045
1.02044
1.02043
1.02042
1.02042
1.02042
1.02042
1.02042
1.02042
1.02043
1.02042
1.02041
1.0204
1.02039
1.02038
1.02036
1.02034
1.02032
1.0203
1.02027
1.02024
1.02023
1.02021
1.0202
1.0202
1.0202
1.0202
1.02019
1.02018
1.02019
1.02019
1.02019
1.02019
1.02019
1.02019
1.02018
1.02015
1.02014
1.02013
1.02011
1.02008
1.02006
1.02004
1.02003
1.02
1.01998
1.01997
1.01996
1.01993
1.0199
1.01989
1.01984
1.01973
1.01957
1.01934
1.01897
1.01838
1.0175
1.0162
1.01435
1.01165
1.00787
1.0026
0.995426
0.985883
0.973488
0.95788
0.938813
0.916353
0.891019
0.863757
0.836161
0.810451
0.789131
0.774497
0.767829
0.766057
0.765322
0.765069
0.765036
0.765062
0.765181
0.765406
0.765721
0.766105
0.766388
0.766411
0.766362
0.76625
0.766106
0.765989
0.765922
0.76591
0.76592
0.765957
0.766003
0.766026
0.766021
0.76598
0.765893
0.765788
0.76574
0.76574
0.765758
0.765806
0.765889
0.765972
0.766
0.765998
0.765976
0.765922
0.765843
0.765766
0.765723
0.765718
0.765725
0.765747
0.76578
0.765797
0.765797
0.765788
0.765762
0.765715
0.76567
0.765654
0.765654
0.765662
0.765684
0.765708
0.765714
0.765712
0.765699
0.765668
0.765622
0.765568
0.765521
0.765497
0.765491
0.765494
0.765508
0.765537
0.76558
0.765628
0.765676
0.765723
0.765769
0.76581
0.765845
0.765869
0.765867
0.765834
0.765783
0.765724
0.765664
0.765607
0.765563
0.765536
0.765522
0.765524
0.765541
0.765557
0.765568
0.765574
0.765574
0.765563
0.765536
0.765494
0.765446
0.765399
0.765361
0.765335
0.765317
0.765301
0.765284
0.765262
0.765233
0.765199
0.765163
0.765128
0.765096
0.76507
0.765049
0.765032
0.765018
0.765001
0.764981
0.764958
0.764932
0.764904
0.764877
0.764855
0.76484
0.764829
0.764819
0.764809
0.764797
0.76478
0.764759
0.764732
0.764701
0.76467
0.76464
0.764615
0.764595
0.764578
0.764564
0.764548
0.764531
0.764509
0.764482
0.764449
0.764412
0.76438
0.764364
0.764359
0.764357
0.764357
0.764358
0.764362
0.764367
0.764376
0.764385
0.764396
0.764408
0.764421
0.764435
0.764452
0.764472
0.764494
0.764519
0.764546
0.764575
0.764605
0.764637
0.764671
0.76471
0.764754
0.764805
0.764864
0.764932
0.765008
0.76509
0.765176
0.765258
0.765333
0.765395
0.765442
0.765477
0.765501