/*--------------------------------*- C++ -*----------------------------------*\
| =========                 |                                                 |
| \\      /  F ield         | OpenFOAM: The Open Source CFD Toolbox           |
|  \\    /   O peration     | Version:  2406                                  |
|   \\  /    A nd           | Website:  www.openfoam.com                      |
|    \\/     M anipulation  |                                                 |
\*---------------------------------------------------------------------------*/
FoamFile
{
    version     2.0;
    format      ascii;
    arch        "LSB;label=32;scalar=64";
    class       volVectorField;
    location    "0.04";
    object      U;
}
// * * * * * * * * * * * * * * * * * * * * * * * * * * * * * * * * * * * * * //

dimensions      [0 1 -1 0 0 0 0];

internalField   nonuniform List<vector> 
83682
(
(347.059 -3.02619e-12 -2.66364e-11)
(347.059 -2.83757e-12 -2.70846e-11)
(347.059 -2.13041e-12 -2.62668e-11)
(347.059 -4.24607e-12 -2.57378e-11)
(347.059 -4.99762e-12 -2.4735e-11)
(347.059 -2.09069e-12 -2.35688e-11)
(347.059 -2.03154e-12 -2.40331e-11)
(347.059 1.03959e-12 -2.52734e-11)
(347.059 7.30926e-12 -2.57827e-11)
(347.059 1.37819e-11 -2.5323e-11)
(347.059 2.34346e-11 -2.68714e-11)
(347.059 2.6853e-11 -2.44193e-11)
(347.059 3.16425e-11 -2.60666e-11)
(347.059 3.0678e-11 -2.6071e-11)
(347.059 2.9068e-11 -2.59755e-11)
(347.059 2.54531e-11 -2.51561e-11)
(347.059 2.6384e-11 -2.49392e-11)
(347.059 -6.15377e-11 -2.02327e-11)
(347.059 5.09727e-10 -5.44824e-11)
(347.055 2.13317e-08 -9.69607e-10)
(346.959 -1.15422e-06 5.24268e-08)
(344.711 2.25303e-05 -1.06525e-06)
(328.656 -3.89446e-05 1.86315e-06)
(318.828 -8.62076e-05 4.02343e-06)
(318.511 4.18994e-06 -1.67982e-07)
(318.488 4.3714e-05 -2.05463e-06)
(318.454 5.87209e-05 -2.78631e-06)
(318.417 6.59392e-05 -3.1849e-06)
(318.377 3.76295e-05 -1.89688e-06)
(318.341 -1.00347e-05 3.56325e-07)
(318.33 -3.01199e-05 1.40533e-06)
(318.316 -4.73974e-05 2.30688e-06)
(318.304 -5.76e-05 2.86133e-06)
(318.298 -5.31182e-05 2.71297e-06)
(318.295 -2.05406e-05 1.19659e-06)
(318.292 2.8127e-05 -1.26386e-06)
(318.297 5.86128e-05 -2.87052e-06)
(318.294 6.17467e-05 -3.06872e-06)
(318.292 5.85938e-05 -2.92414e-06)
(318.29 3.80863e-05 -1.90663e-06)
(318.29 -5.23361e-06 2.71936e-07)
(318.281 -3.20261e-05 1.65099e-06)
(318.266 -3.92838e-05 2.02293e-06)
(318.264 -3.67667e-05 1.91006e-06)
(318.265 -2.71624e-05 1.41071e-06)
(318.268 -8.93218e-06 4.3995e-07)
(318.276 8.17153e-06 -4.41768e-07)
(318.289 1.4715e-05 -7.25656e-07)
(318.296 1.39433e-05 -6.74179e-07)
(318.303 8.9643e-06 -4.03708e-07)
(318.308 -2.65114e-06 1.87458e-07)
(318.31 -1.79908e-05 8.88277e-07)
(318.309 -2.50882e-05 1.11014e-06)
(318.315 -2.41411e-05 1.01298e-06)
(318.32 -2.02218e-05 7.63708e-07)
(318.327 -1.10345e-05 2.35187e-07)
(318.331 4.42731e-06 -6.52082e-07)
(318.335 1.6046e-05 -1.33917e-06)
(318.344 1.86755e-05 -1.32495e-06)
(318.347 1.55905e-05 -1.021e-06)
(318.348 9.54961e-06 -5.65976e-07)
(318.348 -5.58653e-06 4.44511e-07)
(318.348 -1.98806e-05 1.22437e-06)
(318.349 -1.89124e-05 9.99711e-07)
(318.344 -1.10282e-05 1.66092e-07)
(318.342 -7.74224e-06 -1.45442e-07)
(318.337 -1.87166e-06 -7.77783e-07)
(318.331 1.40277e-05 -1.02202e-06)
(318.32 1.97423e-05 -8.78624e-07)
(318.313 1.92549e-05 -6.56076e-07)
(318.308 1.80063e-05 -9.57284e-08)
(318.304 1.7119e-05 2.4237e-07)
(318.301 7.54791e-06 3.13098e-07)
(318.303 -2.66803e-06 2.99081e-07)
(318.307 -3.95241e-06 2.37235e-07)
(318.31 -5.61293e-06 -1.4309e-07)
(318.311 -4.57277e-06 -7.77178e-07)
(318.312 1.48222e-06 -1.99731e-06)
(318.312 7.02902e-06 -2.17763e-06)
(318.31 9.93352e-06 -3.14375e-07)
(318.309 9.61757e-06 7.31586e-08)
(318.309 8.62538e-06 4.65235e-07)
(318.311 9.68592e-06 8.82348e-07)
(318.314 6.81065e-08 9.62947e-07)
(318.32 -6.95013e-06 7.36929e-07)
(318.324 -7.97559e-06 2.80653e-07)
(318.327 -9.28752e-06 -6.59749e-07)
(318.329 -9.13222e-06 -1.43141e-06)
(318.331 -5.84145e-06 -2.0521e-06)
(318.328 -3.39465e-06 -2.24225e-06)
(318.325 -1.63381e-06 -1.89512e-06)
(318.322 1.65937e-06 -8.66151e-07)
(318.32 3.48343e-06 2.41337e-07)
(318.317 2.95952e-06 1.06688e-06)
(318.313 -1.14437e-07 1.36412e-06)
(318.312 -3.22942e-06 1.05475e-06)
(318.313 -5.18153e-06 6.97234e-07)
(318.314 -8.93492e-06 5.88158e-08)
(318.316 -1.15435e-05 -4.98157e-07)
(318.321 -1.16667e-05 -8.57836e-07)
(318.327 -9.62014e-06 -1.02778e-06)
(318.333 -6.97688e-06 -8.95507e-07)
(318.336 -5.87479e-06 -7.87324e-07)
(318.337 -4.38427e-06 -4.57763e-07)
(318.337 -4.54707e-08 2.71951e-07)
(318.335 2.55744e-06 9.16407e-07)
(318.331 3.38267e-06 1.48763e-06)
(318.327 3.70616e-06 1.77399e-06)
(318.325 3.71347e-06 1.79637e-06)
(318.323 3.39241e-06 1.7204e-06)
(318.323 2.52132e-06 1.24074e-06)
(318.324 2.31852e-06 1.89866e-07)
(318.323 2.44319e-06 -4.93754e-07)
(318.322 2.51436e-06 -9.64403e-07)
(318.32 3.18585e-06 -1.23095e-06)
(318.316 4.03732e-06 -1.02163e-06)
(318.312 4.47531e-06 -7.6905e-07)
(318.306 4.66561e-06 4.09704e-07)
(318.304 4.75688e-06 2.26639e-06)
(318.304 4.748e-06 3.33826e-06)
(318.306 4.14679e-06 4.16046e-06)
(318.31 2.18582e-06 3.23077e-06)
(318.314 -1.61231e-07 1.61329e-06)
(318.319 -2.98933e-06 -5.08622e-07)
(318.324 -5.40605e-06 -3.2217e-06)
(318.327 -7.78662e-06 -4.66904e-06)
(318.327 -8.68148e-06 -5.1236e-06)
(318.327 -7.88676e-06 -6.09671e-06)
(318.327 -1.14884e-05 -7.56323e-06)
(318.328 -1.31568e-05 -7.11138e-06)
(318.328 -7.8698e-06 -5.66875e-06)
(318.328 -3.84068e-06 -4.54051e-06)
(318.328 -3.43586e-06 -4.59598e-06)
(318.328 -3.37321e-06 -5.33228e-06)
(318.327 -3.35083e-06 -4.79101e-06)
(318.324 -3.2897e-06 -3.68181e-06)
(318.322 -2.35385e-06 -4.04209e-07)
(318.32 9.11382e-07 3.80449e-06)
(318.32 5.8068e-06 7.64017e-06)
(318.319 1.10319e-05 1.06125e-05)
(318.318 1.54023e-05 1.10057e-05)
(318.319 1.60465e-05 9.04889e-06)
(318.319 1.5581e-05 6.23856e-06)
(318.319 1.3724e-05 -2.41567e-07)
(318.319 7.01719e-06 -1.01732e-05)
(318.321 6.91015e-06 -9.52196e-06)
(318.323 2.71018e-06 -1.37736e-05)
(318.327 2.42387e-08 5.10005e-06)
(318.329 1.46353e-05 2.22901e-05)
(318.33 6.46357e-06 1.53015e-05)
(318.33 9.14243e-06 2.58769e-05)
(318.329 3.41277e-05 5.37987e-05)
(318.327 2.96626e-05 5.2552e-05)
(318.325 3.37377e-05 3.42545e-05)
(318.322 1.81792e-05 4.49987e-06)
(318.32 1.18156e-05 -2.11844e-05)
(318.32 3.53761e-06 -5.80876e-05)
(318.32 -3.44919e-05 -9.39422e-05)
(318.32 -3.83216e-05 -0.000124193)
(318.32 -5.85067e-05 -0.000142124)
(318.32 -6.27526e-05 -0.000153085)
(318.319 -0.00013713 -0.000154379)
(318.311 -0.000189563 -0.000130094)
(318.278 -5.67266e-05 -0.000120766)
(318.26 4.61141e-05 -9.57073e-05)
(318.29 0.000618162 -9.68307e-05)
(318.443 0.000655216 -1.53188e-05)
(318.808 0.000243919 -6.66947e-06)
(319.372 -0.0007721 0.000146451)
(320.046 -0.00363724 0.000167553)
(320.72 -0.00554281 0.000283836)
(321.284 -0.0064112 0.000422927)
(321.71 0.00111374 -0.00013011)
(321.971 0.00863155 9.02559e-05)
(322.129 0.0156927 -0.000224123)
(322.21 0.0138525 -0.000290699)
(322.26 0.00519425 0.00012028)
(322.251 -0.00424144 9.59318e-05)
(322.217 -0.0117036 0.000415326)
(322.161 -0.0141323 0.000480744)
(322.099 -0.0127671 0.000387367)
(322.05 -0.00902324 0.000303157)
(322.02 -0.0034711 6.97837e-05)
(322.012 0.00227022 -0.0002557)
(322.01 0.00729698 -7.65066e-05)
(322.018 0.0113035 -0.000226569)
(322.013 0.0099428 -0.000170338)
(322.001 0.00925994 -0.000310241)
(321.959 0.00847331 -0.000373857)
(321.854 0.00762014 -0.000413847)
(321.642 0.00667803 -0.000340305)
(321.314 0.0056584 -0.000219122)
(320.945 0.00548185 -0.000259879)
(320.629 0.00536348 -0.000166525)
(320.384 0.004374 -9.96726e-05)
(320.187 0.00349448 -0.000139353)
(320.018 0.00359668 -0.000221574)
(319.866 0.00388934 -0.000262181)
(319.728 0.003911 -0.00026191)
(319.601 0.00364537 -0.000223604)
(319.484 0.00322596 -0.000159944)
(319.376 0.00259052 -0.000104587)
(319.277 0.00195993 -9.12847e-05)
(319.188 0.00150959 -0.000104203)
(319.112 0.00128878 -0.000108319)
(319.048 0.00115708 -9.62715e-05)
(318.996 0.00106326 -7.55404e-05)
(318.955 0.0012455 -6.21882e-05)
(318.922 0.00161928 -6.13376e-05)
(318.898 0.00174482 -5.27683e-05)
(318.88 0.001569 -4.15181e-05)
(318.867 0.00125216 -4.6256e-05)
(318.857 0.000857988 -6.02689e-05)
(318.847 0.000410024 -7.09906e-05)
(318.837 0.000147285 -8.53597e-05)
(318.829 0.000141792 -0.000101416)
(318.821 0.000276649 -0.000104985)
(318.812 0.00052565 -0.000104284)
(318.8 0.000801734 -0.000106055)
(318.788 0.000875725 -0.000104674)
(318.776 0.000820467 -9.70588e-05)
(318.763 0.000568396 -8.15117e-05)
(318.748 0.000325387 -6.79761e-05)
(318.732 0.000227949 -5.98493e-05)
(318.717 0.000113898 -5.18129e-05)
(318.702 -1.90602e-05 -4.41201e-05)
(318.687 3.01845e-05 -4.38207e-05)
(318.676 0.00027187 -4.80296e-05)
(318.67 0.000408754 -4.30592e-05)
(318.668 0.000391487 -3.50915e-05)
(318.666 0.000345461 -2.62445e-05)
(318.663 0.000294875 -1.3442e-05)
(318.664 0.000205335 -2.10566e-06)
(318.664 6.49234e-05 8.17234e-06)
(318.665 -5.46966e-05 1.47549e-05)
(318.665 -0.00013041 1.98357e-05)
(318.667 -0.000154732 1.9262e-05)
(318.668 -7.40952e-05 1.33342e-05)
(318.667 1.10998e-05 1.88953e-05)
(318.664 3.01883e-05 2.59659e-05)
(318.662 4.10772e-05 3.07031e-05)
(318.66 6.24774e-05 3.22161e-05)
(318.657 4.72884e-05 3.46741e-05)
(318.651 2.1037e-05 3.41934e-05)
(318.645 2.98081e-05 3.00071e-05)
(318.64 7.44354e-05 1.76525e-05)
(318.634 8.47038e-05 1.15356e-05)
(318.626 -2.14112e-05 1.86861e-05)
(318.619 -0.000110251 2.60358e-05)
(318.615 -0.000115646 4.04574e-05)
(318.611 -2.85878e-05 4.94872e-05)
(318.607 -1.51702e-05 5.58598e-05)
(318.605 -2.34503e-05 6.80846e-05)
(318.606 2.46332e-06 7.91247e-05)
(318.606 7.61157e-05 9.64566e-05)
(318.605 0.000129897 0.000125699)
(318.603 0.000134182 0.000161671)
(318.604 0.000110378 0.000196495)
(318.605 9.63935e-05 0.000215094)
(318.606 6.33929e-06 0.000215116)
(318.607 -0.000125468 0.000213037)
(318.608 -0.000253076 0.000199891)
(318.607 -0.000238002 0.000185631)
(318.605 -0.000179086 0.000169445)
(318.6 -8.71109e-05 0.000142729)
(318.596 0.000151032 0.000106964)
(318.592 0.000308555 8.52951e-05)
(318.586 0.000326596 7.25435e-05)
(318.58 -0.000151041 9.43038e-05)
(318.574 -0.000516942 0.000112538)
(318.569 -0.000390168 0.0001102)
(318.564 -0.000503935 0.000129236)
(318.557 -0.000762127 0.000152664)
(318.552 -0.000784317 0.000156233)
(318.549 -0.00100461 0.00017362)
(318.544 -0.00172926 0.000217925)
(318.543 -0.00338612 0.000268288)
(318.54 -0.00431095 0.000269826)
(318.538 -0.00498113 0.000266734)
(318.541 -0.00463687 0.000184664)
(318.541 -0.00286706 -1.05179e-05)
(318.537 0.00180534 -0.000359981)
(318.531 0.007331 -0.000680191)
(318.53 0.00970999 -0.000652707)
(318.524 0.0093441 -0.000549004)
(318.523 0.00303009 -0.000510653)
(318.519 -0.0134076 0.000181151)
(318.522 -0.0388455 0.00165923)
(318.527 -0.066141 0.00316018)
(318.534 -0.0935645 0.00462481)
(318.553 -0.121249 0.00592735)
(318.577 -0.135721 0.00658635)
(318.599 -0.126694 0.00590233)
(318.618 -0.0885231 0.00437522)
(318.633 -0.034904 0.00371585)
(318.645 0.0557521 0.000931704)
(318.637 0.171759 -0.00354422)
(318.609 0.273138 -0.00717166)
(318.554 0.355808 -0.0115779)
(318.48 0.407136 -0.0164846)
(318.393 0.38529 -0.0177488)
(318.229 0.295585 -0.0150972)
(318.028 0.182442 -0.0100933)
(318.168 0.100564 -0.00608001)
(318.247 0.0599946 -0.00452)
(318.018 0.0456105 -0.00385394)
(317.932 0.0393021 -0.00347063)
(317.916 0.0375547 -0.00344414)
(317.907 0.0329393 -0.00319253)
(317.913 0.0286852 -0.0028686)
(317.941 0.0226656 -0.00181322)
(317.992 0.014903 -5.76128e-05)
(318.078 0.00915766 0.00127597)
(318.135 0.00583362 0.00195008)
(318.099 0.0047079 0.00213358)
(318.056 0.00354376 0.00228272)
(317.997 0.00207398 0.00238545)
(317.933 0.00085813 0.00235579)
(317.886 8.66959e-06 0.00223045)
(317.869 -0.000600829 0.00204599)
(317.887 -0.000957683 0.00188299)
(317.919 -0.00122121 0.00170472)
(317.962 -0.00140149 0.00149181)
(318.005 -0.00145256 0.00132625)
(318.029 -0.00139807 0.00119551)
(318.032 -0.00133206 0.00111277)
(318.015 -0.00125526 0.00100444)
(317.973 -0.00119084 0.000894398)
(317.916 -0.00116263 0.000814461)
(317.884 -0.0011627 0.000771384)
(317.877 -0.00114993 0.000749749)
(317.877 -0.00110762 0.000708947)
(317.892 -0.00103595 0.000640989)
(317.926 -0.000941027 0.000549231)
(317.961 -0.000829357 0.000440331)
(317.972 -0.000751675 0.000348501)
(317.97 -0.000713199 0.000287386)
(317.96 -0.000668327 0.000184717)
(317.937 -0.000630887 9.08111e-05)
(317.902 -0.000594756 1.89172e-05)
(317.869 -0.000527273 -4.1082e-05)
(317.853 -0.000410629 -8.92773e-05)
(317.855 -0.000305889 -0.000118689)
(317.863 -0.000172528 -0.000149202)
(317.878 2.64636e-05 -0.000196752)
(317.896 0.000222736 -0.000258075)
(317.905 0.000358774 -0.000322419)
(317.904 0.000401089 -0.000361657)
(317.899 0.000409506 -0.000417478)
(317.884 0.000330668 -0.000473162)
(317.857 0.000134655 -0.000520546)
(317.831 -0.000166972 -0.000551734)
(317.819 -0.000519453 -0.000561534)
(317.816 -0.000769768 -0.000552204)
(317.818 -0.00112465 -0.000522167)
(317.827 -0.00135283 -0.000473036)
(317.838 -0.00105648 -0.00044557)
(317.842 -0.000339344 -0.000481067)
(317.842 0.000545485 -0.00054472)
(317.838 0.00230741 -0.000687941)
(317.827 0.00459365 -0.000917748)
(317.808 0.0067366 -0.00116268)
(317.786 0.0081571 -0.00132892)
(317.768 0.00839282 -0.00138733)
(317.762 0.00710353 -0.00135679)
(317.762 0.00525353 -0.00125695)
(317.765 -0.000982023 -0.000965368)
(317.77 -0.0130038 -0.000178605)
(317.778 -0.0293401 0.000693549)
(317.788 -0.0470415 0.0018451)
(317.793 -0.0596414 0.00290357)
(317.793 -0.0644631 0.00328813)
(317.79 -0.0652116 0.00333119)
(317.789 -0.0611882 0.00307571)
(317.792 -0.052529 0.00239596)
(317.795 -0.0354693 0.00113807)
(317.795 -0.00823264 -0.000332739)
(317.794 0.0239399 -0.00114494)
(317.789 0.0515051 -0.00112869)
(317.776 0.0671296 -0.000829367)
(317.755 0.0720494 -0.000462245)
(317.729 0.0730317 0.000836842)
(317.701 0.0727034 0.00140778)
(317.672 0.0687972 0.00265908)
(317.645 0.0573755 0.00469437)
(317.622 0.0380657 0.00660233)
(317.607 0.0172257 0.00677012)
(317.605 -0.000887635 0.00559619)
(317.605 -0.0132601 0.0048483)
(317.605 -0.0194372 0.0046568)
(317.604 -0.022699 0.00498866)
(317.602 -0.0240298 0.00600422)
(317.597 -0.0233772 0.00766962)
(317.589 -0.0211207 0.00957176)
(317.578 -0.017823 0.0106182)
(317.567 -0.0139886 0.010143)
(317.557 -0.00997712 0.00841512)
(317.551 -0.00622487 0.00636321)
(317.547 -0.00299501 0.0045147)
(317.544 -0.000566005 0.00315497)
(317.541 0.00101204 0.0023295)
(317.535 0.00198179 0.00187671)
(317.526 0.00255187 0.00161278)
(317.515 0.00279939 0.00145549)
(317.502 0.00278939 0.00138449)
(317.488 0.00256896 0.00136709)
(317.475 0.00220658 0.00135017)
(317.464 0.00177148 0.00129957)
(317.455 0.00133667 0.00118768)
(317.449 0.000969378 0.00104936)
(317.444 0.000697207 0.000937275)
(317.439 0.000511005 0.000868641)
(317.433 0.00039274 0.000819009)
(317.425 0.000313507 0.000779558)
(317.414 0.000248243 0.000741898)
(317.402 0.000193573 0.000671013)
(317.388 0.000103208 0.000590306)
(317.376 -3.14873e-05 0.000516502)
(317.366 -0.000178902 0.000459536)
(317.359 -0.000309728 0.000419139)
(317.354 -0.000396295 0.000387791)
(317.351 -0.000418668 0.000359051)
(317.347 -0.000375946 0.000324909)
(317.342 -0.000279795 0.000284085)
(317.336 -0.000147898 0.000238452)
(317.327 -5.11725e-06 0.000194016)
(317.315 0.000122593 0.000150784)
(317.302 0.000208252 0.000116152)
(317.288 0.000237501 9.41295e-05)
(317.274 0.000212444 9.20396e-05)
(317.263 0.000147844 9.32234e-05)
(317.254 6.60446e-05 8.1309e-05)
(317.246 -1.16082e-05 7.01559e-05)
(317.239 -6.77539e-05 6.62935e-05)
(317.232 -9.40837e-05 6.42298e-05)
(317.223 -9.16584e-05 6.26137e-05)
(317.212 -6.186e-05 5.95689e-05)
(317.199 -9.08586e-06 5.46085e-05)
(317.182 4.75242e-05 4.9618e-05)
(317.164 8.94211e-05 4.59111e-05)
(317.149 0.000106634 4.23794e-05)
(317.141 9.65975e-05 4.33637e-05)
(317.139 7.21747e-05 4.61834e-05)
(317.139 4.54066e-05 4.75268e-05)
(317.14 2.42875e-05 4.81906e-05)
(317.141 -6.71187e-06 4.87953e-05)
(317.144 -2.45441e-05 4.6565e-05)
(317.148 -1.08133e-05 4.17001e-05)
(317.153 3.31035e-05 3.63586e-05)
(317.159 8.89507e-05 3.12031e-05)
(317.165 0.000135126 2.622e-05)
(317.171 0.000156836 2.2181e-05)
(317.178 0.000150263 1.86457e-05)
(317.185 0.000119635 1.72181e-05)
(317.194 7.60511e-05 1.83778e-05)
(317.203 3.28017e-05 2.1418e-05)
(317.214 -1.48884e-06 2.44444e-05)
(317.226 -1.91837e-05 2.54604e-05)
(317.239 -2.12738e-05 2.43557e-05)
(317.253 -1.21005e-05 2.06049e-05)
(317.267 8.52176e-06 1.60168e-05)
(317.283 3.20556e-05 1.17498e-05)
(317.3 5.96171e-05 7.94797e-06)
(317.32 7.66625e-05 5.70797e-06)
(317.342 7.235e-05 5.42318e-06)
(317.367 5.50626e-05 5.15217e-06)
(317.397 3.09929e-05 5.3349e-06)
(317.43 4.04928e-06 5.81844e-06)
(317.468 -2.44072e-05 5.2628e-06)
(317.509 -4.39795e-05 3.90361e-06)
(317.55 -5.13355e-05 2.12506e-06)
(317.591 -4.14391e-05 -1.44033e-07)
(317.627 -1.67168e-05 -3.66866e-06)
(317.658 1.55481e-05 -6.9613e-06)
(317.681 4.223e-05 -8.44692e-06)
(317.698 5.47822e-05 -9.00536e-06)
(317.709 5.0126e-05 -8.7971e-06)
(317.716 3.15374e-05 -7.41874e-06)
(317.72 5.21921e-06 -5.53881e-06)
(317.721 -2.13499e-05 -3.33325e-06)
(317.722 -4.02064e-05 -1.02806e-06)
(317.721 -4.94622e-05 7.29796e-07)
(317.721 -5.42734e-05 3.27829e-06)
(317.72 -4.36052e-05 4.63155e-06)
(317.719 -2.16886e-05 4.64604e-06)
(317.717 2.43065e-06 4.87132e-06)
(317.714 2.19754e-05 5.10055e-06)
(317.711 3.30294e-05 4.26139e-06)
(317.71 3.13066e-05 3.9596e-06)
(317.71 2.11717e-05 4.46609e-06)
(317.71 9.17649e-06 4.93636e-06)
(317.71 -8.91367e-06 4.33108e-06)
(317.711 -2.44057e-05 2.40612e-06)
(317.712 -3.51623e-05 1.32025e-06)
(317.714 -3.89596e-05 1.87648e-06)
(317.715 -3.32519e-05 2.01551e-06)
(317.717 -1.84705e-05 -6.9008e-07)
(317.718 -5.12904e-08 -3.65276e-06)
(317.718 1.77536e-05 -7.28902e-06)
(317.719 2.80726e-05 -1.07349e-05)
(317.72 2.64354e-05 -1.2011e-05)
(317.721 1.60438e-05 -1.18211e-05)
(317.723 2.42436e-06 -1.10249e-05)
(317.725 -1.09781e-05 -1.07395e-05)
(317.728 -2.14054e-05 -1.10981e-05)
(317.731 -2.73465e-05 -1.23832e-05)
(317.735 -2.70871e-05 -1.60678e-05)
(317.739 -2.2216e-05 -2.12863e-05)
(317.743 -1.481e-05 -2.75026e-05)
(317.745 -7.67879e-06 -3.49027e-05)
(317.747 -2.72009e-06 -4.32398e-05)
(317.749 -4.61437e-07 -5.07654e-05)
(317.751 -1.42095e-06 -5.60866e-05)
(317.752 -5.16941e-06 -5.93537e-05)
(317.754 -1.03659e-05 -6.10331e-05)
(317.756 -1.50304e-05 -6.17206e-05)
(317.758 -1.77603e-05 -6.22276e-05)
(317.761 -1.78609e-05 -6.42425e-05)
(317.763 -1.56215e-05 -6.90664e-05)
(317.764 -1.25848e-05 -7.57816e-05)
(317.765 -1.01632e-05 -8.25265e-05)
(317.765 -8.8596e-06 -8.88482e-05)
(317.766 -8.23853e-06 -9.48929e-05)
(317.766 -7.3459e-06 -0.000100388)
(317.766 -6.89288e-06 -0.000103071)
(317.767 -6.59509e-06 -0.000103054)
(317.767 -5.51579e-06 -0.000101306)
(317.768 -3.28861e-06 -9.984e-05)
(317.77 3.10777e-07 -0.000100059)
(317.77 4.81219e-06 -0.000102472)
(317.771 9.7353e-06 -0.000107097)
(317.771 1.44666e-05 -0.0001129)
(317.771 1.78819e-05 -0.000117452)
(317.771 2.3941e-05 -0.000125686)
(317.77 3.27476e-05 -0.000138502)
(317.767 4.49045e-05 -0.0001583)
(317.749 5.96191e-05 -0.000183745)
(317.632 7.40547e-05 -0.000205117)
(316.895 8.88877e-05 -0.000231833)
(312.311 0.000106384 -0.000279998)
(286.299 0.000115653 -0.000320475)
(183.747 7.94916e-05 -0.000227184)
(33.6896 1.34928e-05 -3.7951e-05)
(0.615893 1.98609e-07 -5.31635e-07)
(0.000801057 2.38196e-10 -4.96353e-10)
(5.43678e-08 6.27217e-12 6.59199e-12)
(-8.64873e-12 6.68308e-12 7.29494e-12)
(-9.10476e-12 5.72568e-12 6.69652e-12)
(-7.15103e-12 4.98115e-12 5.90742e-12)
(-6.56245e-12 4.61266e-12 5.67964e-12)
(-6.23931e-12 4.04826e-12 5.75648e-12)
(-5.09052e-12 4.24812e-12 6.38126e-12)
(-6.30765e-12 4.545e-12 7.55923e-12)
(-7.13493e-12 2.02263e-12 1.00401e-11)
(-5.41772e-12 1.81019e-12 1.29174e-11)
(-3.93134e-12 1.76932e-12 1.44732e-11)
(-4.10359e-12 2.78946e-12 1.5514e-11)
(-4.75357e-12 3.06779e-12 1.44494e-11)
(-3.09704e-12 2.30792e-12 1.20694e-11)
(-1.98906e-12 1.22065e-12 9.51568e-12)
(-2.53738e-12 1.723e-12 8.10206e-12)
(-1.00051e-12 2.48584e-12 7.10103e-12)
(1.33845e-12 2.00882e-12 6.82937e-12)
(8.47753e-13 1.37819e-12 6.53535e-12)
(-1.48226e-13 2.08043e-13 6.49858e-12)
(4.9881e-13 -8.88843e-13 6.79425e-12)
(6.39541e-13 -2.13202e-12 8.36366e-12)
(1.57101e-12 -2.47607e-12 1.01956e-11)
(2.73337e-12 -2.22123e-12 1.06249e-11)
(4.03635e-12 -2.13113e-12 9.12969e-12)
(5.30086e-12 -1.45835e-12 7.47169e-12)
(4.71246e-12 -1.78192e-12 4.9861e-12)
(6.60303e-12 -1.55518e-12 1.90596e-12)
(9.55875e-12 -1.24984e-12 -1.04376e-12)
(1.01252e-11 5.66609e-14 -4.13179e-12)
(9.6809e-12 9.32902e-13 -6.75308e-12)
(9.28676e-12 1.28382e-12 -7.68096e-12)
(9.89192e-12 1.56061e-12 -6.14736e-12)
(8.41791e-12 2.82189e-12 -5.61186e-12)
(7.2225e-12 2.59744e-12 -4.04035e-12)
(7.03874e-12 3.51035e-12 -2.54518e-12)
(6.1511e-12 2.65863e-12 -1.84215e-12)
(8.37088e-12 3.41342e-12 -7.50178e-13)
(9.10574e-12 7.06039e-12 -7.04922e-14)
(5.56314e-12 9.42886e-12 4.10089e-13)
(8.2497e-13 8.86436e-12 -1.76214e-12)
(-2.92516e-12 6.56301e-12 -4.52117e-12)
(-4.18678e-12 3.92564e-12 -5.89315e-12)
(-2.91969e-12 3.73989e-12 -7.31967e-12)
(-1.04915e-12 3.00999e-12 -8.31313e-12)
(2.43996e-13 2.09823e-12 -8.90369e-12)
(2.55887e-13 2.46806e-12 -9.81606e-12)
(1.85621e-13 1.48622e-12 -1.05304e-11)
(2.79059e-12 8.72435e-13 -9.8577e-12)
(4.36288e-12 8.88263e-13 -8.29343e-12)
(5.21746e-12 1.40008e-12 -8.60964e-12)
(4.94929e-12 1.5545e-12 -9.56218e-12)
(4.77447e-12 1.43987e-12 -1.10444e-11)
(3.86264e-12 2.37786e-12 -1.17893e-11)
(3.3968e-12 2.67314e-12 -1.13804e-11)
(3.85978e-12 2.6655e-12 -1.07266e-11)
(3.21909e-12 3.02726e-12 -1.09224e-11)
(2.1491e-12 2.84581e-12 -1.11974e-11)
(2.24396e-12 8.42976e-13 -9.58761e-12)
(4.40941e-12 1.43813e-13 -6.70505e-12)
(6.05673e-12 2.71487e-13 -4.65409e-12)
(7.64926e-12 -2.90019e-13 -4.26183e-12)
(8.66608e-12 -1.0413e-12 -5.91477e-12)
(9.97586e-12 -8.43778e-13 -6.66252e-12)
(1.12465e-11 -1.03701e-12 -6.15847e-12)
(1.11254e-11 1.39677e-13 -5.64929e-12)
(1.01171e-11 -1.16656e-13 -3.9782e-12)
(1.23927e-11 2.87606e-13 -1.07088e-12)
(1.16517e-11 1.9514e-12 2.49217e-12)
(8.53834e-12 1.42694e-12 4.53551e-12)
(7.92207e-12 1.02571e-12 6.60653e-12)
(8.0257e-12 5.03975e-13 8.94587e-12)
(6.44275e-12 1.13246e-12 8.30653e-12)
(3.62129e-12 3.65882e-13 6.11688e-12)
(3.99003e-12 -1.33698e-12 2.46891e-12)
(5.10497e-12 -5.19063e-14 -1.45372e-12)
(2.46886e-12 -4.21106e-14 -4.7808e-12)
(3.13478e-12 9.63935e-13 -8.46245e-12)
(4.98799e-12 4.48097e-12 -1.0323e-11)
(3.9275e-12 7.46856e-12 -1.47071e-11)
(8.94127e-13 7.58505e-12 -1.77915e-11)
(-1.6394e-12 7.94141e-12 -1.82177e-11)
(-4.08989e-12 7.81933e-12 -1.73564e-11)
(-5.2029e-12 6.41694e-12 -1.5729e-11)
(-6.64017e-12 5.78096e-12 -1.39862e-11)
(-8.44328e-12 5.7178e-12 -1.31327e-11)
(-8.28738e-12 5.00935e-12 -1.1059e-11)
(-1.06875e-11 4.59191e-12 -9.404e-12)
(-1.0339e-11 3.43056e-12 -7.79254e-12)
(-8.81028e-12 3.22061e-12 -7.32903e-12)
(-8.48252e-12 3.59515e-12 -5.66784e-12)
(-7.90536e-12 3.65958e-12 -4.55948e-12)
(-8.05571e-12 4.46026e-12 -4.173e-12)
(-1.12168e-11 3.91967e-12 -3.89515e-12)
(-1.28042e-11 1.95395e-12 -3.49754e-12)
(-1.13521e-11 5.7399e-13 -3.41097e-12)
(-9.84266e-12 -9.93771e-13 -2.75223e-12)
(-7.56003e-12 -8.13632e-13 -2.62655e-12)
(-6.1766e-12 -9.80719e-13 -1.66711e-12)
(-6.80356e-12 -9.64069e-13 -2.55067e-12)
(-7.14152e-12 -2.19779e-12 -2.86089e-12)
(-5.28451e-12 -2.50201e-12 -3.05956e-12)
(-2.55735e-12 -3.60594e-12 -3.229e-12)
(1.16273e-12 -2.50243e-12 -3.63901e-12)
(1.42764e-12 8.34281e-13 -3.68865e-12)
(-9.6875e-13 2.41467e-12 -3.46074e-12)
(9.66707e-15 3.72634e-12 -4.35671e-12)
(9.53549e-13 4.81373e-12 -5.9611e-12)
(-2.39796e-13 5.81665e-12 -4.11445e-12)
(-1.45289e-13 7.95485e-12 -3.03513e-12)
(-1.24174e-12 9.10345e-12 -2.88185e-12)
(-2.59408e-12 9.09288e-12 -3.30133e-12)
(-3.6617e-12 7.76365e-12 -3.04602e-12)
(-7.23706e-12 7.54348e-12 -3.15366e-12)
(-8.88288e-12 5.07564e-12 -3.13336e-12)
(-6.95904e-12 4.06568e-12 -3.93326e-12)
(-6.30539e-12 3.20163e-12 -5.35592e-12)
(-6.04953e-12 2.99189e-12 -4.51079e-12)
(-3.7259e-12 2.69427e-12 -4.17956e-12)
(-3.07901e-12 2.65891e-12 -5.35828e-12)
(-1.90478e-12 1.159e-12 -6.74886e-12)
(3.91458e-13 1.2271e-12 -8.68544e-12)
(2.76366e-12 1.34558e-12 -1.04267e-11)
(3.16172e-12 2.01224e-12 -1.15754e-11)
(2.3388e-12 1.6157e-12 -1.2135e-11)
(2.41814e-12 1.99006e-12 -1.19419e-11)
(2.34939e-12 1.90005e-12 -1.12689e-11)
(2.79611e-12 3.00557e-12 -1.07261e-11)
(1.29738e-12 3.35774e-12 -9.98299e-12)
(2.1195e-13 3.34947e-12 -9.83245e-12)
(-2.72877e-13 3.43648e-12 -1.03258e-11)
(-4.63094e-14 3.17104e-12 -1.08946e-11)
(-7.17644e-13 3.88977e-12 -1.17506e-11)
(-2.50445e-12 3.71846e-12 -1.24972e-11)
(-3.68304e-12 3.82617e-12 -1.0529e-11)
(-3.96524e-12 2.19995e-12 -8.19271e-12)
(-1.84405e-12 1.29623e-12 -6.15437e-12)
(-2.58445e-13 2.23628e-12 -2.77184e-12)
(9.40522e-13 3.62384e-12 1.26138e-12)
(-3.24289e-13 4.6615e-12 4.19563e-12)
(-3.40332e-14 4.14602e-12 3.83318e-12)
(1.54023e-12 3.96674e-12 3.31553e-12)
(-4.41748e-13 5.03442e-12 2.22343e-12)
(-2.67345e-12 5.10694e-12 1.11207e-12)
(-1.91213e-12 4.94841e-12 1.33418e-12)
(-3.56758e-12 5.5646e-12 3.12741e-12)
(-5.80511e-12 5.22693e-12 4.09288e-12)
(-5.29538e-12 3.87175e-12 5.08511e-12)
(-4.71764e-12 1.9721e-12 6.04119e-12)
(-4.52352e-12 1.8922e-12 7.63485e-12)
(347.059 -6.3574e-12 -2.78034e-11)
(347.059 -4.36917e-12 -2.73053e-11)
(347.059 -1.00866e-13 -2.67854e-11)
(347.059 -9.63635e-13 -2.72508e-11)
(347.059 -7.73233e-13 -2.65808e-11)
(347.059 2.4237e-14 -2.43994e-11)
(347.059 3.9656e-13 -2.71434e-11)
(347.059 2.26433e-12 -2.98478e-11)
(347.059 7.41287e-12 -2.99323e-11)
(347.059 1.26412e-11 -3.04142e-11)
(347.059 1.85644e-11 -3.01307e-11)
(347.059 2.54261e-11 -2.90722e-11)
(347.059 2.71059e-11 -2.84491e-11)
(347.059 2.4169e-11 -2.75798e-11)
(347.059 2.40269e-11 -2.72477e-11)
(347.059 2.15879e-11 -2.69102e-11)
(347.059 2.34775e-11 -2.66633e-11)
(347.059 -6.0148e-11 -2.18219e-11)
(347.059 4.67349e-10 -5.29168e-11)
(347.055 2.15785e-08 -9.72956e-10)
(346.959 -1.14644e-06 5.13777e-08)
(344.711 2.25973e-05 -1.0472e-06)
(328.656 -4.0678e-05 1.91348e-06)
(318.828 -8.55657e-05 3.9245e-06)
(318.511 6.03768e-06 -2.49976e-07)
(318.488 4.48534e-05 -2.0669e-06)
(318.454 5.91712e-05 -2.75641e-06)
(318.417 6.47136e-05 -3.06435e-06)
(318.377 3.45527e-05 -1.70368e-06)
(318.341 -1.24249e-05 4.86475e-07)
(318.33 -3.09935e-05 1.44199e-06)
(318.316 -4.64294e-05 2.23492e-06)
(318.304 -5.58009e-05 2.73212e-06)
(318.298 -5.04847e-05 2.54498e-06)
(318.295 -1.73482e-05 1.02673e-06)
(318.292 2.95807e-05 -1.31289e-06)
(318.297 5.74064e-05 -2.77004e-06)
(318.294 5.99695e-05 -2.93724e-06)
(318.292 5.70178e-05 -2.80413e-06)
(318.29 3.74375e-05 -1.8471e-06)
(318.29 -5.20165e-06 2.59336e-07)
(318.281 -3.15905e-05 1.59488e-06)
(318.266 -3.80196e-05 1.93015e-06)
(318.264 -3.53839e-05 1.82005e-06)
(318.265 -2.5936e-05 1.34579e-06)
(318.268 -7.60859e-06 4.00216e-07)
(318.276 9.05677e-06 -4.50037e-07)
(318.289 1.45761e-05 -7.05208e-07)
(318.296 1.36879e-05 -6.52576e-07)
(318.303 8.87885e-06 -3.92474e-07)
(318.308 -2.29395e-06 1.74442e-07)
(318.31 -1.73523e-05 8.5981e-07)
(318.309 -2.44907e-05 1.09237e-06)
(318.315 -2.36125e-05 1.00349e-06)
(318.32 -1.97547e-05 7.67661e-07)
(318.327 -1.08627e-05 2.76992e-07)
(318.331 3.90707e-06 -5.56744e-07)
(318.335 1.54025e-05 -1.23171e-06)
(318.344 1.86486e-05 -1.24978e-06)
(318.347 1.5826e-05 -9.58536e-07)
(318.348 9.85219e-06 -5.0431e-07)
(318.348 -5.13937e-06 4.87103e-07)
(318.348 -1.86795e-05 1.19311e-06)
(318.349 -1.73431e-05 9.29732e-07)
(318.344 -9.95431e-06 1.14834e-07)
(318.342 -6.91481e-06 -1.92199e-07)
(318.337 -1.07915e-06 -7.97441e-07)
(318.331 1.39027e-05 -9.7972e-07)
(318.32 1.91019e-05 -8.08863e-07)
(318.313 1.84414e-05 -5.85557e-07)
(318.308 1.74273e-05 -4.77959e-08)
(318.304 1.67081e-05 2.71159e-07)
(318.301 7.2215e-06 3.1421e-07)
(318.303 -2.74749e-06 2.77589e-07)
(318.307 -3.83483e-06 2.12403e-07)
(318.31 -4.89947e-06 -1.98018e-07)
(318.311 -3.41519e-06 -8.52491e-07)
(318.312 3.43109e-06 -2.08588e-06)
(318.312 9.2839e-06 -2.22764e-06)
(318.31 1.149e-05 -3.05979e-07)
(318.309 1.10014e-05 9.09999e-08)
(318.309 9.58351e-06 4.77844e-07)
(318.311 1.06708e-05 1.06501e-06)
(318.314 3.78134e-07 1.08174e-06)
(318.32 -7.42233e-06 7.72819e-07)
(318.324 -8.53116e-06 3.01031e-07)
(318.327 -9.87865e-06 -6.45333e-07)
(318.329 -9.81889e-06 -1.42031e-06)
(318.331 -6.54086e-06 -2.00698e-06)
(318.328 -4.05745e-06 -2.15296e-06)
(318.325 -2.41462e-06 -1.7975e-06)
(318.322 5.91797e-07 -7.41065e-07)
(318.32 2.00962e-06 3.7042e-07)
(318.317 1.38437e-06 1.16074e-06)
(318.313 -1.35496e-06 1.39212e-06)
(318.312 -3.94907e-06 1.04841e-06)
(318.313 -5.63468e-06 6.92232e-07)
(318.314 -8.96713e-06 7.52378e-08)
(318.316 -1.11982e-05 -4.36425e-07)
(318.321 -1.10027e-05 -7.56099e-07)
(318.327 -8.93065e-06 -8.7415e-07)
(318.333 -5.93561e-06 -7.73163e-07)
(318.336 -5.05693e-06 -6.40228e-07)
(318.337 -3.79914e-06 -3.28929e-07)
(318.337 4.573e-07 3.08496e-07)
(318.335 2.65951e-06 8.94003e-07)
(318.331 3.27434e-06 1.44283e-06)
(318.327 3.75935e-06 1.71007e-06)
(318.325 3.82541e-06 1.72591e-06)
(318.323 3.61947e-06 1.64801e-06)
(318.323 2.90458e-06 1.17735e-06)
(318.324 3.05846e-06 1.21243e-07)
(318.323 3.31216e-06 -5.65548e-07)
(318.322 3.38959e-06 -1.03185e-06)
(318.32 4.04992e-06 -1.27948e-06)
(318.316 4.86009e-06 -1.01798e-06)
(318.312 5.25739e-06 -7.13912e-07)
(318.306 5.23696e-06 5.19745e-07)
(318.304 4.96957e-06 2.3882e-06)
(318.304 4.80093e-06 3.44075e-06)
(318.306 4.07931e-06 4.17877e-06)
(318.31 2.1591e-06 3.08689e-06)
(318.314 -6.37248e-08 1.31924e-06)
(318.319 -2.78304e-06 -8.78289e-07)
(318.324 -5.16715e-06 -3.58339e-06)
(318.327 -7.48101e-06 -4.84654e-06)
(318.327 -8.40415e-06 -5.32933e-06)
(318.327 -7.5965e-06 -6.43773e-06)
(318.327 -1.11386e-05 -7.76337e-06)
(318.328 -1.27114e-05 -7.03495e-06)
(318.328 -7.36994e-06 -5.49838e-06)
(318.328 -3.60629e-06 -4.36323e-06)
(318.328 -3.25527e-06 -4.4433e-06)
(318.328 -3.17401e-06 -5.14748e-06)
(318.327 -2.92573e-06 -4.2626e-06)