/*--------------------------------*- C++ -*----------------------------------*\
| =========                 |                                                 |
| \\      /  F ield         | OpenFOAM: The Open Source CFD Toolbox           |
|  \\    /   O peration     | Version:  2406                                  |
|   \\  /    A nd           | Website:  www.openfoam.com                      |
|    \\/     M anipulation  |                                                 |
\*---------------------------------------------------------------------------*/
FoamFile
{
    version     2.0;
    format      ascii;
    arch        "LSB;label=32;scalar=64";
    class       volVectorField;
    location    "0.005";
    object      U;
}
// * * * * * * * * * * * * * * * * * * * * * * * * * * * * * * * * * * * * * //

dimensions      [0 1 -1 0 0 0 0];

internalField   nonuniform List<vector> 
13946
(
(6.22264e-13 6.84647e-13 -6.76089e-12)
(5.97059e-13 1.26655e-12 -6.31676e-12)
(-3.86018e-13 2.05032e-12 -5.56061e-12)
(-1.05985e-12 1.92309e-12 -6.27408e-12)
(-1.88383e-12 5.29308e-12 -5.05633e-12)
(-1.91633e-12 3.49657e-12 -3.38093e-12)
(1.72763e-14 5.30532e-12 -2.57298e-12)
(1.87661e-12 4.31313e-12 -2.663e-12)
(1.15514e-12 6.07212e-12 -3.7025e-12)
(-8.28663e-13 4.39609e-12 -3.25783e-12)
(-4.18326e-13 1.24991e-12 -4.71579e-12)
(8.46562e-13 1.78397e-12 -7.05623e-12)
(7.17332e-13 4.81586e-12 -7.84542e-12)
(2.99784e-13 2.31176e-12 -1.0193e-11)
(1.01807e-12 8.7723e-13 -9.66951e-12)
(8.82578e-13 1.42552e-12 -7.32577e-12)
(2.09615e-14 9.22706e-13 -4.64971e-12)
(-2.61525e-13 -3.37343e-13 -2.93709e-12)
(-1.66257e-12 2.04658e-13 -4.53697e-13)
(-1.52824e-12 2.29872e-13 1.25042e-12)
(-4.97459e-13 1.5089e-12 1.47073e-12)
(-2.14275e-13 6.80332e-13 1.32285e-12)
(-1.48645e-13 -9.16288e-13 7.95209e-13)
(8.86621e-13 2.14628e-12 -3.83991e-13)
(1.9661e-12 1.2226e-12 -2.7918e-12)
(-8.2568e-14 1.08551e-12 -5.65008e-12)
(-7.79891e-13 1.05397e-12 -8.95836e-12)
(2.98349e-13 1.27447e-12 -6.12944e-12)
(1.52462e-12 3.107e-12 -2.72413e-12)
(2.12172e-12 3.1333e-13 -1.35834e-12)
(2.74012e-13 -1.77339e-13 -1.17668e-12)
(-1.26733e-12 -7.40973e-13 -1.4009e-12)
(2.81668e-13 1.28507e-12 -2.98554e-12)
(1.61734e-12 3.25378e-12 -5.27842e-13)
(-4.53083e-13 4.99035e-13 -9.48607e-13)
(-7.36307e-13 -3.85146e-13 -4.10193e-12)
(-1.05435e-12 -9.69022e-13 -4.0995e-12)
(-2.04209e-12 1.13515e-12 -4.72548e-12)
(-7.35317e-13 1.80067e-12 -6.25894e-12)
(-9.7663e-14 1.22549e-12 -5.30482e-12)
(-1.4147e-13 2.52461e-12 -3.93762e-12)
(-5.8121e-13 3.18689e-12 -4.43678e-12)
(-1.29556e-12 1.08741e-12 -5.96949e-12)
(-5.93602e-13 -6.03437e-13 -8.34581e-12)
(-5.87467e-13 -1.06424e-12 -9.46475e-12)
(-1.45111e-13 2.93875e-13 -1.11344e-11)
(1.22091e-12 2.49156e-12 -1.08342e-11)
(1.55499e-12 1.29691e-12 -8.92533e-12)
(2.28694e-12 2.91634e-12 -6.98602e-12)
(2.46314e-12 4.60643e-12 -2.14592e-12)
(7.31242e-13 -5.03499e-14 2.97393e-12)
(-9.14008e-13 -1.24995e-12 6.30111e-12)
(-9.19924e-13 -9.81386e-13 1.54933e-12)
(-1.57213e-12 2.84156e-12 -1.03405e-12)
(-1.83016e-12 1.18546e-12 -1.21625e-12)
(-4.23393e-13 -4.61334e-13 8.66327e-14)
(4.05891e-13 -7.91147e-13 7.95618e-13)
(-4.33722e-13 2.58399e-12 2.26567e-13)
(-1.39802e-12 1.49574e-12 -1.94038e-13)
(-4.39538e-13 -1.04486e-12 2.94001e-12)
(1.20529e-12 -3.74468e-13 -3.99029e-12)
(1.93612e-12 -4.81814e-13 -1.15925e-11)
(3.86618e-13 1.7199e-12 -1.30386e-11)
(-2.44623e-13 3.39426e-12 -1.41276e-11)
(-6.95249e-13 2.55232e-12 -1.2345e-11)
(-1.27455e-12 3.46427e-12 -1.11334e-11)
(1.40117e-12 4.23465e-12 -8.53739e-12)
(8.73747e-13 3.90426e-13 -5.00296e-12)
(-3.7623e-13 4.52199e-12 -3.68921e-12)
(4.80173e-13 1.9993e-12 -3.75249e-12)
(1.31925e-13 6.73677e-12 -5.3144e-12)
(2.93755e-13 5.64252e-12 -6.54443e-12)
(2.94965e-13 4.93348e-12 -5.36036e-12)
(-8.77017e-13 3.92552e-12 -3.68459e-12)
(6.66657e-13 3.92926e-12 -3.45422e-12)
(1.82716e-13 2.6922e-12 -3.1539e-12)
(-8.5881e-13 1.97465e-12 -2.28211e-12)
(-2.94041e-13 -2.03914e-13 -5.43007e-12)
(7.70656e-13 5.88479e-13 -1.02852e-11)
(7.14343e-13 5.78276e-13 -5.02747e-12)
(-1.38648e-13 2.50265e-12 -2.45902e-13)
(6.26185e-13 2.5858e-12 8.43688e-13)
(-1.55057e-13 4.48076e-12 4.82323e-13)
(-1.12743e-12 3.61738e-12 -4.36019e-13)
(-7.33937e-13 3.93866e-12 -1.09361e-12)
(-1.29174e-13 2.68035e-12 -1.9549e-12)
(4.76382e-13 2.53346e-12 -3.39769e-12)
(2.802e-12 1.86507e-12 -4.60404e-12)
(2.53479e-12 2.89224e-12 -1.43329e-12)
(-1.12433e-12 3.40779e-12 1.50272e-12)
(-2.76277e-12 5.83408e-12 8.03967e-13)
(-1.87088e-12 4.16738e-12 4.94065e-13)
(1.45125e-12 3.51361e-12 -1.64626e-12)
(5.81053e-13 3.58217e-12 -4.69104e-12)
(-5.27726e-13 4.68961e-12 -5.88303e-12)
(-1.52059e-12 3.36539e-12 -6.89289e-12)
(-2.38711e-12 4.16695e-12 -6.5558e-12)
(-1.7952e-12 1.28681e-12 -3.74119e-12)
(2.93902e-14 2.44141e-12 -2.89548e-12)
(1.21077e-12 1.60927e-12 -3.23038e-12)
(1.2623e-13 3.04043e-12 -3.7511e-12)
(1.07006e-12 8.90826e-13 -3.24512e-12)
(7.51277e-13 -9.48712e-13 -6.8205e-12)
(-7.26345e-13 -6.58341e-13 -1.10888e-11)
(4.25043e-13 1.75484e-12 -1.16656e-11)
(1.55696e-12 1.09809e-12 -1.38503e-11)
(1.01117e-12 -1.64698e-13 -1.08604e-11)
(1.02175e-12 2.54924e-12 -9.10252e-12)
(7.13062e-13 1.36164e-12 -4.24867e-12)
(-2.22905e-13 3.08626e-13 -3.89181e-12)
(-1.13063e-12 2.18053e-12 -3.3318e-13)
(-2.05442e-12 2.34053e-12 1.78207e-12)
(-4.61445e-13 2.51248e-12 2.1666e-12)
(6.15167e-13 1.7286e-12 2.16081e-12)
(-1.01398e-12 -2.83934e-13 2.17959e-12)
(-7.34124e-13 -3.22377e-13 -3.90234e-13)
(1.9611e-12 2.07423e-12 -2.38956e-12)
(8.39037e-13 9.43702e-14 -7.73523e-12)
(-4.76711e-13 -1.30783e-12 -8.25694e-12)
(-1.61792e-12 -8.69202e-13 -4.26842e-12)
(5.80266e-13 1.48134e-12 -2.40374e-12)
(3.92332e-12 -3.73397e-13 -2.08688e-12)
(1.05572e-12 -8.41055e-14 -1.34774e-12)
(-1.93049e-12 -2.96646e-13 -1.36214e-12)
(-6.46404e-13 2.94639e-13 -1.47528e-12)
(1.23309e-12 2.14066e-12 -5.99786e-14)
(2.46276e-13 2.82433e-12 -2.51429e-12)
(-1.84254e-13 1.84939e-12 -3.98705e-12)
(-1.51931e-12 -3.17978e-14 -3.61471e-12)
(-3.35788e-12 2.00615e-13 -3.84707e-12)
(-9.28084e-13 -6.32793e-13 -3.65815e-12)
(-5.60261e-13 6.90287e-13 -6.96049e-12)
(-7.49338e-15 2.59276e-12 -8.02551e-12)
(4.10777e-13 2.1627e-12 -5.41456e-12)
(-9.2674e-13 -8.48862e-13 -1.0554e-11)
(-1.65348e-13 -2.37774e-12 -1.42078e-11)
(1.07707e-13 -2.72889e-12 -1.29938e-11)
(-1.03512e-12 -2.77482e-12 -9.57622e-12)
(8.11752e-13 -2.46646e-12 -7.91812e-12)
(1.15839e-12 -1.30513e-12 -6.44938e-12)
(9.70496e-13 -3.46363e-13 -7.26309e-12)
(3.4551e-12 2.85911e-12 -2.92022e-12)
(2.16197e-12 9.69675e-13 1.20024e-12)
(-1.49835e-13 -3.50237e-14 2.70123e-12)
(-1.71172e-12 -6.61958e-13 3.08875e-13)
(-2.21975e-12 1.52908e-12 -2.65467e-12)
(-7.87327e-13 -1.11991e-13 -2.47712e-12)
(-1.7973e-13 1.5659e-12 9.30813e-13)
(-1.36541e-12 1.24826e-12 3.20064e-12)
(-1.118e-12 3.76962e-12 2.46276e-12)
(7.01218e-13 1.31705e-12 3.54876e-13)
(-9.04493e-14 4.8623e-13 8.36826e-13)
(4.72867e-13 7.28759e-13 -5.89565e-12)
(1.33702e-12 -1.67635e-12 -1.18208e-11)
(-4.00491e-14 -3.65249e-13 -1.37552e-11)
(-1.35386e-12 -2.82814e-13 -1.34011e-11)
(-1.97371e-12 2.393e-12 -1.68975e-11)
(-8.36459e-13 1.43743e-12 -1.85885e-11)
(2.34652e-12 1.38286e-12 -1.40215e-11)
(3.17137e-13 1.20651e-12 -6.43362e-12)
(-6.45371e-13 2.23732e-12 -5.41458e-12)
(-4.81938e-13 1.59149e-12 -4.26387e-12)
(-1.58227e-12 3.62922e-12 -6.97057e-12)
(1.15421e-12 2.79873e-12 -7.56018e-12)
(3.1042e-13 3.26387e-12 -6.159e-12)
(-1.55268e-13 3.6348e-12 -4.30788e-12)
(7.98122e-13 2.19259e-12 -4.65203e-12)
(-4.16317e-13 3.33336e-12 -5.50086e-12)
(3.06359e-14 2.58268e-12 -2.80383e-12)
(7.32306e-13 1.0119e-12 -6.25943e-12)
(6.66091e-13 1.35764e-12 -1.20725e-11)
(1.93918e-12 1.54705e-12 -7.47869e-12)
(-3.61981e-13 -4.47448e-14 1.58318e-13)
(-1.16386e-12 1.97991e-12 2.25236e-13)
(-7.70077e-13 2.21442e-12 -2.2312e-13)
(-6.08257e-13 2.92024e-12 -9.31624e-13)
(-7.78929e-13 1.11911e-12 -1.24062e-12)
(-9.9864e-13 2.28745e-12 -1.75153e-12)
(1.10312e-12 2.40306e-12 -2.9493e-12)
(3.42361e-12 1.75142e-12 -5.07137e-12)
(2.41998e-12 2.76635e-12 8.39991e-13)
(-1.61149e-12 2.95984e-12 2.54667e-12)
(-2.83924e-12 2.81099e-12 1.29696e-12)
(-1.75312e-12 2.4161e-12 1.30425e-12)
(-1.69406e-12 1.13591e-12 -9.17322e-13)
(-5.73904e-13 1.02099e-12 -5.10486e-12)
(-1.05582e-13 2.78748e-12 -6.90932e-12)
(-7.79811e-13 1.91898e-12 -9.08892e-12)
(-5.12084e-13 1.20594e-12 -5.07713e-12)
(-2.25616e-13 -2.07431e-13 -4.53569e-13)
(2.7853e-13 -2.36979e-12 -1.31367e-12)
(1.00681e-12 -1.98949e-12 -1.65986e-13)
(1.31399e-12 -2.77784e-12 -1.09235e-12)
(2.09899e-12 -2.2552e-12 -1.7136e-12)
(6.17425e-13 -1.31267e-12 -2.0448e-12)
(-8.83252e-13 -9.80983e-13 -6.00984e-12)
(-3.75575e-13 -3.48736e-12 -7.84128e-12)
(1.27275e-12 -2.34379e-12 -9.80322e-12)
(3.05438e-13 -1.06272e-12 -4.93279e-12)
(2.23583e-13 -7.43465e-13 -5.0815e-12)
(1.16569e-12 -1.47654e-12 -3.74795e-12)
(-1.40288e-12 1.83633e-13 -1.79393e-12)
(-2.95737e-12 5.15471e-13 1.53659e-12)
(-6.54168e-13 6.4271e-13 3.25199e-12)
(-1.256e-13 -2.08499e-12 3.42957e-12)
(7.6725e-13 -1.75497e-13 3.84655e-12)
(9.58504e-13 7.6308e-13 4.423e-12)
(-1.03199e-12 -2.74387e-12 -7.31292e-13)
(1.27622e-12 -1.68355e-12 -4.17881e-12)
(1.59821e-12 -1.10042e-12 -5.82254e-12)
(-2.39713e-13 -3.72768e-13 -4.0554e-12)
(-1.57375e-12 -2.07027e-12 3.72233e-13)
(8.35212e-13 -2.33426e-12 -7.72822e-13)
(3.23007e-12 -2.56458e-12 -5.67017e-13)
(4.1859e-13 5.29851e-13 -1.26093e-12)
(-1.60325e-12 1.68318e-12 -1.63039e-12)
(-1.0417e-12 1.54966e-12 -1.39071e-12)
(-1.91708e-13 2.5212e-12 -9.95524e-13)
(-6.1564e-13 1.95171e-12 -5.39143e-12)
(1.16817e-12 1.3686e-12 -4.52815e-12)
(2.86849e-13 2.47083e-13 -2.74176e-12)
(-1.56788e-12 -2.13513e-12 -2.54842e-12)
(-9.82721e-13 -1.84639e-12 -3.16369e-13)
(-2.09363e-12 3.93759e-13 -3.23657e-12)
(-4.09398e-13 1.57971e-13 -3.80443e-12)
(2.29599e-12 5.86306e-13 -3.25971e-12)
(1.2048e-12 -1.89272e-12 -5.51629e-12)
(4.39998e-14 -1.20561e-12 -7.7298e-12)
(-4.39719e-13 -1.92567e-12 -7.48251e-12)
(-5.16654e-13 -2.03967e-12 -4.3611e-12)
(3.14945e-13 -3.64344e-12 -3.58521e-12)
(2.68856e-13 -2.3113e-12 -3.1171e-12)
(-6.44652e-13 -1.50337e-12 -3.12257e-12)
(1.11534e-12 1.06499e-12 -1.31479e-12)
(2.30685e-12 3.04259e-12 5.41286e-13)
(7.17679e-13 2.04785e-12 1.06355e-12)
(-1.7508e-12 7.02857e-13 -6.46838e-14)
(-1.7295e-12 -1.23799e-12 -1.73024e-12)
(-1.56429e-12 -4.5251e-13 -1.1241e-12)
(-1.06074e-12 1.32429e-12 2.92428e-12)
(-1.14098e-12 2.75506e-12 7.25534e-12)
(-1.18658e-13 1.41716e-12 3.70502e-12)
(1.56373e-12 8.25888e-13 1.73833e-12)
(-2.54673e-13 -1.01039e-13 1.49254e-12)
(1.67169e-12 -7.78726e-13 -2.75096e-12)
(1.86759e-12 -5.88704e-13 -7.86017e-12)
(-2.01085e-13 4.38873e-13 -8.66276e-12)
(-2.03067e-12 -1.33205e-12 -7.73908e-12)
(-2.03881e-12 -1.55146e-12 -1.1538e-11)
(-5.31397e-13 -2.55819e-12 -1.58555e-11)
(1.61952e-12 -1.88414e-12 -1.2323e-11)
(2.43681e-13 9.26419e-13 -4.78569e-12)
(-6.83714e-13 -1.80507e-12 -2.10729e-12)
(-1.0418e-12 9.67068e-13 -2.10452e-12)
(-9.82341e-13 -1.01814e-12 -3.89042e-12)
(1.23109e-12 -1.81711e-12 -3.74527e-12)
(-2.74857e-13 1.79017e-13 -3.1178e-12)
(5.82294e-15 -3.30668e-13 -2.61885e-12)
(3.99394e-13 1.48466e-12 -2.64544e-12)
(-3.38377e-13 1.09576e-12 -2.60673e-12)
(8.48072e-13 5.40359e-13 -1.72882e-12)
(5.81229e-13 1.96709e-13 -4.91946e-12)
(-9.41807e-14 -1.09002e-12 -9.15722e-12)
(2.09868e-12 -3.17376e-13 -4.78922e-12)
(1.86706e-13 -1.11643e-12 -1.0468e-12)
(-1.19902e-12 -1.40175e-12 -5.69962e-13)
(-1.08127e-12 -6.67792e-13 -9.72092e-13)
(-3.23592e-13 -3.74993e-13 -1.60553e-12)
(-5.2459e-13 -9.8328e-13 -1.71964e-12)
(-1.53495e-12 -1.34167e-12 -1.61794e-12)
(5.71641e-13 -2.36915e-12 -2.28239e-12)
(2.47277e-12 -8.84554e-13 -2.05098e-12)
(2.1114e-12 2.45678e-12 -1.90681e-13)
(-6.48383e-13 2.59559e-12 1.10874e-12)
(-2.57732e-12 1.0243e-12 9.4756e-13)
(-1.47786e-12 -1.62301e-12 2.34281e-12)
(-1.511e-12 -3.22718e-12 1.44701e-12)
(-1.39009e-12 -3.14494e-12 -2.96802e-12)
(-1.0319e-12 -2.50262e-12 -6.93519e-12)
(-8.37247e-13 -3.0585e-12 -6.20718e-12)
(-5.61077e-13 -2.70541e-12 -6.2601e-12)
(-8.86894e-13 -4.18184e-12 -4.00216e-12)
(6.79997e-13 -3.44973e-12 -2.28206e-12)
(1.41256e-12 -5.42159e-12 -3.18212e-12)
(1.65154e-12 -5.11312e-12 -1.57334e-12)
(2.88142e-13 -5.64311e-12 -8.68799e-13)
(-1.0467e-13 -3.53997e-12 -1.47937e-12)
(3.97842e-13 -2.15876e-12 -3.46198e-12)
(1.34131e-12 -2.44396e-12 -3.46327e-12)
(1.30522e-12 -4.38873e-12 -3.45853e-12)
(1.14487e-14 -4.39326e-12 -4.58073e-12)
(2.71607e-13 -2.87072e-12 -4.07981e-12)
(1.5887e-12 -2.86148e-12 -4.06232e-12)
(-2.17382e-14 -2.7454e-12 -2.7477e-12)
(-2.24635e-12 -2.57855e-12 -1.44208e-13)
(-1.4276e-12 -3.44193e-12 3.17048e-12)
(3.74152e-13 -3.00827e-12 3.28148e-12)
(4.49753e-13 -4.11789e-12 3.03687e-12)
(-1.73892e-12 -4.44563e-12 3.27504e-12)
(4.83443e-13 -2.49643e-12 2.00201e-12)
(8.09265e-13 -3.52883e-12 -3.47506e-12)
(6.34419e-13 -5.28385e-12 -6.67114e-12)
(2.12417e-13 -2.90076e-12 -6.24013e-12)
(5.90972e-13 -2.47087e-12 -2.77021e-12)
(-1.08272e-13 -3.28685e-12 -4.51582e-13)
(1.22836e-12 -5.02487e-12 -5.88381e-13)
(1.98014e-12 -3.44184e-12 -1.36365e-12)
(-1.06388e-12 -1.11037e-12 -1.53463e-12)
(-2.20704e-12 2.73698e-13 -2.57602e-12)
(-1.51597e-12 -1.09e-13 -1.7701e-12)
(5.61743e-13 -4.31624e-13 -1.77632e-12)
(6.25853e-13 -1.5532e-12 -3.80367e-12)
(1.21865e-12 -2.84298e-12 -3.40015e-12)
(1.11006e-12 -1.51651e-12 -1.15892e-12)
(-9.24768e-13 -2.66608e-12 -2.67346e-12)
(-2.91994e-12 -2.2628e-12 -1.81381e-12)
(-1.43031e-12 -2.02004e-12 -2.24553e-12)
(5.43629e-13 -2.16191e-12 -6.07693e-13)
(2.26312e-12 -2.10676e-12 5.29654e-13)
(3.82078e-13 -1.58773e-12 -8.85637e-13)
(-7.24741e-13 -1.84877e-12 -2.99202e-12)
(5.11159e-13 -1.78579e-12 -4.14933e-12)
(4.87481e-13 -1.71902e-12 -1.97638e-12)
(6.26222e-13 -2.09536e-12 -1.19847e-12)
(-2.17151e-13 -1.70055e-12 -8.26775e-13)
(-1.1811e-12 -1.69779e-12 -7.55314e-13)
(-1.94674e-13 -2.1062e-12 -1.1888e-13)
(1.78937e-12 -4.2715e-13 7.69707e-13)
(1.3011e-12 5.00032e-14 9.87289e-13)
(-1.99976e-13 -1.01293e-12 1.70451e-13)
(-1.53352e-12 -2.81738e-12 -9.63316e-13)
(-2.20105e-12 -1.97461e-12 -1.37711e-12)
(-1.60124e-12 -1.83747e-12 2.53295e-12)
(-1.52136e-12 -1.42526e-12 5.18858e-12)
(3.92473e-14 -3.09807e-12 3.59577e-12)
(2.44666e-12 -1.62347e-12 1.83795e-12)
(1.08014e-12 -1.34579e-12 6.56724e-13)
(1.95817e-13 -3.06761e-12 -2.54653e-12)
(6.21929e-14 -1.50166e-12 -6.67822e-12)
(9.32248e-13 -4.46054e-13 -6.18585e-12)
(5.81749e-13 -2.02371e-12 -4.90616e-12)
(-1.18464e-12 -4.89806e-12 -5.88526e-12)
(-6.03076e-13 -5.10062e-12 -7.03797e-12)
(-1.74781e-13 -4.18786e-12 -6.12092e-12)
(4.00784e-13 -3.1785e-12 -1.52071e-12)
(-8.95422e-13 -3.86751e-12 2.36668e-12)
(-1.22083e-12 -3.19511e-12 9.31018e-13)
(3.69746e-13 -3.36442e-12 -1.46069e-12)
(-9.71424e-14 -4.86097e-12 -1.81252e-12)
(-5.15725e-13 -3.52005e-12 -1.77555e-12)
(-6.89965e-13 -4.49212e-12 -1.66819e-12)
(-3.49361e-13 -2.51021e-12 -1.99544e-12)
(1.17847e-13 -3.62055e-12 -2.08979e-12)
(5.94612e-13 -2.3836e-12 -3.24369e-12)
(1.51346e-12 -2.14805e-12 -2.97809e-12)
(8.67826e-13 -2.99878e-12 -3.99458e-12)
(1.67903e-12 -2.79276e-12 -2.49971e-12)
(3.5584e-13 -1.87232e-12 -1.08337e-12)
(-1.8575e-12 -3.79773e-12 -8.04757e-13)
(-1.32815e-12 -3.50707e-12 -1.00433e-12)
(-1.8713e-13 -3.00759e-12 -1.96692e-12)
(-4.62937e-14 -2.11326e-12 -2.28979e-12)
(2.51966e-13 -4.3658e-12 -2.10993e-12)
(8.40258e-13 -5.51487e-12 -3.19499e-12)
(-5.38058e-14 -4.76113e-12 -1.86869e-12)
(5.65588e-13 -1.88223e-12 -6.80973e-13)
(-4.27512e-13 -8.61513e-13 3.8038e-14)
(-4.57295e-13 -1.62031e-12 4.24355e-13)
(1.21648e-12 -4.58321e-12 1.92291e-12)
(6.44207e-13 -3.93132e-12 4.14001e-12)
(-1.42941e-12 -1.83595e-12 -1.52315e-12)
(-2.5142e-12 -2.41828e-12 -5.25113e-12)
(-7.05252e-13 -5.42605e-13 -8.19801e-12)
(1.43064e-13 -8.09975e-13 -5.73459e-12)
(2.39908e-13 -8.13451e-13 -4.06425e-12)
(-7.06801e-14 -2.77651e-12 -2.69559e-12)
(2.05559e-13 -2.17561e-12 -1.7134e-12)
(9.82112e-13 -1.92951e-12 -1.66334e-12)
(9.89769e-13 -2.29414e-12 -4.80949e-13)
(5.13567e-13 -1.03381e-12 7.39635e-13)
(-8.24387e-14 -1.73777e-12 -1.71597e-13)
(-1.5554e-13 -5.92863e-13 -1.52044e-12)
(7.6558e-13 -3.94253e-13 -1.38514e-12)
(9.01696e-13 1.38606e-13 -8.02151e-13)
(1.58185e-13 -9.71804e-13 -2.27868e-12)
(-8.15378e-13 -1.24548e-12 -3.33584e-12)
(3.30375e-13 1.37068e-14 -4.54555e-12)
(1.2789e-12 1.0147e-12 -2.61764e-12)
(-7.75861e-13 -2.12205e-12 -9.62883e-14)
(-2.88481e-12 -1.7677e-12 1.93017e-12)
(-3.87592e-13 -2.15703e-12 2.33951e-12)
(1.41166e-12 -3.90766e-13 2.38812e-12)
(3.78319e-13 -1.83876e-12 2.30168e-12)
(6.54733e-13 -2.56094e-12 6.44652e-13)
(4.87429e-13 -3.60496e-12 -2.61931e-12)
(3.48017e-13 -3.61727e-12 -5.34943e-12)
(2.41519e-13 -3.06003e-12 -3.79973e-12)
(-1.66475e-13 -2.64757e-12 -1.23348e-12)
(3.99712e-13 -1.26342e-12 -2.04084e-13)
(1.2246e-12 -3.21482e-12 2.70486e-13)
(7.55226e-13 -1.88702e-12 1.02964e-12)
(-2.01321e-12 -6.70674e-13 -1.69716e-12)
(-1.60148e-12 -8.13755e-13 -4.61679e-12)
(-6.61845e-13 -4.49615e-13 -2.21204e-12)
(1.42131e-13 -1.09506e-12 -1.17286e-12)
(3.94916e-13 4.18489e-13 -2.5299e-12)
(5.57035e-13 8.97582e-14 -2.65203e-12)
(3.00841e-13 9.13785e-13 -1.37686e-12)
(-3.49931e-13 2.71339e-13 -5.99526e-13)
(-1.07891e-12 -8.34343e-13 -1.32187e-12)
(-1.82195e-12 -2.49725e-12 -1.03228e-12)
(-7.81932e-13 -2.35078e-12 1.23062e-12)
(1.74111e-12 -1.88278e-12 3.8818e-12)
(1.08634e-12 -4.99268e-13 1.38015e-12)
(1.33556e-14 3.0865e-15 -6.63884e-13)
(4.95811e-14 -2.60585e-13 -1.29836e-12)
(-3.19701e-14 -8.54338e-14 -7.66249e-13)
(-2.83301e-13 4.74176e-13 -4.37689e-13)
(-1.46389e-14 1.40472e-12 -1.57191e-13)
(3.21446e-13 -2.08073e-13 1.20777e-13)
(8.65655e-13 -1.35391e-12 3.89532e-13)
(7.30935e-13 -2.22463e-13 6.97282e-13)
(6.91236e-13 -2.46247e-13 4.20143e-13)
(-2.42935e-13 -1.06513e-12 -3.07813e-13)
(-1.1974e-12 -4.31019e-13 -8.66534e-13)
(-2.10753e-12 -2.10286e-12 5.28823e-13)
(-9.98318e-13 -2.94808e-12 2.57141e-12)
(-2.08007e-13 -3.87967e-12 3.93606e-12)
(-2.55605e-13 -3.58227e-12 4.89443e-12)
(4.56343e-13 -1.52014e-12 1.72541e-12)
(5.51038e-13 1.53064e-12 1.54937e-13)
(1.21271e-12 1.00552e-12 -1.81013e-12)
(-1.6345e-13 1.43644e-13 -4.25678e-12)
(1.82406e-13 -7.55599e-14 -5.9778e-12)
(8.51239e-13 5.9366e-13 -3.23399e-12)
(1.12585e-14 -7.82839e-13 -2.55838e-12)
(-2.80553e-13 -1.55714e-12 -1.08471e-12)
(8.60821e-13 -3.1746e-12 2.87833e-13)
(4.39783e-13 -2.55492e-12 1.97027e-12)
(-7.81493e-13 -2.83956e-12 5.12083e-12)
(-1.89355e-12 -3.67484e-12 2.65607e-12)
(3.13159e-13 -2.88114e-12 -1.65402e-13)
(1.36197e-12 -2.51257e-12 -1.36655e-12)
(-1.3878e-14 -3.94428e-12 -1.37091e-12)
(-3.12156e-13 -4.54486e-12 -1.5556e-12)
(2.1339e-13 -4.98689e-12 -1.42432e-12)
(-6.87708e-14 -4.24339e-12 -7.35845e-13)
(-2.02923e-13 -4.08736e-12 -6.65245e-14)
(3.06918e-13 -2.95093e-12 -8.0869e-13)
(2.82102e-13 -9.92982e-13 -2.1312e-13)
(6.3125e-13 -1.03427e-12 -5.82519e-13)
(5.56559e-13 -6.07283e-13 -5.07064e-13)
(5.77261e-13 -2.33175e-12 -7.70775e-13)
(-1.1439e-12 -3.38741e-12 -5.17708e-13)
(-1.17776e-12 -3.72147e-12 -2.69109e-12)
(3.33174e-13 -2.02351e-12 -1.61675e-12)
(8.94475e-13 -3.04544e-12 -1.73995e-12)
(9.19049e-13 -3.39743e-12 -2.5768e-12)
(5.21378e-13 -2.79373e-12 -2.15674e-12)
(-5.42488e-13 -2.57055e-12 -1.42694e-12)
(-6.14822e-13 -2.16577e-12 -1.16854e-12)
(1.1302e-13 -3.4579e-12 -9.82906e-13)
(-4.677e-13 -3.12813e-12 6.86963e-13)
(-6.49602e-13 -1.35346e-12 3.56652e-12)
(-9.30953e-13 2.77265e-12 -3.26321e-12)
(-2.24222e-12 6.20678e-13 -4.13085e-12)
(-2.03534e-12 1.22406e-12 -6.34547e-12)
(-5.35778e-13 2.03261e-12 -4.64917e-12)
(1.144e-12 2.37016e-12 -3.2324e-12)
(4.5986e-13 1.33134e-12 -1.68762e-12)
(5.6377e-14 1.27713e-12 -5.37174e-13)
(1.192e-12 1.56093e-12 -1.09546e-12)
(7.25469e-13 1.95166e-12 7.59799e-13)
(1.76928e-13 2.29861e-12 3.38405e-12)
(-3.59538e-13 2.60269e-12 7.29967e-13)
(-9.11035e-13 2.59579e-12 -1.94666e-12)
(6.99254e-13 3.36997e-12 -8.07698e-13)
(1.61099e-12 2.55881e-12 5.37219e-14)
(7.6801e-13 3.06769e-12 -1.05185e-12)
(-8.87929e-13 3.15931e-12 -1.34669e-12)
(-3.63347e-13 3.2108e-12 -3.09667e-12)
(1.70507e-12 2.87099e-12 -1.63035e-12)
(6.6303e-14 2.83995e-12 3.65845e-13)
(-1.37926e-12 3.04356e-12 2.12906e-12)
(-1.07023e-12 1.37962e-12 2.32629e-12)
(5.19391e-13 1.78033e-12 2.00754e-12)
(6.21523e-13 3.31392e-12 2.2095e-12)
(8.27033e-13 2.76738e-12 4.95634e-13)
(9.63839e-13 6.70621e-13 -1.24815e-12)
(-2.51129e-13 -9.69009e-13 -2.57852e-12)
(-4.27755e-13 9.90251e-13 -2.00242e-12)
(-1.18662e-12 1.76644e-12 -5.71162e-13)
(3.20855e-13 2.18418e-12 -3.80852e-14)
(1.97883e-12 1.39396e-12 6.13108e-13)
(-5.83917e-13 7.13518e-13 1.69513e-12)
(-1.71321e-12 1.62664e-13 -3.34544e-13)
(-1.84396e-12 1.06159e-12 -2.15152e-12)
(-1.11714e-12 2.25244e-12 -1.91771e-12)
(-3.68644e-13 1.99733e-12 -1.41801e-12)
(5.70026e-14 3.77598e-12 -1.5374e-12)
(9.03679e-13 4.11395e-12 -1.47927e-12)
(4.52542e-13 4.72562e-12 2.78171e-13)
(1.6822e-13 3.27936e-12 4.07342e-13)
(1.43587e-13 1.75134e-12 5.98236e-13)
(-6.00358e-13 1.09851e-12 1.22978e-13)
(-7.90615e-13 7.31305e-13 1.2159e-12)
(3.91207e-13 6.935e-13 4.05764e-12)
(-4.18579e-13 2.18431e-12 1.37434e-12)
(-4.77701e-13 3.71189e-12 -1.07125e-12)
(2.61345e-13 3.34321e-12 -1.67066e-12)
(-1.70286e-13 1.91944e-12 -2.61659e-12)
(-8.21288e-13 3.97892e-12 -1.10704e-12)
(2.88663e-13 4.79665e-12 2.90754e-14)
(1.33607e-12 3.42466e-12 6.92582e-13)
(-4.68846e-14 2.48274e-12 7.94257e-13)
(6.85379e-13 2.99178e-12 1.09265e-12)
(1.85361e-12 2.86981e-12 8.47129e-13)
(6.01308e-14 2.41501e-12 6.22394e-13)
(-5.59172e-13 1.41722e-12 9.31111e-13)
(-3.31466e-13 1.8236e-12 2.56813e-12)
(-4.88965e-13 5.02691e-13 3.67433e-12)
(-9.72999e-13 1.64236e-13 4.03402e-12)
(-1.92981e-12 -1.18014e-12 4.12926e-12)
(-1.44169e-12 1.48865e-12 8.48705e-13)
(-1.3353e-13 2.05684e-12 -4.3702e-13)
(1.21485e-12 3.69975e-12 -9.76717e-13)
(6.2105e-13 4.2821e-12 -2.43393e-12)
(2.34682e-13 2.78335e-12 -3.97817e-12)
(9.28847e-13 2.03535e-12 -2.80033e-12)
(4.98653e-13 3.70261e-12 -1.38074e-12)
(9.19491e-13 3.53657e-12 -5.84483e-14)
(1.22042e-12 2.05501e-12 8.52355e-13)
(6.60809e-13 2.48872e-12 2.10293e-12)
(-3.38002e-13 7.27085e-13 2.49845e-12)
(-1.80136e-12 1.19579e-12 1.31895e-12)
(-4.32039e-13 6.9652e-13 -1.14272e-12)
(8.89023e-13 3.29218e-12 -2.16178e-12)
(8.13544e-13 1.29602e-12 -2.00606e-12)
(8.23094e-14 1.29824e-13 -2.57303e-12)
(2.62623e-15 5.0502e-13 -2.28728e-12)
(1.61831e-13 4.24532e-14 -3.01224e-13)
(-1.26658e-13 -7.99879e-13 -2.88569e-13)
(-6.33623e-13 1.13758e-12 -3.07001e-13)
(-4.85698e-13 1.82714e-12 -1.21179e-12)
(7.58043e-13 3.14993e-12 -4.46904e-13)
(1.03417e-12 2.83464e-12 -4.12817e-13)
(7.67864e-13 2.67468e-12 -9.34252e-13)
(-3.55942e-13 2.19853e-12 -1.59706e-12)
(-1.26499e-12 2.90103e-13 -1.88648e-12)
(-4.20055e-14 7.46434e-13 -1.35105e-12)
(1.65066e-12 1.53736e-12 -1.54139e-12)
(2.83251e-13 1.45943e-12 -1.98439e-12)
(-2.23876e-13 2.15507e-12 -2.70404e-12)
(-3.20488e-13 2.78293e-12 -2.04185e-12)
(-1.45056e-13 1.98077e-12 -2.04273e-12)
(2.87347e-13 1.49059e-12 -2.58897e-12)
(-7.81318e-13 2.75587e-12 -9.5386e-13)
(-1.41411e-12 1.89744e-12 1.30748e-12)
(2.14191e-13 5.30619e-12 -1.59988e-12)
(-1.5287e-12 2.61256e-12 -2.71798e-12)
(-2.34644e-12 2.15856e-12 -5.17397e-12)
(-6.02614e-13 1.05808e-12 -5.21222e-12)
(1.21766e-12 2.09835e-12 -3.93726e-12)
(1.10071e-12 3.33407e-12 -7.11809e-13)
(3.20836e-13 1.76099e-12 1.79846e-12)
(4.48173e-13 1.71681e-12 1.74327e-12)
(2.11176e-13 3.27624e-12 5.06671e-13)
(6.51273e-14 3.1497e-12 1.79879e-12)
(-4.34649e-13 3.65324e-12 1.92774e-12)
(-8.43478e-13 3.02969e-12 -2.42081e-13)
(8.84899e-13 2.51452e-12 1.64464e-13)
(7.47183e-13 1.61684e-12 1.11657e-12)
(-9.23442e-13 4.13217e-12 -6.52566e-13)
(-1.10276e-12 4.94681e-12 1.62491e-13)
(4.24198e-13 3.81195e-12 -1.35283e-12)
(1.48529e-12 4.42686e-12 -1.48911e-12)
(-1.33519e-12 4.55665e-12 -1.76557e-12)
(-7.3098e-13 6.04557e-12 6.44416e-13)
(1.25098e-12 4.60009e-12 2.62741e-12)
(-5.04475e-13 3.1831e-12 1.46697e-12)
(-1.00764e-12 4.37147e-12 9.70097e-13)
(1.87384e-12 4.79552e-12 -1.07633e-13)
(3.64405e-12 3.56893e-12 -1.86452e-12)
(-3.69829e-14 3.3523e-12 -8.90818e-13)
(-2.32601e-12 4.1818e-12 -1.5049e-12)
(-9.95576e-13 4.85192e-12 9.77753e-13)
(9.33555e-13 4.37624e-12 -4.8925e-13)
(2.58864e-12 4.91209e-12 -1.42905e-13)
(1.13468e-12 3.59372e-12 2.75641e-12)
(-2.35964e-12 3.46263e-12 9.44014e-13)
(-3.23732e-12 3.75178e-12 -1.72993e-12)
(-1.05041e-12 3.14653e-12 -2.85202e-12)
(-8.88425e-13 4.03596e-12 -1.45075e-12)
(-4.62932e-13 3.20936e-12 -7.11855e-13)
(6.68849e-14 5.03513e-12 9.66169e-13)
(1.07326e-12 5.06822e-12 2.98728e-13)
(2.32956e-12 5.13797e-12 7.63205e-13)
(3.338e-13 4.12936e-12 2.16018e-12)
(-1.63494e-12 3.61324e-12 8.1858e-13)
(-2.5539e-13 3.28995e-12 -4.68092e-14)
(1.00077e-13 2.79267e-12 1.53799e-12)
(-1.80503e-12 3.20085e-12 6.05398e-13)
(-9.08173e-13 3.61377e-12 -5.98105e-13)
(1.20348e-12 2.96068e-12 -1.52085e-12)
(-2.10288e-13 3.20615e-12 -2.14838e-12)
(-1.85974e-12 3.2252e-12 -1.1735e-12)
(7.71409e-13 3.73358e-12 2.27239e-13)
(2.18706e-12 4.58797e-12 2.49255e-12)
(6.18844e-13 4.85973e-12 1.71044e-12)
(1.99988e-13 3.83853e-12 2.94332e-12)
(1.15469e-12 4.94159e-12 2.3157e-12)
(1.09363e-12 5.24447e-12 -7.25033e-13)
(-3.74602e-13 3.30249e-12 7.80155e-13)
(-9.9791e-13 5.01646e-12 3.50931e-12)
(-2.40776e-13 3.98398e-12 4.08154e-12)
(8.37591e-13 4.14389e-12 2.85059e-12)
(-9.96936e-13 2.61405e-12 -1.3332e-13)
(-1.8012e-12 1.42949e-12 -7.44769e-13)
(-7.14244e-13 3.62552e-14 -4.42299e-13)
(-4.94906e-13 2.10053e-12 -4.69201e-13)
(7.76279e-13 2.47512e-12 -6.77704e-13)
(2.08314e-12 2.28895e-12 -1.69692e-13)
(3.42026e-13 1.52962e-12 1.02088e-12)
(-1.31213e-12 3.89289e-12 4.32088e-13)
(5.80459e-13 3.33141e-12 6.02812e-13)
(1.45932e-12 4.41646e-12 3.38871e-13)
(1.95272e-12 2.93986e-12 1.09019e-12)
(-1.65347e-14 3.22485e-12 8.65416e-13)
(-2.6348e-12 4.60507e-12 4.71531e-13)
(-1.56865e-12 3.81284e-12 -3.15102e-13)
(4.14582e-13 4.43773e-12 -1.41259e-12)
(2.0264e-12 4.27796e-12 -2.55851e-12)
(3.95554e-13 3.62742e-12 -4.98212e-12)
(3.26092e-13 1.85088e-12 -5.68899e-12)
(1.72398e-12 1.81202e-12 -2.03592e-13)
(-9.59363e-13 3.78331e-13 1.86414e-12)
(-1.42341e-12 1.41846e-12 1.04352e-12)
(-9.09756e-13 1.61363e-12 9.76843e-13)
(-1.38632e-13 3.72217e-12 5.3776e-13)
(1.59859e-12 4.79949e-12 -6.15474e-14)
(9.47253e-13 5.28164e-12 -1.19922e-12)
(5.73876e-13 4.488e-12 -3.15516e-12)
(3.34921e-15 2.20558e-12 -1.38837e-12)
(-4.56098e-13 -2.61143e-13 -8.74684e-13)
(1.00836e-12 1.26827e-12 -9.54311e-13)
(4.44774e-13 2.68735e-12 -1.3131e-12)
(-1.94045e-12 3.00685e-12 -1.8088e-12)
(-1.38318e-12 3.39442e-12 -2.5275e-12)
(5.32083e-13 2.05536e-12 -3.4002e-12)
(-1.42399e-13 1.01903e-12 -5.91601e-12)
(-2.78169e-13 2.38999e-12 -1.81164e-12)
(-8.27454e-13 3.21285e-12 2.99365e-12)
(5.02388e-13 3.13135e-12 -3.93517e-12)
(4.1523e-13 2.61242e-12 -2.6873e-12)
(-8.75875e-13 7.95068e-13 -2.92354e-12)
(-4.96262e-13 1.0865e-12 -2.81938e-12)
(-4.19707e-13 8.85472e-13 -1.84578e-12)
(8.96586e-13 1.3114e-12 -5.23111e-13)
(1.28223e-12 1.01795e-12 3.24122e-13)
(-8.20694e-14 2.08787e-12 1.83845e-13)
(-4.07156e-13 3.58341e-12 -6.48024e-13)
(-1.44894e-13 3.25083e-12 -2.63616e-12)
(-4.44423e-13 3.62032e-12 -2.23057e-13)
(6.54125e-13 2.84425e-12 4.50998e-13)
(1.98003e-12 4.00079e-13 1.3834e-12)
(-1.22489e-13 2.59016e-12 3.32841e-12)
(-2.36256e-12 3.28028e-12 3.9129e-14)
(-3.82477e-13 3.48141e-12 -2.45248e-12)
(-6.24941e-14 1.63979e-12 -1.74071e-12)
(3.65068e-13 3.39414e-12 -1.27591e-12)
(-9.44396e-13 4.79219e-12 -1.06788e-12)
(-1.03004e-12 4.56946e-12 -1.39899e-13)
(1.85175e-12 4.92182e-12 5.50864e-13)
(4.83314e-13 3.7603e-12 6.21197e-13)
(-1.38488e-12 1.9048e-12 4.42327e-13)
(1.59639e-12 2.59448e-12 1.40604e-13)
(2.219e-12 4.15331e-12 4.29427e-13)
(-2.79774e-13 4.85811e-12 2.83548e-12)
(-2.22858e-12 5.37866e-12 9.2352e-13)
(-1.43384e-12 5.71273e-12 4.18492e-13)
(1.01218e-12 5.60541e-12 2.23418e-13)
(2.79577e-12 5.84904e-12 1.76204e-12)
(6.69948e-13 6.53472e-12 4.85644e-12)
(-2.0544e-12 6.47623e-12 1.76989e-12)
(-1.78929e-12 3.47216e-12 -1.26898e-13)
(-8.78107e-13 2.84839e-12 -1.22726e-12)
(2.22099e-13 2.5555e-12 -1.00731e-12)
(-3.51095e-13 2.3196e-12 -8.92707e-13)
(-9.11221e-13 3.47356e-12 -6.20949e-13)
(-1.91119e-14 3.13708e-12 -4.71165e-13)
(5.60349e-13 4.77633e-12 -1.8538e-13)
(1.06762e-12 5.42225e-12 5.85738e-13)
(-3.97359e-13 4.64083e-12 5.40827e-13)
(-4.10002e-13 3.21439e-12 1.07341e-12)
(2.61542e-13 3.85696e-12 3.28385e-12)
(-1.42023e-12 3.75037e-12 1.22084e-12)
(-3.43733e-13 2.86035e-12 -2.79236e-13)
(5.03497e-13 2.21348e-12 -2.14002e-12)
(7.30228e-14 2.75671e-12 -4.45187e-12)
(-6.11733e-13 1.24571e-12 -2.18171e-12)
(-9.5241e-13 1.84627e-12 -1.75212e-13)
(3.86108e-13 3.37542e-12 6.62718e-13)
(3.04263e-13 2.99589e-12 7.00394e-13)
(1.54339e-13 2.97411e-12 7.75628e-13)
(7.53682e-13 4.45043e-12 5.01601e-13)
(1.90205e-12 4.88855e-12 -1.36182e-13)
(9.92403e-14 4.64327e-12 1.27751e-13)
(-7.39113e-13 4.08814e-12 9.87377e-13)
(-2.43599e-13 3.53177e-12 1.02795e-12)
(1.31787e-13 3.72402e-12 -6.16355e-13)
(2.52539e-14 4.03103e-12 -4.56349e-12)
(4.78611e-13 2.21559e-12 -1.8262e-12)
(-6.72477e-13 1.61992e-12 -3.35029e-13)
(-9.8807e-13 9.98145e-13 -8.5675e-14)
(5.89633e-13 1.13586e-12 2.26623e-13)
(1.55988e-12 2.38088e-13 1.79494e-12)
(6.72144e-14 2.11977e-12 4.6535e-12)
(-9.63752e-13 1.25599e-12 2.45745e-12)
(4.37742e-13 1.36715e-12 1.53916e-12)
(1.37752e-12 4.74515e-13 1.76238e-12)
(1.8411e-12 2.10271e-12 1.026e-12)
(-1.2748e-12 3.23181e-12 4.80845e-13)
(-2.60467e-12 3.13133e-12 -3.0075e-14)
(-8.30343e-13 1.90925e-12 -2.44651e-13)
(4.596e-13 2.01393e-12 -1.17338e-12)
(1.26486e-12 8.09705e-13 -2.07536e-12)
(1.23748e-12 2.14156e-12 -2.76201e-12)
(1.12618e-12 -9.28798e-13 -3.14081e-12)
(1.86158e-12 -9.46376e-13 -1.35966e-12)
(1.52238e-13 -1.44274e-13 -1.96809e-13)
(-1.82237e-12 6.08688e-13 9.04111e-13)
(-2.27425e-12 2.00975e-12 1.53639e-12)
(-1.59054e-12 1.31889e-12 1.15732e-12)
(4.4192e-13 8.36124e-13 4.95357e-13)
(6.64698e-13 3.72761e-12 -1.70163e-15)
(1.84892e-12 3.27177e-12 -5.43973e-13)
(2.0321e-12 6.25138e-13 -6.02766e-13)
(4.15066e-13 -1.06961e-12 -5.18543e-13)
(-1.37269e-13 1.51268e-13 -6.82512e-13)
(-9.50656e-13 1.40643e-12 -1.16317e-12)
(-2.14218e-12 1.42037e-12 -1.95079e-12)