/*--------------------------------*- C++ -*----------------------------------*\
| =========                 |                                                 |
| \\      /  F ield         | OpenFOAM: The Open Source CFD Toolbox           |
|  \\    /   O peration     | Version:  2406                                  |
|   \\  /    A nd           | Website:  www.openfoam.com                      |
|    \\/     M anipulation  |                                                 |
\*---------------------------------------------------------------------------*/
FoamFile
{
    version     2.0;
    format      ascii;
    arch        "LSB;label=32;scalar=64";
    class       volVectorField;
    location    "0.015";
    object      U;
}
// * * * * * * * * * * * * * * * * * * * * * * * * * * * * * * * * * * * * * //

dimensions      [0 1 -1 0 0 0 0];

internalField   nonuniform List<vector> 
13818
(
(-2.51532e-11 3.2863e-12 -1.84592e-11)
(-1.66875e-11 2.2802e-12 -1.79795e-11)
(-9.63039e-12 3.6466e-12 -1.2986e-11)
(-3.95001e-12 2.73968e-12 -9.56421e-12)
(-1.19573e-12 2.89762e-12 -6.86856e-12)
(-4.28841e-13 3.02936e-12 -2.64775e-12)
(-8.95372e-14 4.01457e-12 -6.66911e-14)
(-6.32549e-13 5.2289e-12 2.22714e-12)
(-1.36747e-12 5.85253e-12 5.92841e-12)
(-1.07183e-12 5.6419e-12 9.65604e-12)
(-5.88157e-13 5.69702e-12 9.61668e-12)
(-5.76372e-13 4.96237e-12 1.02248e-11)
(-9.4585e-13 3.6976e-12 8.83666e-12)
(-1.09427e-12 3.81772e-12 5.36004e-12)
(4.94638e-13 4.90251e-12 7.34044e-13)
(3.16556e-12 5.69271e-12 -5.57401e-12)
(6.09072e-13 6.14093e-12 -1.1745e-11)
(-1.39534e-12 5.58861e-12 -1.503e-11)
(1.01161e-12 5.02873e-12 -1.57582e-11)
(1.43756e-12 4.33394e-12 -1.38987e-11)
(2.31336e-13 4.27163e-12 -1.38071e-11)
(6.67946e-13 5.12236e-12 -1.11071e-11)
(1.83621e-12 5.636e-12 -9.53653e-12)
(7.53791e-13 6.8725e-12 -8.45515e-12)
(-8.72329e-13 5.75862e-12 -7.80048e-12)
(-9.42357e-13 4.66519e-12 -7.97158e-12)
(-6.25291e-13 4.81942e-12 -6.58841e-12)
(3.28377e-13 4.47059e-12 -5.68068e-12)
(-8.75476e-13 4.69911e-12 -5.2801e-12)
(-2.04944e-12 3.82958e-12 -6.02258e-12)
(-1.02862e-12 4.74256e-12 -7.00408e-12)
(-4.9755e-13 3.16093e-12 -8.5683e-12)
(-1.44546e-12 4.14794e-12 -9.48279e-12)
(-1.68194e-12 4.3435e-12 -9.74333e-12)
(-1.13506e-12 5.47082e-12 -8.5151e-12)
(-6.97633e-13 4.75423e-12 -7.92448e-12)
(8.49363e-13 3.93328e-12 -7.72586e-12)
(1.05635e-12 4.58091e-12 -4.87358e-12)
(-8.13017e-13 3.80597e-12 -4.51203e-12)
(-1.45411e-12 2.91379e-12 -4.93054e-12)
(-6.80195e-13 4.34435e-12 -6.53921e-12)
(1.34705e-13 3.81479e-12 -9.17601e-12)
(4.79129e-13 3.29568e-12 -1.15714e-11)
(7.74437e-13 3.70298e-12 -1.30006e-11)
(2.09848e-13 4.24436e-12 -1.2526e-11)
(4.51822e-13 5.36219e-12 -1.30135e-11)
(3.30418e-13 4.69508e-12 -1.45615e-11)
(1.16101e-13 4.15663e-12 -1.36071e-11)
(2.36845e-12 3.57525e-12 -1.30711e-11)
(3.65521e-12 2.87404e-12 -9.994e-12)
(7.94672e-13 1.80243e-12 -6.47203e-12)
(-3.01947e-13 2.0891e-12 -2.88735e-12)
(-2.19336e-13 3.04659e-12 -7.23237e-13)
(6.10922e-13 3.11195e-12 -2.09083e-12)
(1.88981e-13 3.86123e-12 -3.67981e-12)
(2.92806e-13 3.07116e-12 -4.22138e-12)
(-7.16481e-13 3.76447e-12 -1.27905e-12)
(-2.02997e-12 4.43575e-12 3.03104e-12)
(1.50005e-13 5.3601e-12 4.82674e-12)
(1.12692e-12 5.07263e-12 7.27718e-12)
(1.6603e-12 4.70149e-12 6.3274e-12)
(8.77572e-13 4.59019e-12 3.83005e-12)
(9.93225e-13 5.14383e-12 3.58698e-13)
(-1.0961e-13 4.18034e-12 -1.70356e-12)
(-6.64081e-13 4.7166e-12 -1.65958e-12)
(-8.02541e-14 4.32899e-12 -6.53684e-12)
(-1.14372e-12 4.72114e-12 -1.17537e-11)
(-5.88932e-13 5.41948e-12 -1.60186e-11)
(9.272e-14 4.6012e-12 -1.73702e-11)
(3.1614e-13 4.09715e-12 -1.74904e-11)
(1.12882e-13 4.47379e-12 -1.82938e-11)
(-3.65964e-13 4.351e-12 -1.69759e-11)
(1.31712e-13 5.07634e-12 -1.60987e-11)
(2.03382e-13 4.13576e-12 -1.50576e-11)
(-2.68258e-13 4.68066e-12 -1.5914e-11)
(-4.08057e-13 5.01294e-12 -1.72177e-11)
(-1.17929e-12 5.74406e-12 -1.66347e-11)
(-1.32829e-12 5.84069e-12 -1.47201e-11)
(-7.84323e-13 4.65144e-12 -9.99636e-12)
(-1.80198e-13 4.81962e-12 -5.8563e-12)
(1.0089e-12 5.54405e-12 -3.87174e-12)
(7.77004e-13 5.91414e-12 -4.46068e-12)
(8.08697e-13 4.91576e-12 -5.05435e-12)
(1.19391e-12 5.24748e-12 -6.45165e-12)
(2.16122e-12 5.30091e-12 -7.13862e-12)
(2.41866e-12 4.3765e-12 -6.72412e-12)
(1.14164e-12 5.17535e-12 -5.8786e-12)
(1.56371e-12 4.73932e-12 -3.07633e-12)
(-2.12804e-14 5.72729e-12 3.53192e-13)
(-1.99231e-12 5.29797e-12 2.84756e-12)
(-1.76857e-12 4.9137e-12 2.37025e-12)
(-1.36535e-12 4.47118e-12 2.06268e-13)
(-1.84965e-12 6.45861e-12 -1.14288e-12)
(-9.38251e-13 5.76716e-12 -2.90792e-12)
(2.80662e-13 5.70755e-12 -4.91891e-12)
(-6.43093e-13 5.29116e-12 -6.2005e-12)
(-3.81755e-13 5.09856e-12 -6.57416e-12)
(4.90258e-13 5.25e-12 -8.39623e-12)
(1.23812e-12 4.66915e-12 -1.06553e-11)
(5.84521e-13 5.73115e-12 -1.19734e-11)
(6.96778e-13 5.38732e-12 -1.3338e-11)
(9.39372e-13 6.14548e-12 -1.36416e-11)
(1.053e-12 5.64486e-12 -1.62963e-11)
(5.20197e-13 5.64144e-12 -1.82857e-11)
(-2.96121e-13 5.23882e-12 -1.69958e-11)
(-6.24841e-13 6.29057e-12 -1.52979e-11)
(-2.70052e-11 7.87752e-13 -1.0308e-11)
(-1.77603e-11 -9.99204e-13 -1.09316e-11)
(-1.13957e-11 1.86872e-12 -8.20952e-12)
(-5.27461e-12 2.95338e-12 -6.81469e-12)
(-2.37192e-12 1.97566e-12 -4.94269e-12)
(-1.25813e-12 2.55224e-12 -6.5926e-13)
(-8.60153e-13 3.91967e-12 2.74372e-12)
(-1.85826e-12 3.76228e-12 5.13528e-12)
(-9.63914e-13 4.8111e-12 7.86019e-12)
(1.8811e-13 4.13477e-12 1.05752e-11)
(-3.55985e-13 3.13974e-12 1.01948e-11)
(1.08213e-13 3.48576e-12 9.08007e-12)
(6.81419e-13 2.64289e-12 7.63217e-12)
(-1.82515e-13 1.27043e-12 5.69977e-12)
(-9.29234e-13 2.56373e-12 6.14023e-13)
(6.78275e-13 3.79093e-12 -6.35175e-12)
(8.22898e-13 5.09279e-12 -1.23304e-11)
(1.23272e-13 4.07575e-12 -1.43541e-11)
(9.12882e-13 3.75982e-12 -1.44814e-11)
(1.14126e-12 3.5844e-12 -1.36031e-11)
(1.29308e-13 2.89547e-12 -1.33463e-11)
(1.04854e-12 3.19647e-12 -1.12131e-11)
(8.88696e-13 2.51449e-12 -9.5686e-12)
(1.80488e-13 3.7908e-12 -8.96319e-12)
(-9.02596e-14 3.51475e-12 -7.75748e-12)
(-8.6465e-13 3.27025e-12 -8.22127e-12)
(-5.41846e-13 3.53964e-12 -7.15675e-12)
(4.31329e-13 3.3571e-12 -6.09621e-12)
(-3.99323e-13 3.55613e-12 -5.14136e-12)
(-1.33832e-12 2.57404e-12 -5.30587e-12)
(-9.47332e-13 2.39743e-12 -5.83814e-12)
(-1.08331e-12 3.11389e-12 -5.80677e-12)
(-1.83631e-12 3.69824e-12 -7.25963e-12)
(-1.42236e-12 3.54304e-12 -7.50762e-12)
(-1.12255e-12 3.83868e-12 -6.73107e-12)
(-3.04357e-13 2.84301e-12 -6.04192e-12)
(2.63652e-13 2.48055e-12 -4.98141e-12)
(5.70802e-13 3.16724e-12 -4.36719e-12)
(5.40315e-13 3.03153e-12 -5.41243e-12)
(-9.28864e-13 2.99285e-12 -5.38049e-12)
(-1.86354e-12 3.2684e-12 -7.30056e-12)
(3.61742e-13 4.05625e-12 -9.82595e-12)
(5.40535e-13 2.92254e-12 -1.20612e-11)
(-1.83e-13 3.65055e-12 -1.30879e-11)
(1.38318e-13 3.40827e-12 -1.33215e-11)
(6.32839e-13 3.56573e-12 -1.3954e-11)
(2.91744e-13 3.53855e-12 -1.50996e-11)
(8.84259e-13 3.30017e-12 -1.55692e-11)
(2.8569e-12 2.56527e-12 -1.46482e-11)
(2.6367e-12 2.27072e-12 -1.1181e-11)
(8.58209e-13 2.74484e-12 -5.83825e-12)
(7.12887e-14 1.93043e-12 -3.07945e-12)
(1.70608e-13 2.43916e-12 -2.13547e-12)
(-6.49861e-14 1.76628e-12 -2.91037e-12)
(-3.32318e-13 2.11572e-12 -3.18416e-12)
(-9.3635e-14 2.2162e-12 -2.80188e-12)
(-6.2644e-13 2.52268e-12 1.87289e-13)
(-3.2968e-13 2.36606e-12 3.7581e-12)
(1.96285e-13 3.2596e-12 4.69897e-12)
(4.45509e-13 2.75361e-12 6.62887e-12)
(7.08193e-13 2.41891e-12 6.94863e-12)
(-8.55018e-13 3.89818e-12 4.96861e-12)
(8.25321e-14 4.46978e-12 1.51921e-12)
(2.12316e-13 4.16407e-12 -1.31306e-12)
(-1.89465e-13 4.08763e-12 -3.30727e-12)
(1.19805e-12 3.42619e-12 -6.87477e-12)
(-4.34396e-13 4.31785e-12 -1.06726e-11)
(-1.24538e-12 4.08626e-12 -1.45026e-11)
(-8.20757e-14 3.59115e-12 -1.73602e-11)
(7.96167e-13 2.29822e-12 -1.91919e-11)
(2.73435e-13 2.07372e-12 -1.90743e-11)
(-1.68114e-13 3.03654e-12 -1.84864e-11)
(7.36162e-13 3.0113e-12 -1.65805e-11)
(2.93692e-13 2.63732e-12 -1.55923e-11)
(-6.39699e-13 2.83774e-12 -1.60208e-11)
(-1.01509e-12 3.12013e-12 -1.71846e-11)
(-1.51709e-12 3.68221e-12 -1.80831e-11)
(-1.43619e-13 4.11089e-12 -1.73418e-11)
(5.44193e-13 3.83162e-12 -1.18967e-11)
(-6.71561e-13 3.24597e-12 -7.87823e-12)
(3.4886e-13 2.77999e-12 -6.58273e-12)
(9.78127e-13 3.83651e-12 -6.48854e-12)
(9.11438e-13 3.70721e-12 -6.05187e-12)
(7.17558e-13 3.79061e-12 -8.21529e-12)
(2.30829e-12 3.61085e-12 -9.79187e-12)
(1.83121e-12 3.36201e-12 -9.69248e-12)
(-1.41695e-13 3.32445e-12 -8.63391e-12)
(1.15045e-12 3.0596e-12 -4.66742e-12)
(1.21358e-13 4.81556e-12 -5.09671e-13)
(-1.43456e-12 3.54103e-12 1.3985e-12)
(-1.66013e-12 4.02763e-12 2.22549e-12)
(-1.59312e-12 4.16546e-12 1.79405e-12)
(-2.09139e-12 4.11125e-12 1.15954e-12)
(-7.76316e-13 4.64422e-12 -5.87645e-13)
(1.24978e-13 5.72549e-12 -2.13766e-12)
(-4.38397e-13 4.60014e-12 -2.82503e-12)
(-2.23701e-13 4.08127e-12 -3.07009e-12)
(1.02737e-12 4.46108e-12 -5.14979e-12)
(1.52138e-12 3.84605e-12 -8.80146e-12)
(4.10738e-13 3.28049e-12 -1.07234e-11)
(4.79317e-13 3.97408e-12 -1.09984e-11)
(4.96639e-13 3.67763e-12 -1.2772e-11)
(1.29527e-12 4.24261e-12 -1.34782e-11)
(1.13903e-12 3.60606e-12 -1.43763e-11)
(2.09444e-14 3.21569e-12 -1.42264e-11)
(-3.74592e-13 3.21157e-12 -1.36861e-11)
(-2.49742e-11 -5.77555e-12 -9.49556e-13)
(-1.73612e-11 -4.14164e-12 -2.35568e-12)
(-1.10403e-11 -4.09534e-12 -3.42724e-12)
(-4.82052e-12 -2.72477e-12 -3.54956e-12)
(-2.02913e-12 -5.10195e-12 -2.53349e-12)
(-1.63021e-12 -5.38009e-12 5.33743e-13)
(-9.99386e-13 -3.94194e-12 3.55374e-12)
(-1.53688e-12 -5.65167e-12 5.2279e-12)
(-1.23199e-12 -4.27171e-12 8.06815e-12)
(1.44555e-13 -5.52836e-12 1.04369e-11)
(1.17561e-13 -6.61155e-12 1.06221e-11)
(4.2866e-14 -6.48876e-12 9.22337e-12)
(4.11164e-13 -6.47462e-12 7.22324e-12)
(-6.43142e-13 -7.97282e-12 6.04839e-12)
(-7.20614e-13 -6.94255e-12 1.39088e-12)
(6.11977e-13 -4.49579e-12 -4.63279e-12)
(3.4755e-13 -4.44724e-12 -1.0899e-11)
(1.39784e-13 -4.1376e-12 -1.37451e-11)
(9.1445e-13 -5.27219e-12 -1.48409e-11)
(1.56208e-12 -5.40061e-12 -1.29991e-11)
(4.69459e-13 -6.06163e-12 -1.16696e-11)
(9.04132e-13 -5.19899e-12 -1.02505e-11)
(7.30845e-13 -6.50829e-12 -9.12069e-12)
(-9.5346e-14 -6.16915e-12 -8.08229e-12)
(-3.33458e-13 -6.25561e-12 -7.28751e-12)
(-7.20476e-13 -6.28072e-12 -7.42603e-12)
(-1.41566e-13 -5.74055e-12 -6.97631e-12)
(-2.72919e-14 -4.75763e-12 -5.21374e-12)
(-9.49086e-13 -5.73655e-12 -4.23777e-12)
(-1.34364e-12 -5.57067e-12 -4.33307e-12)
(-1.32805e-12 -6.44986e-12 -4.04767e-12)
(-1.39352e-12 -4.82099e-12 -5.27537e-12)
(-1.37897e-12 -5.47297e-12 -6.42782e-12)
(-1.4275e-12 -5.35161e-12 -6.7757e-12)
(-9.6114e-13 -5.03721e-12 -6.20737e-12)
(-3.43301e-13 -6.87922e-12 -5.55412e-12)
(1.7999e-13 -7.22893e-12 -4.53479e-12)
(4.46215e-13 -6.39403e-12 -3.99482e-12)
(-8.39392e-14 -6.05945e-12 -4.53944e-12)
(-9.20616e-13 -4.85244e-12 -5.40501e-12)
(-1.09913e-12 -6.18698e-12 -7.68166e-12)
(1.98906e-13 -4.64979e-12 -1.02011e-11)
(4.97652e-13 -6.62129e-12 -1.17143e-11)
(8.54476e-14 -6.1213e-12 -1.29731e-11)
(1.72316e-13 -6.44621e-12 -1.26768e-11)
(6.67886e-13 -5.54752e-12 -1.31393e-11)
(8.97646e-13 -5.89987e-12 -1.37476e-11)
(7.67848e-13 -5.65105e-12 -1.38481e-11)
(2.45766e-12 -6.48842e-12 -1.35467e-11)
(2.4862e-12 -6.97851e-12 -9.89074e-12)
(9.69184e-13 -6.08416e-12 -5.31555e-12)
(-1.13828e-13 -6.45796e-12 -3.60604e-12)
(3.32278e-13 -6.76568e-12 -3.59393e-12)
(5.13101e-13 -7.37778e-12 -3.28221e-12)
(-2.02959e-13 -7.59811e-12 -3.03069e-12)
(-3.78511e-13 -6.69718e-12 -2.11131e-12)
(-3.46469e-13 -6.73199e-12 1.12358e-12)
(-4.7892e-13 -7.08448e-12 5.16242e-12)
(2.47047e-13 -5.80181e-12 6.48327e-12)
(8.3887e-13 -7.00858e-12 7.44687e-12)
(1.98262e-13 -6.47976e-12 8.69044e-12)
(-9.36725e-13 -5.72502e-12 6.54569e-12)
(5.23737e-13 -4.7453e-12 3.47007e-12)
(-2.41901e-13 -5.72783e-12 2.9057e-13)
(-3.16231e-13 -5.78416e-12 -2.64817e-12)
(1.05238e-12 -7.00228e-12 -5.22577e-12)
(-4.43071e-13 -5.94085e-12 -8.04913e-12)
(-1.19198e-12 -5.02842e-12 -1.16715e-11)
(-1.28499e-14 -5.97469e-12 -1.52135e-11)
(9.43351e-13 -7.71907e-12 -1.66577e-11)
(5.27612e-14 -7.36363e-12 -1.67274e-11)
(-1.63625e-13 -6.72819e-12 -1.63193e-11)
(5.80825e-13 -5.73405e-12 -1.49785e-11)
(1.43942e-13 -6.80611e-12 -1.44193e-11)
(-7.15971e-13 -6.98706e-12 -1.49562e-11)
(-1.00802e-12 -7.02094e-12 -1.60697e-11)
(-1.45831e-12 -6.11227e-12 -1.66962e-11)
(-4.43337e-13 -4.42941e-12 -1.59249e-11)
(3.84441e-13 -4.50166e-12 -1.16509e-11)
(4.06783e-13 -4.34199e-12 -7.01295e-12)
(2.82539e-13 -6.85862e-12 -5.28259e-12)
(4.54333e-13 -6.88685e-12 -5.78634e-12)
(1.13148e-12 -6.41015e-12 -6.0146e-12)
(6.49062e-13 -6.47891e-12 -7.96398e-12)
(1.75753e-12 -6.16359e-12 -8.97034e-12)
(1.23227e-12 -6.28155e-12 -9.03402e-12)
(1.94254e-13 -6.59661e-12 -7.77256e-12)
(1.07689e-12 -6.90842e-12 -3.9678e-12)
(9.45807e-14 -4.98493e-12 -6.80848e-13)
(-8.14272e-13 -6.431e-12 2.01739e-12)
(-1.711e-12 -6.27703e-12 3.01054e-12)
(-1.54762e-12 -6.08738e-12 2.78058e-12)
(-1.45542e-12 -5.98682e-12 2.71039e-12)
(-1.47499e-12 -5.54202e-12 4.18178e-13)
(2.23078e-13 -3.25474e-12 -3.38498e-13)
(1.24451e-13 -4.47045e-12 -2.35011e-13)
(-4.3403e-13 -6.27653e-12 -6.00619e-13)
(4.28933e-13 -4.4866e-12 -3.55811e-12)
(1.30604e-12 -5.60934e-12 -7.25059e-12)
(3.54825e-13 -6.28853e-12 -9.00776e-12)
(6.89118e-13 -6.43501e-12 -9.5031e-12)
(7.46393e-13 -6.68762e-12 -1.02619e-11)
(9.99317e-13 -5.68721e-12 -1.10693e-11)
(1.21959e-12 -6.33636e-12 -1.18139e-11)
(5.87267e-13 -7.19789e-12 -1.13975e-11)
(-1.48794e-13 -7.19889e-12 -1.09291e-11)
(-2.42378e-11 -9.42188e-12 5.44372e-12)
(-1.63706e-11 -5.53901e-12 1.40038e-12)
(-1.01425e-11 -8.0931e-12 -5.31304e-13)
(-3.58255e-12 -7.90768e-12 -1.93469e-12)
(-4.67876e-14 -8.6369e-12 -1.10498e-12)
(-1.37686e-12 -9.46756e-12 9.47408e-13)
(-6.60523e-13 -8.91218e-12 3.70053e-12)
(-2.03196e-12 -8.9772e-12 4.96303e-12)
(-1.74794e-12 -9.39576e-12 7.58457e-12)
(2.14539e-12 -9.21635e-12 1.03999e-11)
(7.90441e-13 -8.09006e-12 1.36125e-11)
(2.09112e-13 -9.18278e-12 9.74774e-12)
(1.68221e-12 -9.89032e-12 6.13234e-12)
(-3.91987e-13 -9.42281e-12 5.71767e-12)
(-3.31211e-12 -9.30173e-12 4.59067e-12)
(-1.86338e-12 -8.95964e-12 -1.74542e-12)
(1.57634e-13 -8.84185e-12 -7.82505e-12)
(1.52853e-12 -9.21628e-12 -1.21105e-11)
(3.03771e-12 -1.05422e-11 -1.50126e-11)
(2.04777e-12 -9.41062e-12 -1.18685e-11)
(-4.80735e-13 -9.43248e-12 -9.96998e-12)
(8.22959e-13 -9.3713e-12 -8.81134e-12)
(1.57154e-12 -8.79523e-12 -7.82991e-12)
(4.15389e-13 -9.26462e-12 -7.05481e-12)
(6.88863e-13 -9.76097e-12 -5.95348e-12)
(-1.08268e-12 -9.52016e-12 -5.66896e-12)
(-1.95694e-12 -9.74309e-12 -7.1209e-12)
(1.28281e-13 -9.08322e-12 -4.00915e-12)
(8.03782e-14 -8.44173e-12 -1.95029e-12)
(-1.22843e-12 -7.63142e-12 -1.74277e-12)
(-1.53744e-12 -8.01925e-12 -1.74971e-13)
(-2.13598e-12 -8.66902e-12 -2.55283e-12)
(-1.66598e-12 -8.69531e-12 -4.65642e-12)
(-2.7037e-12 -9.94704e-12 -5.68798e-12)
(-2.39477e-13 -1.0027e-11 -6.13031e-12)
(2.02627e-12 -9.45437e-12 -4.82597e-12)
(3.28102e-13 -9.82891e-12 -5.06425e-12)
(1.18817e-14 -9.9329e-12 -4.65814e-12)
(-3.23297e-13 -1.01725e-11 -4.83459e-12)
(-8.93853e-13 -8.85803e-12 -5.80949e-12)
(-2.24684e-12 -9.26516e-12 -7.49504e-12)
(2.01641e-13 -1.00013e-11 -9.2694e-12)
(1.77695e-12 -9.82556e-12 -9.86955e-12)
(-1.27923e-13 -1.01283e-11 -1.07026e-11)
(-1.60683e-12 -9.51351e-12 -9.93239e-12)
(-4.44477e-13 -1.04795e-11 -9.49451e-12)
(1.13584e-12 -1.06573e-11 -9.04988e-12)
(1.84834e-12 -1.1154e-11 -1.08291e-11)
(4.16002e-12 -1.10946e-11 -1.30512e-11)
(3.19089e-12 -1.10291e-11 -9.13786e-12)
(1.08193e-12 -1.03946e-11 -6.07312e-12)
(-2.99832e-13 -1.00573e-11 -5.95073e-12)
(3.31664e-13 -1.01974e-11 -7.42965e-12)
(1.11814e-12 -1.05451e-11 -5.66057e-12)
(-2.75036e-13 -1.03955e-11 -4.27152e-12)
(-1.01243e-12 -1.0349e-11 -1.74822e-12)
(-9.215e-13 -8.7217e-12 2.00897e-12)
(-2.67023e-12 -1.00493e-11 5.59649e-12)
(1.70395e-13 -1.13025e-11 8.04916e-12)
(1.80122e-12 -1.05987e-11 9.99158e-12)
(-4.91574e-13 -8.81371e-12 1.22186e-11)
(-1.80268e-12 -9.25539e-12 9.93734e-12)
(2.79431e-14 -9.69626e-12 7.19148e-12)
(6.35594e-13 -1.00801e-11 4.3078e-12)
(1.02644e-12 -9.67158e-12 1.6792e-12)
(-3.9161e-14 -1.11946e-11 6.48305e-13)
(-2.43276e-12 -1.10042e-11 -1.49016e-12)
(-1.14998e-13 -1.14428e-11 -5.51077e-12)
(2.57265e-12 -1.06521e-11 -1.06215e-11)
(1.65064e-12 -1.04756e-11 -1.1519e-11)
(4.29148e-14 -9.7875e-12 -1.27849e-11)
(-1.19776e-12 -1.00505e-11 -1.27717e-11)
(3.11525e-13 -8.48094e-12 -1.23226e-11)
(1.3332e-12 -8.537e-12 -1.11525e-11)
(-1.70854e-13 -8.6318e-12 -1.1566e-11)
(-1.31613e-12 -8.76489e-12 -1.26829e-11)
(-3.24822e-12 -7.97004e-12 -1.3418e-11)
(-1.52461e-12 -9.00825e-12 -1.27433e-11)
(3.95126e-13 -8.47928e-12 -9.81055e-12)
(1.4609e-12 -9.11888e-12 -5.45225e-12)
(2.40337e-12 -8.91904e-12 -2.04932e-12)
(6.99674e-13 -1.06009e-11 -4.02478e-12)
(-5.65708e-13 -1.04937e-11 -5.33018e-12)
(8.20362e-14 -1.06569e-11 -6.73782e-12)
(2.67117e-12 -1.08677e-11 -7.20406e-12)
(2.58639e-12 -1.02189e-11 -7.18366e-12)
(9.73003e-13 -8.96615e-12 -6.05031e-12)
(-2.19485e-13 -9.67492e-12 -3.41719e-12)
(-1.57893e-13 -9.29985e-12 -1.84795e-12)
(1.48017e-13 -9.91096e-12 1.97404e-12)
(-1.74877e-12 -1.01887e-11 4.24891e-12)
(-3.03451e-12 -9.41827e-12 3.90116e-12)
(-3.43449e-12 -8.06738e-12 6.21771e-12)
(-3.25801e-12 -9.15208e-12 4.00409e-12)
(-5.33048e-13 -8.58605e-12 3.18506e-12)
(1.9674e-12 -7.96313e-12 3.05182e-12)
(1.54182e-13 -7.97398e-12 4.20801e-12)
(7.12226e-13 -9.41596e-12 -1.11107e-12)
(2.36464e-12 -8.80728e-12 -4.83277e-12)
(7.7048e-13 -8.79551e-12 -6.09813e-12)
(4.23696e-13 -9.23469e-12 -6.34912e-12)
(3.70181e-13 -9.24839e-12 -6.27536e-12)
(1.42783e-12 -8.88611e-12 -7.17367e-12)
(1.88735e-12 -8.28624e-12 -7.63769e-12)
(6.99023e-13 -8.96187e-12 -5.56634e-12)
(-2.05306e-11 -6.97454e-12 3.83837e-12)
(-1.44423e-11 -5.36707e-12 5.6e-13)
(-7.84986e-12 -6.28435e-12 7.9844e-13)
(-4.47129e-12 -7.01261e-12 -2.16524e-12)
(-1.55966e-12 -6.77644e-12 -9.9447e-13)
(-1.78504e-12 -5.94383e-12 8.45383e-13)
(-1.426e-12 -6.50806e-12 3.17565e-12)
(-1.08282e-12 -5.50961e-12 3.89935e-12)
(-8.67755e-13 -6.69603e-12 5.78087e-12)
(7.45655e-14 -5.2914e-12 8.10395e-12)
(3.4612e-13 -3.2281e-12 8.79807e-12)
(1.03789e-12 -4.00113e-12 8.01044e-12)
(4.42628e-13 -4.79233e-12 6.26198e-12)
(-1.02477e-12 -3.81953e-12 4.31115e-12)
(-1.37483e-12 -4.15736e-12 2.3138e-12)
(-2.36477e-13 -5.84746e-12 -9.67485e-13)
(3.83761e-13 -5.95222e-12 -5.16462e-12)
(1.25419e-12 -6.57332e-12 -8.9673e-12)
(1.46671e-12 -5.96411e-12 -1.13678e-11)
(1.37558e-12 -4.44153e-12 -1.05628e-11)
(2.67301e-13 -4.47826e-12 -9.13887e-12)
(3.63245e-13 -5.05978e-12 -7.49541e-12)
(9.06318e-13 -4.22789e-12 -7.33874e-12)
(8.00949e-13 -4.77216e-12 -6.48692e-12)
(4.69673e-13 -4.14683e-12 -4.93535e-12)
(-7.49978e-13 -3.35539e-12 -3.91906e-12)
(-1.23668e-12 -4.46053e-12 -3.17488e-12)
(-8.5759e-13 -4.70104e-12 -1.42358e-12)
(-1.72234e-12 -3.4092e-12 -9.59697e-13)
(-1.40127e-12 -3.08885e-12 -2.37046e-12)
(-8.03979e-13 -3.39439e-12 -2.24653e-12)
(-1.4237e-12 -3.77866e-12 -1.99599e-12)
(-1.07884e-12 -3.26523e-12 -3.53973e-12)
(-1.52345e-12 -4.64429e-12 -6.11164e-12)
(-1.34975e-12 -5.7694e-12 -7.87251e-12)
(-2.64122e-13 -3.84859e-12 -7.45818e-12)
(4.96104e-13 -3.47674e-12 -5.08312e-12)
(7.11e-13 -4.4144e-12 -5.54349e-12)
(-1.02454e-12 -4.66361e-12 -5.70552e-12)
(-1.67235e-12 -4.46701e-12 -6.23081e-12)
(5.92809e-14 -4.62132e-12 -8.27192e-12)
(9.42075e-13 -6.4913e-12 -9.76265e-12)
(7.6724e-13 -4.88364e-12 -1.04269e-11)
(-2.98674e-13 -5.0894e-12 -9.9822e-12)
(-3.17219e-13 -4.33657e-12 -7.53844e-12)
(1.08473e-12 -7.12714e-12 -5.53363e-12)
(1.52125e-12 -6.82719e-12 -4.37025e-12)
(1.34689e-12 -7.75725e-12 -5.99361e-12)
(2.42578e-12 -6.74107e-12 -9.21834e-12)
(2.69264e-12 -6.19454e-12 -7.82619e-12)
(1.00616e-12 -5.56793e-12 -6.45154e-12)
(-3.40159e-15 -5.0448e-12 -6.51956e-12)
(6.11735e-13 -6.06901e-12 -6.7464e-12)
(1.05509e-12 -5.75802e-12 -6.66034e-12)
(-2.21274e-13 -5.60932e-12 -5.25941e-12)
(-2.03328e-12 -5.54245e-12 -2.55556e-12)
(-1.41425e-12 -4.17363e-12 1.65734e-12)
(6.12909e-13 -6.36099e-12 5.97484e-12)
(8.69857e-13 -8.19395e-12 8.83519e-12)
(-3.30989e-14 -6.36104e-12 1.04056e-11)
(-4.18091e-13 -5.16672e-12 1.14938e-11)
(-2.00556e-13 -5.59408e-12 1.10124e-11)
(4.60168e-13 -6.63177e-12 1.04441e-11)
(-7.92101e-13 -6.21581e-12 8.68517e-12)
(-2.98355e-13 -5.43206e-12 6.47311e-12)
(4.99399e-13 -5.25484e-12 7.18004e-12)
(-1.04092e-12 -5.64438e-12 6.04793e-12)
(-1.22798e-12 -8.08718e-12 2.68523e-12)
(2.9321e-13 -6.38001e-12 -1.86849e-12)
(1.42751e-12 -4.1197e-12 -6.95642e-12)
(7.7286e-14 -4.42671e-12 -1.02848e-11)
(-1.06461e-12 -4.43108e-12 -1.07775e-11)
(-2.34184e-13 -4.97383e-12 -1.09746e-11)
(4.97623e-13 -3.92648e-12 -1.03841e-11)
(-3.49631e-13 -3.32319e-12 -1.07959e-11)
(-1.26397e-12 -3.2778e-12 -1.19394e-11)
(-1.24188e-12 -2.88663e-12 -1.17959e-11)
(-1.31975e-13 -4.81908e-12 -1.08921e-11)
(2.04014e-13 -5.042e-12 -8.5585e-12)
(7.91271e-13 -5.13486e-12 -6.46167e-12)
(1.18341e-12 -4.32006e-12 -5.42874e-12)
(8.64114e-13 -4.82425e-12 -4.74538e-12)
(7.30817e-14 -4.97323e-12 -5.22546e-12)
(2.53486e-13 -6.04963e-12 -6.14906e-12)
(1.68597e-12 -6.45888e-12 -6.96688e-12)
(1.61035e-12 -5.09814e-12 -6.94997e-12)
(6.52511e-13 -3.66169e-12 -6.06525e-12)
(5.8196e-13 -4.09358e-12 -2.58617e-12)
(2.75401e-13 -4.79407e-12 3.26046e-13)
(2.67802e-13 -4.41469e-12 4.02813e-12)
(-1.97234e-12 -4.49645e-12 4.8173e-12)
(-3.30653e-12 -4.24589e-12 4.20059e-12)
(-2.34298e-12 -3.79391e-12 3.1741e-12)
(-1.35258e-12 -4.42549e-12 1.99544e-12)
(-9.16764e-13 -5.41134e-12 2.99569e-12)
(4.08865e-13 -5.03806e-12 1.88397e-12)
(8.57739e-13 -4.45251e-12 4.89015e-13)
(8.63456e-13 -5.70565e-12 -1.57277e-12)
(7.34873e-13 -3.50254e-12 -4.19654e-12)
(6.78904e-13 -3.525e-12 -5.16733e-12)
(1.08673e-12 -3.58354e-12 -4.61201e-12)
(2.73168e-13 -4.64125e-12 -4.8438e-12)
(2.56677e-13 -4.60664e-12 -5.95676e-12)
(1.91507e-12 -4.3291e-12 -7.38791e-12)
(2.04798e-12 -3.86555e-12 -6.65394e-12)
(-1.89859e-11 7.71524e-13 3.10732e-12)
(-1.36365e-11 5.10124e-13 4.88095e-13)
(-8.17509e-12 7.33577e-13 -9.04693e-13)
(-4.34015e-12 -2.21079e-12 -1.01065e-12)
(-2.13421e-12 -1.62185e-12 1.18925e-12)
(-2.27635e-12 -5.35878e-13 3.66105e-12)
(-1.74485e-12 -4.96827e-13 5.67031e-12)
(-1.85792e-12 -2.67374e-14 4.76463e-12)
(-1.52795e-12 -2.00758e-13 4.48906e-12)
(-8.93916e-13 1.52522e-12 5.46702e-12)
(-1.34473e-13 4.21246e-12 5.16357e-12)
(1.51997e-12 2.07477e-12 4.86787e-12)
(7.37811e-13 1.43084e-12 4.23573e-12)
(-1.13248e-12 1.43116e-12 3.72378e-12)
(-1.09349e-12 2.0436e-12 2.23634e-12)
(1.22057e-13 3.23629e-13 -6.83088e-13)
(1.0913e-12 -4.60042e-13 -1.68914e-12)
(9.04352e-13 -1.52963e-13 -5.17165e-12)
(8.34933e-13 1.93728e-12 -8.22426e-12)
(5.02006e-13 1.34027e-12 -7.7395e-12)
(1.36062e-13 1.82064e-12 -8.13859e-12)
(2.61386e-13 2.39667e-12 -8.84555e-12)
(6.85782e-13 1.53729e-12 -7.01446e-12)
(8.6277e-13 9.31576e-13 -4.94304e-12)
(6.04122e-13 1.59804e-12 -2.11529e-12)
(-5.39617e-13 1.41116e-12 6.56309e-13)
(-6.01863e-13 1.05973e-12 2.0777e-12)
(-1.12165e-12 1.16182e-12 2.58063e-12)
(-1.93572e-12 1.44468e-12 1.65623e-12)
(-1.80345e-12 2.77047e-12 -2.17627e-13)
(-1.3968e-12 1.93533e-12 2.61944e-13)
(-1.99391e-12 1.75459e-12 1.01854e-12)
(-1.50298e-12 3.54102e-12 -2.21668e-12)
(3.93211e-13 1.19902e-12 -7.27027e-12)
(-1.176e-12 1.96185e-12 -1.19736e-11)
(-1.40639e-13 3.70498e-12 -1.3893e-11)
(1.30057e-12 2.00817e-12 -1.2526e-11)
(7.91084e-13 5.45637e-13 -1.01625e-11)
(-5.45262e-13 8.54315e-13 -9.27265e-12)
(-4.97026e-13 1.61722e-12 -9.58237e-12)
(7.49023e-13 6.36644e-13 -7.7445e-12)
(3.73745e-13 -1.0523e-12 -6.55211e-12)
(6.02577e-13 -7.5485e-13 -4.07015e-12)
(-7.3101e-14 -1.26453e-12 -3.63586e-12)
(1.26734e-13 3.12739e-14 -1.28697e-12)
(1.8568e-12 -8.45108e-13 1.98238e-12)
(1.45666e-12 -1.99928e-12 3.46458e-12)
(1.13394e-12 -1.05009e-12 2.25996e-12)
(2.16223e-12 -1.02628e-14 -2.38505e-12)
(2.0322e-12 -9.90573e-13 -5.35544e-12)
(-2.04727e-13 -7.71336e-13 -8.44208e-12)
(1.52691e-13 8.22627e-13 -1.00866e-11)
(1.10049e-12 5.55322e-13 -8.38877e-12)
(8.61247e-13 1.68311e-14 -4.83694e-12)
(-2.36976e-13 -9.42561e-13 -1.09522e-12)
(-2.14246e-12 -2.44068e-13 8.45923e-13)
(-9.76346e-13 1.21652e-12 2.93207e-12)
(1.24291e-12 -4.67695e-13 6.29575e-12)
(9.85301e-13 -1.70229e-12 1.15526e-11)
(-1.65286e-13 -1.22182e-12 1.4185e-11)
(-3.86264e-13 -9.23649e-13 1.42281e-11)
(4.08644e-13 -2.00853e-12 1.48698e-11)
(7.05956e-13 -1.77989e-12 1.55202e-11)
(4.28903e-14 -1.87937e-12 1.61304e-11)
(-4.42948e-14 -2.49782e-12 1.58001e-11)
(-1.46756e-13 -1.99377e-12 1.64166e-11)
(-1.63675e-12 -1.65737e-12 1.38223e-11)
(-8.80531e-13 -1.73951e-12 8.83994e-12)
(-8.24053e-13 1.61012e-12 3.3772e-12)
(-3.66295e-13 1.23811e-12 -6.21977e-13)
(-9.39095e-13 1.91169e-13 -5.445e-12)
(-7.07889e-13 1.03818e-12 -7.59699e-12)
(2.58741e-14 -1.04445e-12 -6.80298e-12)
(-5.03085e-13 -1.85733e-13 -5.05528e-12)
(-9.19435e-13 1.21635e-12 -4.23893e-12)
(-1.53181e-12 8.88354e-13 -6.32845e-12)
(-1.37275e-12 2.07629e-12 -8.69118e-12)
(4.16886e-13 2.54977e-12 -9.38119e-12)
(-1.02949e-13 1.19298e-12 -7.99367e-12)
(1.67909e-13 2.38762e-12 -6.89309e-12)
(1.75929e-12 2.46049e-12 -6.40068e-12)
(1.25561e-12 1.15536e-12 -4.66244e-12)
(8.39069e-13 5.5911e-13 -4.41995e-12)
(1.08579e-12 1.24849e-12 -5.81963e-12)
(1.00166e-12 4.5553e-13 -6.98e-12)
(5.6922e-13 -6.64423e-14 -6.67533e-12)
(5.4032e-13 3.99756e-13 -4.82582e-12)
(1.16831e-12 1.60348e-13 1.71119e-13)
(5.56659e-13 -6.06721e-13 5.52503e-12)
(-5.98346e-13 -2.67043e-13 9.32439e-12)
(-2.71155e-12 3.71543e-13 8.59467e-12)
(-3.23309e-12 7.34902e-13 3.35081e-12)
(-2.74796e-12 3.0108e-12 -1.31028e-12)
(-1.40561e-12 4.4862e-12 -4.00265e-12)
(-2.4417e-13 2.25775e-12 -2.7809e-12)
(4.06008e-13 1.53098e-12 -8.2693e-13)
(6.75345e-13 7.41734e-13 -2.79676e-13)
(-2.25405e-13 1.04077e-12 -2.35044e-12)
(4.99528e-13 3.09723e-12 -5.79481e-12)
(5.63093e-13 2.76049e-12 -5.76986e-12)
(1.34976e-12 3.46234e-12 -3.85086e-12)
(1.82226e-12 1.19525e-12 -3.72416e-12)
(1.44053e-12 2.5915e-13 -5.02312e-12)
(1.32735e-12 3.16724e-13 -7.24861e-12)
(5.19309e-13 1.63876e-12 -8.16039e-12)
(-1.9662e-11 5.23604e-12 3.15373e-12)
(-1.4495e-11 3.53372e-12 -2.62967e-12)
(-5.54221e-12 3.22087e-12 -4.55584e-12)
(-1.99872e-12 3.13808e-12 -2.61733e-12)
(-2.41165e-12 4.59922e-12 6.00918e-13)
(-2.98069e-12 5.35971e-12 3.89476e-12)
(-1.98373e-12 6.47659e-12 6.61402e-12)
(-1.28377e-12 6.53211e-12 4.59653e-12)
(-2.28124e-12 6.65105e-12 3.40263e-12)
(-4.05035e-12 7.07923e-12 3.51503e-12)
(1.66046e-14 7.83244e-12 3.37118e-12)
(4.03021e-12 6.44112e-12 3.48076e-12)
(1.03418e-12 7.6038e-12 3.43194e-12)
(-1.56441e-12 7.34147e-12 2.93033e-12)
(-1.06734e-13 7.2474e-12 1.86627e-12)
(1.63923e-12 6.02977e-12 6.90365e-13)
(4.89836e-13 6.39888e-12 -9.5334e-13)
(-8.7133e-13 5.75554e-12 -4.60641e-12)
(3.47617e-13 6.78004e-12 -9.21182e-12)
(1.2604e-12 7.361e-12 -7.67688e-12)
(-5.50841e-13 7.44846e-12 -8.16486e-12)
(4.02791e-13 7.3421e-12 -9.82187e-12)
(2.30713e-12 7.3365e-12 -7.66157e-12)
(9.00262e-13 7.0313e-12 -5.10332e-12)
(5.80744e-13 7.99709e-12 -1.86338e-12)
(-2.29386e-13 7.64194e-12 1.02449e-12)
(-6.23412e-13 7.95115e-12 2.44518e-12)
(-1.69565e-12 7.52785e-12 2.55203e-12)
(-3.5711e-12 7.08301e-12 1.04521e-12)
(-2.25956e-12 7.64473e-12 -2.06268e-12)
(-5.07322e-13 7.74688e-12 2.97288e-12)
(-3.46474e-12 7.03245e-12 1.61266e-12)
(-1.14875e-12 5.98024e-12 -1.75186e-12)
(1.27447e-12 6.10282e-12 -8.43067e-12)
(-3.74479e-12 5.99779e-12 -1.55175e-11)
(-3.01449e-14 5.905e-12 -2.00201e-11)
(4.19067e-12 5.82107e-12 -1.71527e-11)
(1.8244e-12 6.06878e-12 -1.1747e-11)
(-2.16988e-12 5.69997e-12 -1.11122e-11)
(-1.28716e-12 4.78091e-12 -1.38342e-11)
(3.3116e-12 5.20847e-12 -9.1838e-12)
(1.54908e-12 4.69615e-12 -3.5792e-12)
(4.66717e-13 3.99498e-12 1.94703e-12)
(-8.64133e-13 3.78344e-12 -5.94084e-13)
(-1.62929e-13 4.52139e-12 2.15158e-12)
(2.59832e-12 3.95007e-12 7.45321e-12)
(1.27794e-12 4.24877e-12 5.40886e-12)
(-2.83475e-13 4.8819e-12 5.50797e-12)
(2.82263e-12 5.6744e-12 9.07142e-13)
(3.60505e-12 4.77801e-12 -4.43578e-12)
(-1.29279e-12 4.50816e-12 -8.41918e-12)
(-1.54789e-12 5.1074e-12 -1.24261e-11)
(1.75567e-12 6.42344e-12 -1.15007e-11)
(2.62852e-12 5.97578e-12 -5.31775e-12)
(-6.3656e-13 5.25989e-12 -8.61854e-14)
(-3.79964e-12 5.78246e-12 1.16282e-12)
(-5.63283e-13 5.8922e-12 2.83469e-12)
(3.48892e-12 5.19653e-12 5.87663e-12)
(1.72706e-12 5.72245e-12 1.0751e-11)
(-6.3338e-13 5.88952e-12 1.38305e-11)
(7.02709e-14 5.57166e-12 1.367e-11)
(7.93853e-13 4.40893e-12 1.50711e-11)
(3.2536e-13 4.42017e-12 1.56629e-11)
(-3.88293e-13 5.01203e-12 1.79049e-11)
(-2.17087e-13 5.84438e-12 1.95625e-11)
(1.06955e-13 5.70558e-12 1.79036e-11)
(-1.42356e-12 4.20847e-12 1.42722e-11)
(-3.94056e-12 5.38782e-12 8.87726e-12)
(-1.92631e-12 5.90168e-12 2.51346e-12)
(1.49806e-12 6.19236e-12 2.99825e-12)
(-1.02876e-12 5.9355e-12 -2.90911e-12)
(-4.93448e-13 4.95324e-12 -7.80081e-12)
(8.82606e-13 5.79359e-12 -6.05138e-12)
(-1.55353e-12 5.2981e-12 -2.92261e-12)
(-1.00415e-12 5.93838e-12 1.66633e-12)
(-1.83868e-12 6.17107e-12 -4.04558e-12)
(-3.32359e-12 6.22579e-12 -9.09858e-12)
(1.01366e-12 5.84749e-12 -1.26623e-11)
(2.69125e-13 6.22974e-12 -7.94874e-12)
(-7.91136e-13 6.31041e-12 -4.71182e-12)
(2.83636e-12 6.78582e-12 -4.19159e-12)
(3.05715e-12 5.95581e-12 -3.41207e-12)
(4.32499e-14 5.8922e-12 -4.06344e-12)
(-2.21687e-13 5.9946e-12 -7.18646e-12)
(2.52986e-12 5.86753e-12 -7.93775e-12)
(1.28915e-12 5.04792e-12 -6.98798e-12)
(9.48891e-14 5.61804e-12 -5.64301e-12)
(1.54641e-12 6.38651e-12 1.97704e-13)
(7.68702e-13 7.3261e-12 6.3652e-12)
(-2.97628e-13 7.27835e-12 9.54844e-12)
(-2.86347e-12 7.14118e-12 7.98019e-12)
(-4.91022e-12 5.97912e-12 1.83207e-12)
(-6.16961e-12 7.00462e-12 -4.62617e-12)
(-1.23303e-12 5.69877e-12 -1.05829e-11)
(1.65921e-12 6.52617e-12 -8.6746e-12)
(1.86924e-12 6.17327e-12 -4.52746e-12)
(1.64406e-12 6.59603e-12 3.83404e-13)
(-1.11426e-12 6.20606e-12 -4.26399e-12)
(-7.7416e-13 5.58872e-12 -1.06153e-11)
(-8.12998e-14 6.33415e-12 -8.9995e-12)
(2.9752e-12 7.01158e-12 -5.37169e-12)
(3.82572e-12 5.74429e-12 -4.26354e-12)
(7.17226e-13 5.23445e-12 -6.58261e-12)
(6.8272e-13 5.7861e-12 -8.9885e-12)
(1.14527e-12 5.24597e-12 -9.06054e-12)
(-2.10753e-11 3.18639e-12 2.07598e-12)