/*--------------------------------*- C++ -*----------------------------------*\
| =========                 |                                                 |
| \\      /  F ield         | OpenFOAM: The Open Source CFD Toolbox           |
|  \\    /   O peration     | Version:  2406                                  |
|   \\  /    A nd           | Website:  www.openfoam.com                      |
|    \\/     M anipulation  |                                                 |
\*---------------------------------------------------------------------------*/
FoamFile
{
    version     2.0;
    format      ascii;
    arch        "LSB;label=32;scalar=64";
    class       volScalarField;
    location    "0.01";
    object      Ma;
}
// * * * * * * * * * * * * * * * * * * * * * * * * * * * * * * * * * * * * * //

dimensions      [0 0 0 0 0 0 0];

internalField   nonuniform List<scalar> 
13962
(
1.132
1.132
1.132
1.13199
1.13152
1.12031
1.05292
1.02064
1.02006
1.02019
1.02049
1.02071
1.02067
1.02048
1.02034
1.0203
1.02023
1.02011
1.01997
1.01981
1.0197
1.01961
1.01949
1.01936
1.01928
1.01923
1.01918
1.01912
1.01906
1.01901
1.01899
1.01898
1.01895
1.01892
1.01891
1.01889
1.01887
1.01885
1.01886
1.01888
1.01891
1.01894
1.01896
1.01897
1.01899
1.01901
1.01902
1.01904
1.01906
1.01908
1.01911
1.01914
1.01915
1.01915
1.01915
1.01914
1.01913
1.01911
1.0191
1.01907
1.01906
1.01904
1.01899
1.0189
1.01874
1.01839
1.01764
1.01617
1.01335
1.0083
0.99977
0.986263
0.966355
0.939288
0.905582
0.867602
0.829801
0.797707
0.775714
0.767101
0.765498
0.764772
0.764608
0.76465
0.764849
0.765255
0.765798
0.766314
0.766761
0.767181
0.767416
0.767436
0.767409
0.767316
0.76715
0.766931
0.76669
0.766504
0.766453
0.766462
0.766512
0.766614
0.766763
0.766872
0.766896
0.766894
0.766864
0.766777
0.76665
0.766564
0.766543
0.766548
0.766591
0.766682
0.766815
0.766927
0.766957
0.766952
0.766923
0.76685
0.76673
0.766589
0.766499
0.766488
0.766498
0.766543
0.766633
0.766755
0.766864
0.766916
0.766917
0.766887
0.766683
0.765444
0.75787
0.713892
0.517605
0.130407
0.00332337
6.02352e-06
5.87507e-10
2.20285e-14
1.90192e-14
2.17781e-14
2.25764e-14
2.29295e-14
2.35756e-14
2.43602e-14
2.47262e-14
2.56272e-14
2.64908e-14
2.58644e-14
2.47822e-14
2.32e-14
2.37725e-14
2.24185e-14
2.42706e-14
2.51364e-14
2.55893e-14
2.34543e-14
2.36079e-14
2.22204e-14
2.18119e-14
1.98388e-14
1.69287e-14
1.71684e-14
1.52762e-14
1.53742e-14
1.3908e-14
1.16328e-14
9.46835e-15
9.55139e-15
8.99868e-15
9.63372e-15
1.1335e-14
8.95552e-15
6.95214e-15
6.45636e-15
6.91889e-15
4.81028e-15
4.91793e-15
7.29179e-15
1.15433e-14
1.07836e-14
1.10763e-14
1.6588e-14
2.13223e-14
2.51748e-14
2.89222e-14
2.90139e-14
2.79336e-14
3.22382e-14
2.97407e-14
2.37545e-14
2.35221e-14
2.14699e-14
1.58989e-14
1.6148e-14
1.49436e-14
1.97577e-14
2.19934e-14
2.09408e-14
1.61671e-14
1.21918e-14
1.50714e-14
1.77202e-14
2.23854e-14
3.08737e-14
3.69564e-14
3.52424e-14
3.56114e-14
3.03778e-14
2.58366e-14
2.36821e-14
1.51911e-14
1.34466e-14
2.214e-14
1.99675e-14
2.22061e-14
2.12406e-14
1.52471e-14
9.73741e-15
9.8205e-15
9.72815e-15
1.19672e-14
1.34282e-14
1.73479e-14
2.28368e-14
2.46712e-14
1.47681e-14
1.27755e-14
1.41964e-14
1.20811e-14
1.0054e-14
1.00677e-14
5.75667e-15
9.98716e-15
1.47393e-14
1.34952e-14
1.46148e-14
1.15923e-14
1.1581e-14
1.3393e-14
9.26894e-15
9.97386e-15
9.74046e-15
7.671e-15
1.07517e-14
1.13336e-14
7.9775e-15
2.02536e-14
3.21522e-14
3.45762e-14
3.49401e-14
2.84535e-14
1.91861e-14
1.56026e-14
1.52887e-14
1.1633e-14
1.35839e-14
1.44906e-14
2.1023e-14
2.46528e-14
2.00561e-14
1.82302e-14
1.62643e-14
1.26186e-14
1.41814e-14
1.18651e-14
8.72668e-15
1.00149e-15
1.06525e-14
1.3862e-14
1.10113e-14
1.23726e-14
1.20803e-14
8.68825e-15
4.76697e-15
6.38395e-15
1.3981e-14
2.23905e-14
2.63811e-14
2.33706e-14
1.31274e-14
4.2175e-15
9.99656e-15
1.18489e-14
1.66363e-14
1.58635e-14
1.70202e-14
1.64417e-14
1.98156e-14
2.08736e-14
2.17479e-14
2.13379e-14
2.30569e-14
2.28858e-14
2.27163e-14
2.2641e-14
2.06595e-14
2.02096e-14
2.08836e-14
1.99149e-14
2.36541e-14
1.90519e-14
1.48181e-14
1.51139e-14
1.16646e-14
7.88124e-15
9.05396e-15
5.22332e-15
1.01317e-14
1.78028e-14
2.29044e-14
2.50507e-14
2.4786e-14
2.89043e-14
2.85059e-14
2.33118e-14
1.82984e-14
1.47026e-14
1.34831e-14
1.21055e-14
1.58886e-14
1.91928e-14
1.47376e-14
1.36271e-14
1.57108e-14
1.06246e-14
5.73249e-15
3.48959e-15
1.01861e-14
2.27911e-14
3.52191e-14
4.02095e-14
3.54274e-14
3.33584e-14
2.96247e-14
2.67068e-14
2.84187e-14
3.17631e-14
2.70339e-14
1.93467e-14
1.98503e-14
1.66191e-14
1.06875e-14
1.29151e-14
1.93106e-14
1.7118e-14
1.95793e-14
2.04552e-14
1.94377e-14
2.30712e-14
2.27275e-14
1.80374e-14
1.94368e-14
1.88301e-14
2.02416e-14
2.14406e-14
1.68826e-14
2.23438e-14
2.53132e-14
2.46054e-14
2.51092e-14
2.57495e-14
2.29245e-14
2.53167e-14
2.69712e-14
2.22591e-14
1.43822e-14
1.10935e-14
1.01487e-14
1.24661e-14
1.47079e-14
1.37474e-14
1.58813e-14
1.33083e-14
1.33574e-14
1.73938e-14
1.66856e-14
1.44675e-14
1.98036e-14
2.00264e-14
1.67379e-14
2.01928e-14
1.99467e-14
2.0977e-14
2.27344e-14
1.4214e-14
7.5284e-15
6.00363e-15
1.14787e-14
2.01889e-14
2.66811e-14
1.80438e-14
1.19367e-14
4.67482e-15
6.58653e-15
9.72571e-15
1.4671e-14
2.16498e-14
2.64421e-14
2.52574e-14
2.31657e-14
1.88479e-14
1.49903e-14
1.76306e-14
2.10103e-14
1.83715e-14
1.24847e-14
7.86423e-15
1.12267e-14
7.25296e-15
9.08497e-15
1.32017e-14
1.78119e-14
1.75785e-14
1.95464e-14
1.46453e-14
7.2133e-15
6.25289e-15
6.35995e-15
6.69801e-15
4.97521e-15
5.5023e-15
8.19857e-15
7.77638e-15
1.21585e-14
1.48225e-14
1.54788e-14
1.42021e-14
9.41038e-15
6.85635e-15
1.11156e-14
1.21011e-14
8.03737e-15
1.4987e-14
2.68232e-14
3.82531e-14
3.69578e-14
2.28206e-14
7.98382e-15
8.39136e-15
6.02407e-15
8.87617e-15
1.24049e-14
1.11313e-14
1.20746e-14
1.56488e-14
1.49101e-14
1.54038e-14
1.42925e-14
1.06628e-14
1.33182e-14
1.45188e-14
1.74352e-14
2.29751e-14
2.75621e-14
2.68851e-14
2.68464e-14
2.7177e-14
2.59852e-14
2.26396e-14
1.99984e-14
1.132
1.132
1.132
1.13199
1.13152
1.12031
1.05292
1.02064
1.02006
1.02019
1.02049
1.02071
1.02067
1.02048
1.02034
1.0203
1.02023
1.02011
1.01997
1.01981
1.0197
1.01961
1.01949
1.01936
1.01928
1.01923
1.01918
1.01912
1.01906
1.01901
1.01899
1.01898
1.01895
1.01892
1.01891
1.01889
1.01887
1.01885
1.01886
1.01888
1.01891
1.01894
1.01896
1.01897
1.01899
1.01901
1.01902
1.01904
1.01906
1.01908
1.01911
1.01914
1.01915
1.01915
1.01915
1.01914
1.01913
1.01911
1.0191
1.01907
1.01906
1.01904
1.01899
1.0189
1.01874
1.01839
1.01764
1.01617
1.01335
1.0083
0.99977
0.986263
0.966355
0.939288
0.905582
0.867602
0.829801
0.797707
0.775714
0.767101
0.765498
0.764772
0.764608
0.76465
0.764849
0.765255
0.765798
0.766314
0.766761
0.767181
0.767416
0.767436
0.767409
0.767316
0.76715
0.766931
0.76669
0.766504
0.766453
0.766462
0.766512
0.766614
0.766763
0.766872
0.766896
0.766894
0.766864
0.766777
0.76665
0.766564
0.766543
0.766548
0.766591
0.766682
0.766815
0.766927
0.766957
0.766952
0.766923
0.76685
0.76673
0.766589
0.766499
0.766488
0.766498
0.766543
0.766633
0.766755
0.766864
0.766916
0.766917
0.766887
0.766683
0.765444
0.75787
0.713892
0.517605
0.130407
0.00332337
6.02352e-06
5.87507e-10
2.23403e-14
2.22576e-14
2.46316e-14
2.56727e-14
2.61291e-14
2.49655e-14
2.31648e-14
2.4505e-14
2.60441e-14
2.61745e-14
2.68735e-14
2.54126e-14
2.25066e-14
2.2355e-14
2.35043e-14
2.35686e-14
2.38419e-14
2.11393e-14
1.97962e-14
2.01416e-14
2.0939e-14
1.86527e-14
1.63195e-14
1.67902e-14
1.61451e-14
1.42885e-14
1.42021e-14
1.06829e-14
8.72409e-15
7.83319e-15
7.01089e-15
7.00532e-15
5.27964e-15
7.34471e-15
8.67324e-15
1.11452e-14
1.02418e-14
9.89265e-15
5.11733e-15
5.41674e-15
7.34604e-15
1.1207e-14
1.09164e-14
1.27259e-14
1.73684e-14
2.19791e-14
2.74028e-14
3.19046e-14
3.25149e-14
2.83158e-14
2.9833e-14
3.00095e-14
2.52813e-14
2.16154e-14
2.28865e-14
1.87824e-14
1.62569e-14
1.46965e-14
1.86842e-14
1.69175e-14
1.59322e-14
1.16144e-14
9.82662e-15
1.30595e-14
1.7024e-14
1.99471e-14
2.63622e-14
3.15028e-14
3.1824e-14
3.39451e-14
3.08018e-14
2.6216e-14
1.93581e-14
1.40407e-14
1.43331e-14
1.93101e-14
2.03099e-14
2.02085e-14
1.69702e-14
1.20422e-14
1.10677e-14
8.94087e-15
8.90468e-15
1.20319e-14
1.40732e-14
1.5082e-14
1.86767e-14
1.93794e-14
1.37136e-14
9.84162e-15
1.09444e-14
1.19868e-14
1.19447e-14
9.85993e-15
7.25496e-15
1.17289e-14
1.41919e-14
1.31801e-14
1.24109e-14
1.00157e-14
9.73284e-15
1.02102e-14
8.10945e-15
1.07265e-14
9.93788e-15
8.65985e-15
1.09998e-14
8.15197e-15
7.11237e-15
1.653e-14
2.34668e-14
2.66404e-14
2.67587e-14
2.25275e-14
1.76054e-14
1.64246e-14
1.39533e-14
1.02399e-14
1.09455e-14
1.13169e-14
1.54013e-14
1.78932e-14
1.7938e-14
1.63115e-14
1.46452e-14
1.45789e-14
1.44874e-14
9.71433e-15
6.9274e-15
6.05465e-15
1.01454e-14
1.25948e-14
8.88114e-15
1.0973e-14
1.17776e-14
6.8237e-15
5.04949e-15
1.01875e-14
1.89766e-14
2.22053e-14
2.07068e-14
2.22687e-14
1.63412e-14
9.20782e-15
1.09168e-14
1.24453e-14
1.72791e-14
1.61722e-14
1.82708e-14
1.75796e-14
2.07272e-14
2.18937e-14
2.30613e-14
2.23475e-14
2.34904e-14
2.14389e-14
2.02959e-14
2.16161e-14
1.68084e-14
1.78345e-14
1.9357e-14
1.76126e-14
2.12798e-14
1.77057e-14
1.34038e-14
1.39152e-14
1.27462e-14
8.62709e-15
8.76555e-15
6.5107e-15
9.4823e-15
1.40239e-14
2.07029e-14
2.4831e-14
2.22971e-14
2.45698e-14
2.58191e-14
2.08732e-14
1.4849e-14
1.46542e-14
1.39412e-14
1.1581e-14
1.37697e-14
1.16179e-14
7.43794e-15
1.25156e-14
1.37397e-14
9.73733e-15
7.23724e-15
4.48171e-15
8.3428e-15
2.01333e-14
3.1528e-14
3.63167e-14
3.26682e-14
3.07603e-14
2.98277e-14
2.47153e-14
2.4058e-14
2.70139e-14
2.313e-14
1.63933e-14
1.71736e-14
1.13129e-14
1.20683e-14
1.22514e-14
1.63871e-14
1.80073e-14
1.95372e-14
1.99974e-14
2.21344e-14
2.05066e-14
1.94181e-14
1.92745e-14
2.144e-14
2.16329e-14
1.82983e-14
1.99081e-14
2.01358e-14
2.29395e-14
2.59203e-14
2.43517e-14
2.47037e-14
2.42692e-14
2.31156e-14
2.63642e-14
2.51646e-14
1.96305e-14
1.26639e-14
1.04302e-14
9.81534e-15
1.15995e-14
1.38835e-14
1.39721e-14
1.48288e-14
1.54589e-14
1.68513e-14
1.77644e-14
1.63257e-14
1.34138e-14
1.898e-14
1.85533e-14
1.8955e-14
2.08734e-14
1.83372e-14
1.94053e-14
1.68519e-14
1.23062e-14
8.66946e-15
7.79441e-15
1.05747e-14
1.6398e-14
1.93081e-14
1.45248e-14
9.33399e-15
4.72882e-15
6.00044e-15
8.35484e-15
1.22884e-14
1.9748e-14
2.70857e-14
2.38354e-14
2.06178e-14
1.65542e-14
1.47983e-14
1.87945e-14
1.96618e-14
1.61045e-14
1.1948e-14
8.66803e-15
6.9815e-15
8.8791e-15
1.08321e-14
1.25083e-14
1.63569e-14
1.67694e-14
1.92331e-14
1.34604e-14
8.90472e-15
7.92707e-15
9.94677e-15
8.47364e-15
7.34603e-15
8.33455e-15
1.26778e-14
1.17917e-14
1.53738e-14
1.6047e-14
1.52689e-14
1.20311e-14
9.41958e-15
5.4428e-15
1.09672e-14
1.0708e-14
8.78038e-15
1.61513e-14
2.30447e-14
3.19498e-14
2.76215e-14
1.62894e-14
7.54971e-15
8.40592e-15
6.8866e-15
8.67591e-15
1.30262e-14
8.94479e-15
1.27683e-14
1.63458e-14
1.35143e-14
1.50896e-14
1.79322e-14
1.35911e-14
1.65844e-14
1.34869e-14
1.58176e-14
2.25306e-14
2.7134e-14
2.51408e-14
2.70712e-14
2.68082e-14
2.48046e-14
2.01219e-14
1.87907e-14
1.132
1.132
1.132
1.13199
1.13152
1.12031
1.05292
1.02064
1.02006
1.02019
1.02049
1.02071
1.02067
1.02048
1.02034
1.0203
1.02023
1.02011
1.01997
1.01981
1.0197
1.01961
1.01949
1.01936
1.01928
1.01923
1.01918
1.01912
1.01906
1.01901
1.01899
1.01898
1.01895
1.01892
1.01891
1.01889
1.01887
1.01885
1.01886
1.01888
1.01891
1.01894
1.01896
1.01897
1.01899
1.01901
1.01902
1.01904
1.01906
1.01908
1.01911
1.01914
1.01915
1.01915
1.01915
1.01914
1.01913
1.01911
1.0191
1.01907
1.01906
1.01904
1.01899
1.0189
1.01874
1.01839
1.01764
1.01617
1.01335
1.0083
0.99977
0.986263
0.966355
0.939288
0.905582
0.867602
0.829801
0.797707
0.775714
0.767101
0.765498
0.764772
0.764608
0.76465
0.764849
0.765255
0.765798
0.766314
0.766761
0.767181
0.767416
0.767436
0.767409
0.767316
0.76715
0.766931
0.76669
0.766504
0.766453
0.766462
0.766512
0.766614
0.766763
0.766872
0.766896
0.766894
0.766864
0.766777
0.76665
0.766564
0.766543
0.766548
0.766591
0.766682
0.766815
0.766927
0.766957
0.766952
0.766923
0.76685
0.76673
0.766589
0.766499
0.766488
0.766498
0.766543
0.766633
0.766755
0.766864
0.766916
0.766917
0.766887
0.766683
0.765444
0.75787
0.713892
0.517605
0.130407
0.00332337
6.02352e-06
5.8751e-10
2.14185e-14
1.97181e-14
2.00872e-14
2.07944e-14
2.22429e-14
2.27866e-14
2.38275e-14
2.5372e-14
2.59859e-14
2.58982e-14
2.35969e-14
2.18479e-14
1.98068e-14
1.95749e-14
1.94377e-14
1.89758e-14
1.75605e-14
1.38998e-14
1.40558e-14
1.34409e-14
1.42347e-14
1.06831e-14
9.92475e-15
1.18836e-14
1.10816e-14
8.48606e-15
7.22775e-15
7.10396e-15
5.97591e-15
4.61646e-15
3.33355e-15
3.15722e-15
6.94858e-15
7.30776e-15
1.35041e-14
1.86778e-14
1.60592e-14
1.63031e-14
9.494e-15
5.74259e-15
4.6187e-15
8.86222e-15
1.22046e-14
1.34339e-14
1.92109e-14
2.15432e-14
2.55156e-14
2.98107e-14
3.14829e-14
2.94494e-14
2.6307e-14
2.3521e-14
2.41029e-14
2.16002e-14
1.86991e-14
1.85725e-14
1.6119e-14
1.74418e-14
1.422e-14
1.38899e-14
1.27295e-14
9.59539e-15
8.00333e-15
9.69744e-15
1.26544e-14
1.67679e-14
1.74679e-14
1.90673e-14
2.21437e-14
2.50871e-14
2.40412e-14
2.02897e-14
1.69206e-14
1.32834e-14
1.2994e-14
1.32519e-14
1.45042e-14
1.14212e-14
8.20271e-15
6.97164e-15
1.07047e-14
8.25715e-15
7.34857e-15
1.00585e-14
1.13482e-14
1.02366e-14
1.14711e-14
1.19749e-14
1.05729e-14
8.67424e-15
8.17189e-15
1.1011e-14
1.09189e-14
1.20043e-14
1.05817e-14
1.22616e-14
1.27357e-14
1.15448e-14
9.77518e-15
7.55615e-15
5.8371e-15
6.23061e-15
4.88773e-15
5.92802e-15
8.84366e-15
1.03198e-14
9.30288e-15
5.60333e-15
6.9338e-15
1.00198e-14
1.33832e-14
1.2192e-14
1.2268e-14
1.3534e-14
1.30679e-14
1.26581e-14
8.62801e-15
6.98492e-15
7.11059e-15
6.83091e-15
7.35093e-15
1.00396e-14
1.28028e-14
1.17279e-14
1.28498e-14
1.31545e-14
1.08614e-14
8.27079e-15
1.04741e-14
9.53753e-15
6.17625e-15
6.6822e-15
7.39533e-15
1.09046e-14
1.00082e-14
9.91486e-15
1.022e-14
1.54574e-14
2.22626e-14
2.06714e-14
2.09804e-14
1.70884e-14
1.83971e-14
1.38929e-14
8.92582e-15
9.25672e-15
1.31322e-14
1.60527e-14
1.62231e-14
1.66611e-14
1.80013e-14
1.78889e-14
2.03938e-14
2.06501e-14
1.90873e-14
1.76767e-14
1.43977e-14
1.47556e-14
1.15833e-14
1.43799e-14
2.03655e-14
1.83764e-14
1.57858e-14
1.31333e-14
9.69946e-15
8.29854e-15
8.74118e-15
9.9671e-15
7.16756e-15
7.55549e-15
1.01223e-14
1.01695e-14
1.45977e-14
1.97732e-14
2.10887e-14
1.88859e-14
1.97798e-14
1.84242e-14
1.73776e-14
1.55632e-14
1.31229e-14
1.28092e-14
9.19462e-15
6.30755e-15
8.81063e-15
1.10317e-14
1.05988e-14
8.26636e-15
6.34893e-15
7.55582e-15
5.10897e-15
1.42488e-14
2.34747e-14
2.5833e-14
2.41407e-14
2.50926e-14
2.70802e-14
2.12314e-14
1.60024e-14
1.75461e-14
1.37632e-14
1.16473e-14
1.38112e-14
9.69046e-15
8.28542e-15
9.1675e-15
1.38809e-14
1.88099e-14
1.75949e-14
1.78909e-14
2.0786e-14
2.20716e-14
1.92301e-14
1.6973e-14
1.84823e-14
2.18835e-14
2.21444e-14
1.93882e-14
1.74401e-14
2.3382e-14
2.64984e-14
2.48863e-14
2.4293e-14
2.23891e-14
2.27915e-14
2.21149e-14
1.95484e-14
1.44949e-14
1.02699e-14
8.99298e-15
9.59394e-15
1.10835e-14
1.37394e-14
1.34518e-14
1.25756e-14
1.46637e-14
1.83907e-14
2.40441e-14
1.785e-14
1.42833e-14
1.84476e-14
1.93176e-14
2.06628e-14
1.97568e-14
2.02523e-14
2.01204e-14
1.90741e-14
1.3793e-14
1.0491e-14
1.00163e-14
1.08764e-14
1.41238e-14
1.23956e-14
1.09393e-14
8.87828e-15
7.47267e-15
7.59639e-15
1.05358e-14
1.51612e-14
1.84742e-14
2.40605e-14
2.21201e-14
1.79366e-14
1.47712e-14
1.67276e-14
1.85525e-14
1.56165e-14
1.28334e-14
1.15946e-14
9.76006e-15
8.25901e-15
1.07038e-14
1.22189e-14
1.61529e-14
1.4014e-14
1.56521e-14
1.89478e-14
1.49675e-14
1.29715e-14
1.35971e-14
1.42192e-14
1.25674e-14
1.33305e-14
1.42356e-14
1.67514e-14
1.57699e-14
1.58865e-14
1.45871e-14
1.43834e-14
1.30312e-14
1.12218e-14
8.16999e-15
1.18951e-14
1.06106e-14
1.6191e-14
1.90599e-14
1.77154e-14
2.31944e-14
1.86999e-14
1.31155e-14
1.03825e-14
1.25562e-14
1.12922e-14
1.22829e-14
1.07996e-14
1.02783e-14
1.41938e-14
1.31927e-14
1.1566e-14
1.25809e-14
1.44344e-14
1.55994e-14
1.53465e-14
1.39571e-14
1.61616e-14
2.0043e-14
2.05897e-14
2.02444e-14
2.10355e-14
1.928e-14
1.93062e-14
1.74075e-14
1.66664e-14
1.132
1.132
1.132
1.13199
1.13152
1.12031
1.05292
1.02064
1.02006
1.02019
1.02049
1.02071
1.02067
1.02048
1.02034
1.0203
1.02023
1.02011
1.01997
1.01981
1.0197
1.01961
1.01949
1.01936
1.01928
1.01923
1.01918
1.01912
1.01906
1.01901
1.01899
1.01898
1.01895
1.01892
1.01891
1.01889
1.01887
1.01885
1.01886
1.01888
1.01891
1.01894
1.01896
1.01897
1.01899
1.01901
1.01902
1.01904
1.01906
1.01908
1.01911
1.01914
1.01915
1.01915
1.01915
1.01914
1.01913
1.01911
1.0191
1.01907
1.01906
1.01904
1.01899
1.0189
1.01874
1.01839
1.01764
1.01617
1.01335
1.0083
0.99977
0.986263
0.966355
0.939288
0.905582
0.867602
0.829801
0.797707
0.775714
0.767101
0.765498
0.764772
0.764608
0.76465
0.764849
0.765255
0.765798
0.766314
0.766761
0.767181
0.767416
0.767436
0.767409
0.767316
0.76715
0.766931
0.76669
0.766504
0.766453
0.766462
0.766512
0.766614
0.766763
0.766872
0.766896
0.766894
0.766864
0.766777
0.76665
0.766564
0.766543
0.766548
0.766591
0.766682
0.766815
0.766927
0.766957
0.766952
0.766923
0.76685
0.76673
0.766589
0.766499
0.766488
0.766498
0.766543
0.766633
0.766755
0.766864
0.766916
0.766917
0.766887
0.766683
0.765444
0.75787
0.713892
0.517605
0.130407
0.00332337
6.02352e-06
5.87507e-10
1.98389e-14
1.48761e-14
1.81188e-14
1.91601e-14
1.96818e-14
2.1639e-14
2.25052e-14
2.24142e-14
2.31765e-14
2.38361e-14
2.47813e-14
2.24512e-14
2.07551e-14
1.50208e-14
1.05066e-14
1.02171e-14
8.08681e-15
6.52543e-15
6.81953e-15
5.80339e-15
4.92601e-15
2.44464e-15
3.59243e-15
4.0186e-15
3.75667e-15
3.32958e-15
3.5524e-15
1.0496e-15
2.11301e-15
3.51054e-15
2.38966e-15
4.20662e-15
5.87522e-15
1.00654e-14
1.57904e-14
1.856e-14
1.74024e-14
1.90277e-14
1.35844e-14
1.06932e-14
1.05962e-14
1.43207e-14
1.6004e-14
1.75117e-14
1.89935e-14
2.28316e-14
3.13519e-14
3.11656e-14
2.92012e-14
2.7035e-14
2.58712e-14
2.56645e-14
2.27146e-14
2.10843e-14
1.77189e-14
1.56812e-14
1.80847e-14
1.78477e-14
2.15262e-14
2.3487e-14
2.02045e-14
1.23881e-14
9.77841e-15
6.81632e-15
9.17075e-15
1.1704e-14
1.14944e-14
1.07721e-14
1.46434e-14
1.77583e-14
2.05038e-14
1.61866e-14
1.61614e-14
1.02664e-14
1.08321e-14
9.72891e-15
8.8513e-15
5.60939e-15
4.41368e-15
2.67072e-15
6.97789e-15
7.44654e-15
9.64283e-15
8.83013e-15
1.05306e-14
1.04608e-14
9.87482e-15
9.87989e-15
8.08147e-15
6.94457e-15
7.19687e-15
8.81062e-15
8.65551e-15
8.17572e-15
9.20754e-15
9.86469e-15
8.85359e-15
9.84321e-15
9.3832e-15
7.25318e-15
6.48422e-15
6.49977e-15
8.6174e-15
7.09395e-15
8.0688e-15
9.20471e-15
7.92985e-15
7.44368e-15
9.46633e-15
6.39949e-15
7.68977e-15
7.18528e-15
6.59115e-15
7.97387e-15
6.21982e-15
7.38716e-15
5.33635e-15
6.01439e-15
7.16108e-15
5.49e-15
7.50614e-15
8.64083e-15
7.72324e-15
9.89176e-15
1.13176e-14
8.65438e-15
8.2149e-15
8.36423e-15
1.0551e-14
6.8199e-15
5.81831e-15
7.00419e-15
9.07582e-15
1.24523e-14
1.38168e-14
1.4584e-14
1.45277e-14
1.70233e-14
2.20957e-14
2.26987e-14
1.97023e-14
1.8632e-14
1.69009e-14
1.09681e-14
1.03413e-14
9.2897e-15
1.07709e-14
1.36457e-14
1.34516e-14
1.2788e-14
1.49098e-14
1.37184e-14
1.5898e-14
1.63461e-14
1.41964e-14
1.44166e-14
1.54252e-14
1.41274e-14
1.37125e-14
1.54557e-14
1.69424e-14
1.78392e-14
1.15074e-14
8.34898e-15
7.34966e-15
8.24803e-15
7.46025e-15
9.08762e-15
8.79347e-15
8.11031e-15
1.01598e-14
1.14035e-14
1.17652e-14
1.41237e-14
1.77531e-14
1.78099e-14
1.72118e-14
1.76433e-14
1.68145e-14
1.72662e-14
1.50657e-14
1.17343e-14
8.62918e-15
1.0692e-14
1.21812e-14
1.13184e-14
8.29926e-15
6.37203e-15
6.88966e-15
4.16646e-15
6.48032e-15
9.26823e-15
1.40537e-14
1.95327e-14
2.215e-14
2.30068e-14
2.10897e-14
1.94834e-14
1.78126e-14
1.61898e-14
1.16434e-14
1.22069e-14
1.22749e-14
1.09089e-14
6.95862e-15
6.90842e-15
1.26921e-14
1.58292e-14
1.68466e-14
1.947e-14
2.13263e-14
2.12674e-14
1.82236e-14
1.61672e-14
1.64634e-14
2.10343e-14
2.23445e-14
2.02233e-14
1.70657e-14
2.11223e-14
2.3359e-14
2.33041e-14
1.92475e-14
1.61099e-14
1.80918e-14
1.74831e-14
1.53411e-14
1.31974e-14
1.16135e-14
1.17604e-14
1.25672e-14
1.48001e-14
1.4469e-14
1.18483e-14
1.23875e-14
9.3217e-15
1.32739e-14
1.7888e-14
1.85533e-14
1.60242e-14
1.8979e-14
2.03128e-14
1.93662e-14
1.823e-14
2.04479e-14
1.9714e-14
1.93538e-14
1.67898e-14
1.29939e-14
1.31264e-14
1.52017e-14
1.47089e-14
1.4077e-14
1.22855e-14
9.53127e-15
1.11825e-14
1.18759e-14
1.23246e-14
1.64515e-14
1.93811e-14
2.15408e-14
1.97505e-14
1.80785e-14
1.58014e-14
1.3504e-14
1.11795e-14
8.91271e-15
1.21255e-14
1.36094e-14
1.26574e-14
1.10997e-14
1.20822e-14
1.3423e-14
1.29505e-14
1.44329e-14
1.76623e-14
1.68853e-14
1.49666e-14
1.70695e-14
1.79519e-14
1.55952e-14
1.58542e-14
1.34022e-14
1.28447e-14
1.39412e-14
1.39722e-14
1.22126e-14
1.33375e-14
1.42282e-14
1.48386e-14
1.36086e-14
1.26345e-14
1.33629e-14
1.62974e-14
1.85776e-14
1.68092e-14
1.78813e-14
1.88445e-14
1.60014e-14
1.32029e-14
1.19e-14
1.32071e-14
1.19468e-14
1.36617e-14
1.18717e-14
1.42711e-14
1.40444e-14
1.22477e-14
1.24227e-14
1.20509e-14
1.16531e-14
1.45039e-14
1.43581e-14
1.54285e-14
1.71879e-14
1.74025e-14
1.66055e-14
1.7876e-14
1.65444e-14
1.65493e-14
1.71449e-14
1.69009e-14
1.47677e-14
1.132
1.132
1.132
1.13199
1.13152
1.12031
1.05292
1.02064
1.02006
1.02019
1.02049
1.02071
1.02067
1.02048
1.02034
1.0203
1.02023
1.02011
1.01997
1.01981
1.0197
1.01961
1.01949
1.01936
1.01928
1.01923
1.01918
1.01912
1.01906
1.01901
1.01899
1.01898
1.01895
1.01892
1.01891
1.01889
1.01887
1.01885
1.01886
1.01888
1.01891
1.01894
1.01896
1.01897
1.01899
1.01901
1.01902
1.01904
1.01906
1.01908
1.01911
1.01914
1.01915
1.01915
1.01915
1.01914
1.01913
1.01911
1.0191
1.01907
1.01906
1.01904
1.01899
1.0189
1.01874
1.01839
1.01764
1.01617
1.01335
1.0083
0.99977
0.986263
0.966355
0.939288
0.905582
0.867602
0.829801
0.797707
0.775714
0.767101
0.765498
0.764772
0.764608
0.76465
0.764849
0.765255
0.765798
0.766314
0.766761
0.767181
0.767416
0.767436
0.767409
0.767316
0.76715
0.766931
0.76669
0.766504
0.766453
0.766462
0.766512
0.766614
0.766763
0.766872
0.766896
0.766894
0.766864
0.766777
0.76665
0.766564
0.766543
0.766548
0.766591
0.766682
0.766815
0.766927
0.766957
0.766952
0.766923
0.76685
0.76673
0.766589
0.766499
0.766488
0.766498
0.766543
0.766633
0.766755
0.766864
0.766916
0.766917
0.766887
0.766683
0.765444
0.75787
0.713892
0.517605
0.130407
0.00332337
6.02352e-06
5.87509e-10
1.92854e-14
1.49583e-14
1.7257e-14
1.91975e-14
2.15223e-14
2.13192e-14
2.274e-14
2.45269e-14
2.63818e-14
2.49975e-14
2.48774e-14
2.18901e-14
1.79482e-14
1.64114e-14
1.25392e-14
8.24391e-15
5.29658e-15
8.46769e-15
8.52276e-15
5.34529e-15
5.08166e-15
4.73768e-15
3.58005e-15
1.87861e-15
4.7381e-15
5.3183e-15
6.13316e-15
5.07139e-15
6.61803e-15
5.23497e-15
4.78855e-15
7.55307e-15
8.79609e-15
1.3742e-14
1.65493e-14
1.54757e-14
1.49815e-14
1.36968e-14
1.29955e-14
1.44505e-14
1.40659e-14
1.72828e-14
1.62137e-14
1.7669e-14
1.78235e-14
2.43362e-14
2.8026e-14
2.73992e-14
2.89506e-14
2.96341e-14
2.68603e-14
2.6219e-14
2.64632e-14
2.12829e-14
1.96368e-14
1.91695e-14
1.91968e-14
2.03995e-14
2.29515e-14
2.9806e-14
2.88304e-14
2.21122e-14
1.60463e-14
1.18208e-14
1.14901e-14
1.4275e-14
1.49818e-14
1.33936e-14
1.13491e-14
1.1214e-14
1.23332e-14
1.10153e-14
1.05434e-14
9.58153e-15
9.71626e-15
9.89876e-15
7.47572e-15
4.90439e-15
7.00423e-15
4.07523e-15
6.94699e-15
7.08608e-15
8.53231e-15
9.77134e-15
9.05691e-15
8.66016e-15
1.00339e-14
1.03005e-14
1.00542e-14
9.09481e-15
8.16685e-15
8.38707e-15
7.25374e-15
7.32621e-15
7.39607e-15
9.26287e-15
1.07776e-14
1.05575e-14
1.067e-14
9.08298e-15
8.53661e-15
8.72562e-15
8.36116e-15
7.12463e-15
6.51595e-15
7.95563e-15
6.68394e-15
8.48335e-15
8.67121e-15
7.86883e-15
1.25486e-14
1.26934e-14
9.76919e-15
9.00065e-15
9.54811e-15
8.58502e-15
7.52142e-15
7.25912e-15
8.52551e-15
9.98554e-15
1.20941e-14
1.16636e-14
9.67501e-15
1.30559e-14
1.15768e-14
7.38793e-15
7.85949e-15
1.09818e-14
1.26837e-14
9.06716e-15
8.93528e-15
1.03524e-14
1.37165e-14
1.52067e-14
1.6334e-14
1.76767e-14
1.60225e-14
2.00414e-14
2.5682e-14
2.41645e-14
2.19403e-14
2.09643e-14
1.77982e-14
1.30891e-14
1.08184e-14
8.50801e-15
1.13774e-14
1.2665e-14
1.0978e-14
9.47946e-15
1.11302e-14
1.21802e-14
1.4035e-14
1.48302e-14
1.25268e-14
1.01836e-14
1.38751e-14
1.43756e-14
1.28489e-14
1.61758e-14
1.49085e-14
1.57699e-14
1.0969e-14
7.5187e-15
8.46994e-15
9.75897e-15
6.98486e-15
6.13806e-15
8.25584e-15
9.86856e-15
1.12637e-14
1.15123e-14
1.05505e-14
9.98926e-15
1.32339e-14
1.47722e-14
1.4118e-14
1.30395e-14
1.49411e-14
1.41145e-14
1.35058e-14
1.22682e-14
1.01642e-14
1.25355e-14
1.29346e-14
1.22339e-14
9.09585e-15
5.9546e-15
6.67458e-15
3.10328e-15
6.56948e-15
8.07587e-15
1.07423e-14
1.30636e-14
1.63748e-14
1.94079e-14
1.90487e-14
1.77542e-14
1.85625e-14
1.64418e-14
1.62177e-14
1.62013e-14
1.57812e-14
8.76594e-15
5.54112e-15
6.90518e-15
1.31169e-14
1.67086e-14
1.93355e-14
2.10965e-14
2.32539e-14
1.94869e-14
1.83638e-14
1.80617e-14
1.49909e-14
1.75428e-14
2.14257e-14
2.25945e-14
2.03052e-14
2.20131e-14
2.20265e-14
1.8681e-14
1.57731e-14
1.39273e-14
1.26822e-14
1.47081e-14
1.65912e-14
1.34718e-14
1.43006e-14
1.45274e-14
1.34479e-14
1.3302e-14
1.20096e-14
1.21814e-14
1.0746e-14
1.00377e-14
1.21549e-14
1.22049e-14
1.50374e-14
1.50192e-14
1.54887e-14
1.7324e-14
1.83054e-14
1.80197e-14
1.76524e-14
1.77603e-14
1.74377e-14
1.53012e-14
1.22709e-14
1.45515e-14
1.37447e-14
1.19094e-14
1.10802e-14
9.84345e-15
9.35864e-15
9.45737e-15
1.10573e-14
1.3167e-14
1.60307e-14
1.91509e-14
1.7745e-14
1.65503e-14
1.47952e-14
1.36406e-14
1.40605e-14
1.54641e-14
1.50585e-14
1.18178e-14
1.11172e-14
1.20661e-14
1.05018e-14
1.26096e-14
1.52943e-14
1.4598e-14
1.59372e-14
1.71588e-14
1.56649e-14
1.33447e-14
1.42125e-14
1.5169e-14
1.39471e-14
1.41347e-14
1.00919e-14
8.68179e-15
9.3864e-15
1.05438e-14
1.19924e-14
1.30291e-14
1.32649e-14
1.54856e-14
1.64775e-14
1.60135e-14
1.73379e-14
2.00036e-14
1.98021e-14
1.77589e-14
1.79048e-14
1.50753e-14
1.27029e-14
1.142e-14
1.1079e-14
1.17313e-14
1.01453e-14
1.12451e-14
1.32106e-14
1.39922e-14
1.37463e-14
1.30096e-14
1.34363e-14
1.19012e-14
1.27024e-14
1.30044e-14
1.4211e-14
1.53888e-14
1.54108e-14
1.56693e-14
1.6246e-14
1.48602e-14
1.53682e-14
1.55808e-14
1.4145e-14
1.43166e-14
1.30851e-14
1.132
1.132
1.132
1.13199
1.13152
1.12031
1.05292
1.02064
1.02006
1.02019
1.02049
1.02071
1.02067
1.02048
1.02034
1.0203
1.02023
1.02011
1.01997
1.01981
1.0197
1.01961
1.01949
1.01936
1.01928
1.01923
1.01918
1.01912
1.01906
1.01901
1.01899
1.01898
1.01895
1.01892
1.01891
1.01889
1.01887
1.01885
1.01886
1.01888
1.01891
1.01894
1.01896
1.01897
1.01899
1.01901
1.01902
1.01904
1.01906
1.01908
1.01911
1.01914
1.01915
1.01915
1.01915
1.01914
1.01913
1.01911
1.0191
1.01907
1.01906
1.01904
1.01899
1.0189
1.01874
1.01839
1.01764
1.01617
1.01335
1.0083
0.99977
0.986263
0.966355
0.939288
0.905582
0.867602
0.829801
0.797707
0.775714
0.767101
0.765498
0.764772
0.764608
0.76465
0.764849
0.765255
0.765798
0.766314
0.766761
0.767181
0.767416
0.767436
0.767409
0.767316
0.76715
0.766931
0.76669
0.766504
0.766453
0.766462
0.766512
0.766614
0.766763
0.766872
0.766896
0.766894
0.766864
0.766777
0.76665
0.766564
0.766543
0.766548
0.766591
0.766682
0.766815
0.766927
0.766957
0.766952
0.766923
0.76685
0.76673
0.766589
0.766499
0.766488
0.766498
0.766543
0.766633
0.766755
0.766864
0.766916
0.766917
0.766887
0.766683
0.765444
0.75787
0.713892
0.517605
0.130407
0.00332337
6.02352e-06
5.87504e-10
2.07491e-14
1.33975e-14
1.73379e-14
2.51672e-14
2.93954e-14
3.00508e-14
2.60786e-14
2.64672e-14
3.03816e-14
2.57648e-14
2.24517e-14
1.82735e-14
1.90016e-14
1.7966e-14
1.95337e-14
6.04485e-15
1.18284e-14
1.48803e-14
1.23702e-14
1.05886e-14
1.03469e-14
1.17573e-14
5.74225e-15
4.11793e-15
7.84346e-15
1.6828e-15
6.00336e-15
4.1621e-15
5.13532e-15
5.62715e-15
5.41851e-15
8.24192e-15
8.31186e-15
1.1129e-14
1.19069e-14
1.26229e-14
1.31731e-14
9.60034e-15
1.13284e-14
1.20992e-14
1.35083e-14
1.54234e-14
1.37474e-14
1.35537e-14
1.43721e-14
2.34603e-14
2.44949e-14
2.14025e-14
2.36818e-14
2.62678e-14
2.80587e-14
2.71769e-14
2.63286e-14
2.17334e-14
1.76307e-14
2.04988e-14
2.42391e-14
2.12719e-14
1.86072e-14
2.16356e-14
2.66677e-14
2.93976e-14
2.12847e-14
1.54325e-14
1.4531e-14
1.4241e-14
1.74827e-14
1.61649e-14
1.18783e-14
1.0383e-14
1.0475e-14
1.0779e-14
1.11752e-14
1.06575e-14
1.05741e-14
9.03471e-15
6.89365e-15
8.88318e-15
1.00523e-14
9.33956e-15
7.98453e-15
9.24301e-15
9.63574e-15
8.25418e-15
6.0675e-15
7.92395e-15
1.24272e-14
1.09285e-14
1.07026e-14
1.12529e-14
1.17674e-14
9.25384e-15
7.08273e-15
9.60312e-15
8.04637e-15
8.58522e-15
1.02544e-14
1.00918e-14
1.06523e-14
1.06772e-14
9.82213e-15
9.66176e-15
1.07364e-14
9.48128e-15
1.01489e-14
7.38158e-15
6.20365e-15
7.6373e-15
8.61575e-15
1.06222e-14
1.22214e-14
1.16285e-14
9.52353e-15
9.57468e-15
1.02826e-14
7.10876e-15
9.0389e-15
6.60357e-15
9.39563e-15
1.78727e-14
1.86749e-14
1.31048e-14
1.08143e-14
1.27542e-14
1.56692e-14
1.06353e-14
1.01006e-14
1.20831e-14
1.19836e-14
9.51708e-15
1.02097e-14
1.18956e-14
1.45552e-14
1.34863e-14
1.48539e-14
1.64538e-14
1.54724e-14
2.12113e-14
2.29343e-14
2.33684e-14
2.3426e-14
2.18018e-14
1.70937e-14
1.33503e-14
7.87864e-15
8.83607e-15
1.23912e-14
1.09039e-14
1.36689e-14
8.99334e-15
9.82472e-15
1.11029e-14
1.06644e-14
1.10616e-14
1.15124e-14
6.7411e-15
9.95474e-15
1.06964e-14
1.18562e-14
1.39082e-14
1.11888e-14
1.64547e-14
1.03145e-14
5.45154e-15
8.94444e-15
5.94157e-15
3.69864e-15
4.64168e-15
7.46714e-15
1.21577e-14
1.05412e-14
1.34774e-14
1.08347e-14
1.00924e-14
1.17065e-14
1.31475e-14
1.72207e-14
1.29643e-14
1.30597e-14
1.14487e-14
1.32863e-14
1.04899e-14
9.18077e-15
9.19742e-15
1.34952e-14
1.07471e-14
6.21558e-15
5.51183e-15
6.65017e-15
3.91019e-15
7.44947e-15
8.47327e-15
9.61418e-15
1.19455e-14
1.20966e-14
1.46e-14
1.71314e-14
1.91586e-14
1.7601e-14
1.86981e-14
2.1541e-14
1.68383e-14
1.37359e-14
6.67254e-15
4.23054e-15
8.89276e-15
1.09618e-14
1.39151e-14
2.01464e-14
2.53448e-14
2.24817e-14
1.86731e-14
1.63939e-14
1.67993e-14
1.74597e-14
1.95e-14
1.9756e-14
1.9287e-14
2.22366e-14
2.21911e-14
2.17184e-14
1.83592e-14
1.50071e-14
1.49262e-14
1.28416e-14
1.52679e-14
1.67913e-14
1.41582e-14
1.5323e-14
1.23222e-14
1.1743e-14
1.11462e-14
1.15118e-14
1.13564e-14