/*--------------------------------*- C++ -*----------------------------------*\
| =========                 |                                                 |
| \\      /  F ield         | OpenFOAM: The Open Source CFD Toolbox           |
|  \\    /   O peration     | Version:  2406                                  |
|   \\  /    A nd           | Website:  www.openfoam.com                      |
|    \\/     M anipulation  |                                                 |
\*---------------------------------------------------------------------------*/
FoamFile
{
    version     2.0;
    format      ascii;
    arch        "LSB;label=32;scalar=64";
    class       volVectorField;
    location    "0.04";
    object      U;
}
// * * * * * * * * * * * * * * * * * * * * * * * * * * * * * * * * * * * * * //

dimensions      [0 1 -1 0 0 0 0];

internalField   nonuniform List<vector> 
13818
(
(-2.17792e-11 -8.16653e-14 6.57382e-12)
(-2.31481e-11 1.19117e-13 4.19153e-12)
(-2.62983e-11 -1.66567e-13 1.19854e-11)
(-3.09827e-11 1.47697e-12 1.04529e-11)
(-3.20818e-11 3.18805e-13 6.56305e-12)
(-2.83171e-11 1.2578e-12 1.02367e-11)
(-2.7087e-11 6.47818e-13 1.82087e-11)
(-2.70077e-11 8.92275e-13 1.66709e-11)
(-2.57676e-11 1.45942e-12 1.65113e-11)
(-2.55195e-11 1.40188e-12 1.30838e-11)
(-2.08891e-11 9.23942e-13 1.1498e-11)
(-1.71646e-11 -1.57901e-12 8.05273e-12)
(-1.80368e-11 -3.88818e-12 9.90092e-12)
(-1.51027e-11 -4.92492e-12 1.15531e-11)
(-9.85679e-12 -6.5608e-12 1.1613e-11)
(-7.63776e-12 -7.79389e-12 1.25475e-11)
(-1.05388e-11 -9.3096e-12 1.22478e-11)
(-1.0414e-11 -8.83392e-12 -1.11108e-12)
(-7.34255e-12 -5.77553e-12 -9.51255e-12)
(-7.38804e-12 -7.82695e-12 -1.12383e-11)
(-4.90734e-12 -3.7948e-12 -1.10562e-11)
(-1.63385e-12 -1.20382e-12 -9.58629e-12)
(-9.55979e-13 -2.46927e-12 -8.15272e-12)
(-1.41302e-13 -3.50052e-12 -8.04267e-12)
(-1.49032e-12 -4.05343e-12 -7.47953e-12)
(-2.74919e-12 -3.11012e-12 -1.13014e-11)
(-1.40609e-13 -4.08727e-12 -1.31527e-11)
(-8.76744e-13 -2.4221e-12 -1.5065e-11)
(-1.41788e-12 -3.7043e-12 -1.54228e-11)
(-5.13537e-13 -4.88207e-12 -1.693e-11)
(-1.18023e-12 -4.0251e-12 -1.46753e-11)
(-6.30124e-13 -3.94784e-12 -1.5753e-11)
(-1.96562e-12 -3.49765e-12 -1.4728e-11)
(-2.26106e-12 -2.24293e-12 -1.30576e-11)
(-9.05522e-13 -1.84931e-12 -8.7912e-12)
(-1.00416e-12 -1.43445e-12 -5.11173e-12)
(-1.75719e-12 -9.40406e-13 -4.85337e-12)
(-2.35887e-12 5.07475e-13 -3.63207e-12)
(1.82655e-12 2.36512e-12 9.33232e-13)
(4.88397e-12 8.16312e-13 6.09447e-12)
(3.47185e-12 -1.13227e-12 6.31554e-12)
(1.55836e-12 -3.32519e-12 8.11146e-12)
(3.95532e-12 -4.60347e-12 2.42947e-12)
(5.80388e-12 -2.38478e-12 -4.98833e-12)
(9.27623e-13 -3.19732e-12 -8.28668e-12)
(1.43985e-12 -4.76402e-13 -1.78836e-11)
(1.46575e-12 -1.55837e-12 -2.88669e-11)
(6.99795e-13 -5.01712e-13 -2.22897e-11)
(-1.25654e-14 -2.43925e-12 -1.25147e-11)
(5.34051e-13 8.53838e-13 -9.91317e-12)
(3.00535e-12 -2.29994e-12 -7.04499e-12)
(1.45652e-12 -2.48504e-12 -2.81106e-13)
(1.05096e-12 -1.12362e-12 2.23476e-12)
(2.73755e-12 -2.86128e-13 -1.66961e-12)
(4.06175e-12 -3.61355e-12 -4.66052e-13)
(5.85808e-12 -3.04847e-12 1.50314e-12)
(6.62223e-12 -4.77604e-12 4.32806e-12)
(4.06805e-12 -4.08097e-12 7.19034e-12)
(3.66094e-12 -3.32638e-12 3.07562e-12)
(3.27972e-12 -5.19309e-12 6.73345e-12)
(1.83157e-12 -7.54084e-12 4.0158e-12)
(-4.65094e-13 -3.64464e-12 5.5043e-13)
(-1.2089e-12 -2.36642e-12 -5.91632e-12)
(2.28503e-12 -2.83717e-12 -1.0704e-11)
(9.89085e-13 -5.15055e-12 -1.37253e-11)
(5.44478e-13 -1.76214e-12 -1.53917e-11)
(1.19688e-13 -4.16773e-12 -1.86912e-11)
(-3.65146e-13 -2.81313e-12 -2.40936e-11)
(-1.37596e-12 -1.76916e-12 -2.79318e-11)
(-3.09751e-12 -1.23367e-12 -2.42651e-11)
(-1.07739e-12 -2.58358e-12 -1.89226e-11)
(9.60765e-13 -1.75909e-12 -1.58373e-11)
(1.86767e-13 -4.67489e-12 -1.29571e-11)
(-1.94863e-12 -4.88203e-12 -1.32525e-11)
(-2.43309e-12 -3.33373e-12 -1.06122e-11)
(-1.3056e-12 -5.15192e-12 -1.15081e-11)
(6.15559e-13 -5.06745e-12 -1.49191e-11)
(-8.39849e-13 -4.61409e-12 -1.92383e-11)
(-4.09885e-13 -5.26011e-12 -1.69151e-11)
(-2.37747e-12 -4.41225e-12 -1.39112e-11)
(-4.47216e-12 -4.79928e-12 -1.09899e-11)
(-1.91074e-12 -4.62926e-12 -1.33422e-11)
(-4.61609e-13 -7.36339e-12 -1.24765e-11)
(5.09843e-14 -8.94103e-12 -9.18256e-12)
(-1.80474e-12 -7.31215e-12 -5.55676e-12)
(-3.40894e-12 -8.34731e-12 -7.6564e-12)
(-1.88799e-12 -7.82247e-12 -8.6856e-12)
(-5.40536e-13 -5.41835e-12 -8.26064e-12)
(-1.95364e-12 -6.80477e-12 -7.64034e-12)
(-8.50374e-13 -5.32943e-12 -8.5091e-12)
(1.73479e-12 -5.9365e-12 -8.11433e-12)
(2.96441e-12 -5.79693e-12 -8.46021e-12)
(3.57267e-13 -6.54062e-12 -1.03729e-11)
(-1.62569e-12 -5.35658e-12 -1.41389e-11)
(8.50389e-13 -6.73574e-12 -1.66812e-11)
(4.04289e-13 -5.82749e-12 -1.80007e-11)
(-1.95308e-12 -7.4027e-12 -1.63818e-11)
(-2.25744e-12 -5.28778e-12 -1.65487e-11)
(-2.78936e-12 -1.45818e-12 -1.72253e-11)
(-1.7437e-12 -1.77691e-12 -1.72093e-11)
(-4.81279e-13 -3.11791e-13 -1.495e-11)
(-5.40655e-13 -1.71316e-12 -1.39465e-11)
(-8.46287e-13 -1.26393e-12 -1.02568e-11)
(-6.67326e-13 -8.12872e-13 -1.02892e-11)
(3.63907e-12 -2.46269e-12 -7.90066e-12)
(4.68829e-12 -3.96013e-12 -3.69074e-12)
(-2.06951e-11 2.8969e-12 4.90436e-12)
(-2.43172e-11 2.58513e-12 6.1643e-12)
(-2.86331e-11 3.39294e-12 1.20216e-11)
(-3.06453e-11 4.17922e-12 9.56093e-12)
(-3.06332e-11 3.01595e-12 8.27151e-12)
(-2.88689e-11 8.33848e-13 1.12734e-11)
(-2.69804e-11 9.23761e-13 1.65162e-11)
(-2.64047e-11 -6.87009e-13 1.45544e-11)
(-2.5713e-11 -8.34315e-13 1.38333e-11)
(-2.50681e-11 4.5067e-13 1.51129e-11)
(-2.13057e-11 -1.60829e-12 1.32068e-11)
(-1.70829e-11 -1.94927e-12 9.85982e-12)
(-1.51729e-11 -2.99206e-12 1.00594e-11)
(-1.37151e-11 -7.83227e-12 1.10077e-11)
(-1.03467e-11 -8.00384e-12 1.13007e-11)
(-8.52319e-12 -7.59927e-12 1.04734e-11)
(-1.06015e-11 -7.99547e-12 6.55695e-12)
(-1.03563e-11 -1.09192e-11 -5.87331e-12)
(-7.93832e-12 -7.76988e-12 -1.28341e-11)
(-7.76878e-12 -6.13274e-12 -1.11253e-11)
(-6.65357e-12 -5.61039e-12 -1.22515e-11)
(-2.87979e-12 -2.6557e-12 -1.00602e-11)
(6.121e-14 -3.5598e-12 -7.85008e-12)
(3.99552e-13 -5.20628e-12 -7.9303e-12)
(-1.49931e-12 -3.25967e-12 -9.00949e-12)
(-1.43516e-12 -4.06907e-12 -1.20227e-11)
(-3.29489e-13 -5.57429e-12 -1.20956e-11)
(-7.79919e-13 -2.50095e-12 -1.51111e-11)
(-1.41731e-13 -3.30075e-12 -1.43636e-11)
(-6.06543e-13 -2.99832e-12 -1.54241e-11)
(-1.8134e-12 -4.40396e-12 -1.36707e-11)
(-2.131e-12 -3.71046e-12 -1.7334e-11)
(-2.86886e-12 -1.9764e-12 -1.61294e-11)
(-1.99484e-12 -1.37576e-12 -1.62806e-11)
(-1.2979e-12 -1.44196e-12 -9.70548e-12)
(-1.81978e-12 -2.19484e-12 -5.25355e-13)
(-3.44532e-12 -1.76673e-12 9.33096e-13)
(-3.74394e-12 6.79489e-13 -5.75714e-14)
(3.8463e-13 1.7504e-12 1.47382e-12)
(5.67663e-12 2.58287e-12 4.62237e-12)
(6.95005e-12 1.56573e-12 8.3965e-12)
(5.16724e-12 -1.69151e-12 1.19085e-11)
(3.48414e-12 -3.53398e-12 1.01859e-11)
(4.24402e-12 -8.03251e-13 2.5024e-12)
(-7.57512e-13 -1.02705e-12 -3.84793e-12)
(5.36642e-13 -1.5261e-12 -1.64601e-11)
(1.6942e-12 -2.96405e-12 -2.73984e-11)
(1.73083e-12 -3.53328e-12 -2.34314e-11)
(-8.31165e-13 -2.28388e-12 -1.30091e-11)
(1.20433e-12 5.45348e-13 -9.29416e-12)
(3.86182e-12 -7.39835e-13 -6.18003e-12)
(6.13379e-13 -2.30762e-13 -6.80867e-13)
(1.87237e-13 -1.2979e-12 4.59969e-12)
(2.45312e-12 -8.76766e-13 2.77917e-12)
(5.11372e-12 -9.55843e-13 6.95866e-13)
(5.95983e-12 -1.41452e-12 1.70813e-12)
(6.1589e-12 -2.26652e-12 4.44344e-12)
(3.19473e-12 -3.15473e-12 5.87372e-12)
(4.14301e-12 -3.6723e-12 5.51398e-12)
(4.72676e-12 -5.09166e-12 7.27156e-12)
(7.47984e-14 -5.43058e-12 7.04359e-12)
(-2.7956e-12 -1.85388e-12 2.12835e-12)
(-4.36084e-13 -3.20517e-12 -5.65741e-12)
(3.16064e-12 -3.42133e-12 -1.13687e-11)
(1.20315e-13 -4.58929e-12 -1.30134e-11)
(-5.05271e-13 -1.79633e-12 -1.72086e-11)
(4.93522e-13 -3.52543e-12 -2.04512e-11)
(-1.06668e-12 -2.58346e-12 -2.78745e-11)
(-9.05486e-13 -3.44957e-12 -2.97881e-11)
(-1.22562e-12 -1.86034e-12 -2.64637e-11)
(-1.06849e-12 -3.32339e-12 -1.99212e-11)
(1.22767e-12 -2.16193e-12 -1.67517e-11)
(1.92328e-12 -2.45517e-12 -8.454e-12)
(-3.17863e-12 -4.58885e-12 -5.47759e-12)
(-2.35251e-12 -4.27843e-12 -3.18708e-12)
(-1.3267e-13 -7.08208e-12 -5.5262e-12)
(-1.49244e-12 -4.78679e-12 -1.33531e-11)
(-1.53941e-12 -4.30288e-12 -1.66931e-11)
(-1.33232e-12 -8.57819e-13 -1.66297e-11)
(-1.70196e-12 2.89079e-13 -1.47173e-11)
(-1.91342e-12 -3.86698e-12 -1.14991e-11)
(-5.97955e-13 -5.56783e-12 -1.49501e-11)
(1.0499e-12 -8.02682e-12 -1.22705e-11)
(-1.39219e-12 -8.0103e-12 -9.91106e-12)
(-2.00963e-12 -6.15428e-12 -9.96271e-12)
(-2.80918e-12 -7.42867e-12 -9.04193e-12)
(-3.83482e-12 -7.16325e-12 -1.04558e-11)
(-9.20912e-13 -6.04577e-12 -9.76413e-12)
(-6.51561e-13 -7.7047e-12 -9.27704e-12)
(8.93707e-14 -7.83715e-12 -1.03942e-11)
(2.15326e-12 -6.73084e-12 -1.10106e-11)
(2.27736e-12 -6.49794e-12 -1.15545e-11)
(-4.02413e-13 -6.62281e-12 -1.28338e-11)
(-1.7769e-12 -7.68788e-12 -1.67741e-11)
(1.63992e-13 -9.1207e-12 -1.98296e-11)
(6.92123e-13 -6.85433e-12 -2.05806e-11)
(-7.42914e-13 -6.19516e-12 -1.81622e-11)
(-4.31819e-12 -5.80149e-12 -1.88894e-11)
(-3.61403e-12 -3.40438e-12 -1.88454e-11)
(-2.09036e-12 -4.46073e-12 -2.08585e-11)
(-1.71794e-13 -3.24973e-12 -1.86445e-11)
(-1.72823e-13 -5.03052e-12 -1.53014e-11)
(-1.64247e-12 -3.42667e-12 -9.94502e-12)
(-2.71568e-13 -2.5663e-12 -1.11746e-11)
(3.91265e-12 -3.66002e-12 -8.24204e-12)
(5.16385e-12 -4.39735e-12 -3.21435e-12)
(-2.37249e-11 4.91574e-12 2.93711e-12)
(-2.39797e-11 5.01956e-12 5.68611e-12)
(-2.91066e-11 5.60748e-12 9.90407e-12)
(-3.18936e-11 3.47472e-12 8.9719e-12)
(-3.00977e-11 3.23548e-12 8.09955e-12)
(-2.76165e-11 1.48018e-12 1.11638e-11)
(-2.58352e-11 2.14206e-12 1.64987e-11)
(-2.557e-11 2.45942e-13 1.36831e-11)
(-2.6318e-11 1.19813e-13 1.01836e-11)
(-2.48537e-11 -1.02573e-12 1.3627e-11)
(-1.94632e-11 -3.17532e-12 1.38867e-11)
(-1.78163e-11 -2.19288e-12 9.52224e-12)
(-1.36915e-11 -2.98701e-12 9.79632e-12)
(-1.18594e-11 -5.65208e-12 1.03814e-11)
(-1.10155e-11 -7.42684e-12 1.17308e-11)
(-8.52586e-12 -7.06851e-12 9.56612e-12)
(-8.56502e-12 -5.31129e-12 4.84942e-12)
(-9.956e-12 -8.9901e-12 -4.30172e-12)
(-1.09344e-11 -7.55533e-12 -1.09477e-11)
(-8.95432e-12 -6.54213e-12 -9.55859e-12)
(-6.24292e-12 -7.3625e-12 -8.9736e-12)
(-2.69766e-12 -5.712e-12 -6.8141e-12)
(1.49995e-12 -4.2785e-12 -6.26882e-12)
(-5.1708e-13 -4.45691e-12 -6.6283e-12)
(-1.94436e-12 -2.40692e-12 -8.25695e-12)
(-5.8378e-13 -2.76596e-12 -9.89108e-12)
(-1.01835e-12 -1.21878e-12 -9.52525e-12)
(-2.11573e-12 -1.63627e-12 -1.22957e-11)
(-5.0082e-13 -1.9599e-13 -1.29927e-11)
(1.13764e-13 -3.02204e-13 -1.72612e-11)
(-9.8795e-13 -5.90186e-14 -1.52597e-11)
(-3.4153e-12 -9.13723e-13 -1.7394e-11)
(-3.69418e-12 -7.86836e-15 -1.60763e-11)
(-2.23824e-12 -8.12457e-13 -1.6492e-11)
(-3.52235e-13 7.21241e-13 -1.02028e-11)
(-6.296e-13 -1.15736e-12 1.21142e-12)
(-4.04168e-12 -1.35149e-13 6.25188e-12)
(-4.48017e-12 -1.60851e-12 2.01847e-12)
(-7.36082e-14 -2.18126e-12 9.89551e-13)
(4.59037e-12 -1.45533e-12 4.59976e-12)
(7.24312e-12 9.6024e-13 1.10622e-11)
(6.44786e-12 4.49537e-13 1.5923e-11)
(2.86083e-12 4.4202e-13 1.74542e-11)
(3.76347e-12 1.18587e-12 1.0556e-11)
(6.7345e-13 3.317e-12 -6.05515e-13)
(1.08552e-12 7.57554e-13 -1.26998e-11)
(2.92389e-12 1.43907e-12 -2.09332e-11)
(1.3586e-12 1.15194e-13 -1.98073e-11)
(-1.48694e-12 1.21146e-12 -1.38491e-11)
(3.93003e-13 -8.80367e-13 -9.22508e-12)
(3.42593e-12 2.11254e-12 -5.98462e-12)
(1.1837e-12 2.09977e-12 -7.67461e-13)
(7.04187e-13 1.47733e-12 6.06293e-12)
(1.50923e-12 -1.01861e-12 2.45091e-12)
(4.1797e-12 -6.92423e-13 6.57297e-13)
(6.28861e-12 1.09392e-13 2.31913e-12)
(7.67377e-12 1.74496e-12 4.40491e-12)
(3.96296e-12 5.56435e-13 5.91957e-12)
(4.44319e-12 -1.66992e-12 7.32609e-12)
(3.67164e-12 -2.93741e-12 8.53071e-12)
(-7.05155e-13 -2.13248e-12 9.69737e-12)
(-1.90447e-12 -4.06278e-13 3.04636e-12)
(2.53575e-13 -2.77211e-12 -5.40937e-12)
(3.1371e-12 -1.41093e-12 -1.05258e-11)
(-7.81009e-14 -1.53966e-13 -1.24201e-11)
(-7.66483e-13 -2.17412e-12 -1.66195e-11)
(7.95924e-14 -4.3546e-13 -1.88402e-11)
(-4.99064e-13 -9.04203e-13 -2.31852e-11)
(-4.30725e-13 -5.35102e-13 -2.17657e-11)
(-1.74661e-12 6.81656e-13 -2.01416e-11)
(-5.83037e-13 3.42274e-13 -1.54853e-11)
(-9.97092e-14 2.09144e-13 -1.18105e-11)
(1.54299e-12 2.82589e-12 -3.47896e-12)
(-2.2291e-12 -1.47219e-14 5.39897e-12)
(-3.93367e-13 -3.52614e-12 1.01167e-11)
(5.70061e-13 -1.45983e-12 4.4868e-12)
(-1.19342e-12 -4.66726e-13 -8.21824e-12)
(-4.07128e-12 -2.42457e-12 -1.36842e-11)
(-3.30499e-12 -4.8591e-13 -1.47683e-11)
(-3.69706e-15 -1.22907e-12 -1.41628e-11)
(-1.1013e-13 -1.36713e-12 -1.2991e-11)
(5.22317e-13 -3.55328e-12 -1.29939e-11)
(9.93457e-13 -3.08697e-12 -1.05408e-11)
(-1.84191e-12 -3.21375e-12 -9.01921e-12)
(-2.77141e-12 -2.74653e-12 -8.44939e-12)
(-2.84075e-12 -3.69292e-12 -8.30749e-12)
(-3.71506e-12 -4.35758e-12 -9.53429e-12)
(-7.26965e-13 -5.44683e-12 -9.50178e-12)
(1.01125e-13 -5.78233e-12 -1.11543e-11)
(-1.38141e-12 -6.79016e-12 -1.35346e-11)
(7.34687e-13 -4.50759e-12 -1.30154e-11)
(2.23839e-12 -4.68288e-12 -1.3644e-11)
(5.60351e-13 -5.59359e-12 -1.39089e-11)
(-7.87859e-14 -5.534e-12 -1.8631e-11)
(5.39409e-13 -6.82169e-12 -1.92218e-11)
(-7.69445e-13 -5.24427e-12 -2.00522e-11)
(-1.60489e-12 -4.97796e-12 -1.77532e-11)
(-3.91657e-12 -3.50291e-12 -1.94901e-11)
(-3.49742e-12 -3.25014e-12 -1.89437e-11)
(-1.44318e-12 -2.80075e-12 -1.98563e-11)
(6.8444e-13 -2.70231e-12 -1.81274e-11)
(-9.03101e-14 -1.33148e-12 -1.35587e-11)
(-2.63505e-12 -1.75507e-12 -7.12297e-12)
(-5.90143e-13 -2.39529e-12 -9.37723e-12)
(4.79607e-12 -2.59906e-12 -7.45305e-12)
(4.14668e-12 -1.68666e-12 -3.84964e-12)
(-2.59631e-11 -1.42139e-12 -1.15488e-12)
(-2.50195e-11 -3.61313e-13 3.3067e-12)
(-2.85805e-11 2.15032e-12 6.40452e-12)
(-3.07378e-11 -1.74763e-12 7.04392e-12)
(-3.00995e-11 -3.97383e-12 8.1443e-12)
(-2.86219e-11 -3.79655e-12 1.05442e-11)
(-2.61153e-11 -2.39266e-12 1.3353e-11)
(-2.45166e-11 -3.12932e-12 1.19241e-11)
(-2.49112e-11 -4.03534e-12 1.00121e-11)
(-2.24447e-11 -5.38346e-12 1.34704e-11)
(-2.01024e-11 -6.51044e-12 1.55545e-11)
(-1.79403e-11 -6.03013e-12 1.08723e-11)
(-1.39907e-11 -7.16895e-12 9.51387e-12)
(-1.10266e-11 -6.85948e-12 1.076e-11)
(-1.04951e-11 -7.7393e-12 1.36231e-11)
(-1.049e-11 -8.47289e-12 9.7699e-12)
(-9.56615e-12 -6.60471e-12 4.88886e-12)
(-8.2622e-12 -7.74968e-12 -2.86223e-12)
(-9.0781e-12 -9.0352e-12 -1.09187e-11)
(-7.51709e-12 -1.07273e-11 -8.26225e-12)
(-6.26263e-12 -1.04676e-11 -5.44256e-12)
(-4.07229e-12 -1.03786e-11 -4.14697e-12)
(-6.37517e-13 -8.42195e-12 -4.23386e-12)
(-1.10402e-12 -7.48011e-12 -3.80028e-12)
(-2.46857e-12 -7.40467e-12 -6.51659e-12)
(-1.10392e-12 -6.9107e-12 -8.72959e-12)
(-8.61173e-13 -4.22887e-12 -9.42318e-12)
(-1.59658e-12 -6.10451e-12 -1.06542e-11)
(-1.28988e-12 -6.24013e-12 -1.26964e-11)
(-1.19462e-12 -6.375e-12 -1.4503e-11)
(-1.74834e-12 -5.00146e-12 -1.39275e-11)
(-2.27235e-12 -4.76934e-12 -1.4859e-11)
(-2.78874e-12 -5.03222e-12 -1.47205e-11)
(-1.07633e-12 -5.97853e-12 -1.3601e-11)
(-1.01936e-12 -3.73472e-12 -8.85978e-12)
(-1.82403e-12 -5.37127e-12 -2.5019e-12)
(-2.3983e-12 -4.00298e-12 -4.89866e-13)
(-2.43412e-12 -6.6474e-12 -1.41172e-12)
(9.75056e-14 -7.65181e-12 -2.51769e-12)
(3.92947e-12 -6.59039e-12 -2.78097e-14)
(5.99639e-12 -3.91329e-12 7.50484e-12)
(5.08432e-12 -3.26315e-12 1.45654e-11)
(2.33706e-12 -2.50176e-12 1.77716e-11)
(1.9176e-12 -4.34684e-12 1.23568e-11)
(8.00178e-13 -5.91469e-13 3.57054e-12)
(1.93663e-12 -4.64928e-12 -5.99261e-12)
(1.95766e-12 -2.61779e-12 -1.13739e-11)
(1.57954e-12 -3.20637e-12 -1.30659e-11)
(1.10146e-12 -3.19198e-12 -1.09086e-11)
(1.02626e-12 -6.17406e-12 -9.03394e-12)
(1.75188e-12 -3.54053e-12 -6.88249e-12)
(7.2664e-13 -1.9814e-12 -3.22117e-12)
(2.43756e-12 -1.95981e-12 -3.51494e-13)
(3.7286e-12 -5.1896e-12 -4.34053e-13)
(4.24164e-12 -5.73686e-12 -9.63819e-15)
(4.17926e-12 -4.91541e-12 2.38719e-12)
(5.66631e-12 -3.05821e-12 3.88831e-12)
(5.03567e-12 -3.22583e-12 6.36422e-12)
(4.49511e-12 -4.84623e-12 8.70066e-12)
(4.02022e-12 -3.51313e-12 8.33684e-12)
(-1.88038e-13 -4.68569e-12 9.92433e-12)
(-1.35045e-12 -6.06847e-12 2.87544e-12)
(6.88705e-13 -6.98287e-12 -5.54998e-12)
(1.72832e-12 -6.07773e-12 -1.13872e-11)
(7.53265e-13 -4.44992e-12 -1.179e-11)
(-8.76064e-13 -6.93835e-12 -1.32199e-11)
(-4.352e-13 -4.69678e-12 -1.42883e-11)
(-1.27426e-12 -5.72858e-12 -1.43012e-11)
(-2.04783e-12 -3.43351e-12 -1.49272e-11)
(-1.20703e-12 -4.64578e-12 -1.27658e-11)
(-4.40451e-13 -2.38714e-12 -9.81522e-12)
(-9.20025e-13 -4.36543e-12 -5.31466e-12)
(1.94106e-12 -1.66574e-12 2.42516e-12)
(-1.53729e-13 -4.37761e-12 1.30438e-11)
(-6.4518e-13 -5.81359e-12 1.77003e-11)
(-1.84337e-12 -3.64032e-12 1.07544e-11)
(-1.15273e-12 -2.46311e-12 -3.34596e-12)
(-2.5981e-12 -1.84489e-12 -1.19212e-11)
(-2.8434e-12 -7.29824e-12 -1.39036e-11)
(-7.54735e-13 -7.49617e-12 -1.3583e-11)
(-5.00913e-13 -5.7466e-12 -1.31356e-11)
(2.04114e-13 -7.34024e-12 -1.09091e-11)
(8.45924e-13 -5.06643e-12 -6.91744e-12)
(-1.39295e-12 -3.65527e-12 -4.95036e-12)
(-1.39037e-12 -3.41067e-12 -4.30415e-12)
(-2.6195e-12 -4.71114e-12 -4.8154e-12)
(-3.76891e-12 -7.62674e-12 -6.13336e-12)
(-2.82841e-13 -8.50813e-12 -9.46297e-12)
(4.792e-13 -8.02617e-12 -1.50162e-11)
(-7.29564e-13 -9.80966e-12 -1.64477e-11)
(7.51635e-13 -8.68421e-12 -1.48366e-11)
(2.3601e-12 -9.01818e-12 -1.54626e-11)
(2.75214e-13 -8.07811e-12 -1.23371e-11)
(-1.12543e-12 -7.68565e-12 -1.66536e-11)
(-1.52586e-13 -6.97756e-12 -1.72218e-11)
(-1.0628e-13 -7.18042e-12 -1.82656e-11)
(-1.58619e-12 -6.8071e-12 -1.56673e-11)
(-4.5313e-12 -5.98916e-12 -1.77178e-11)
(-3.79514e-12 -6.8896e-12 -1.8537e-11)
(-2.01833e-12 -5.76494e-12 -1.90419e-11)
(-6.91001e-13 -4.79778e-12 -1.78708e-11)
(-6.41583e-13 -4.06687e-12 -1.45039e-11)
(-9.21607e-13 -2.90124e-12 -1.00693e-11)
(9.87589e-13 -5.87462e-12 -9.15684e-12)
(2.87718e-12 -5.2313e-12 -6.83544e-12)
(-2.49262e-11 -7.03542e-12 -4.32965e-12)
(-2.73386e-11 -4.97654e-12 8.98979e-13)
(-2.76695e-11 -2.9001e-12 5.41194e-12)
(-2.66517e-11 -5.95142e-12 8.42669e-12)
(-2.81673e-11 -7.65992e-12 9.77615e-12)
(-2.80863e-11 -7.54197e-12 1.11644e-11)
(-2.61943e-11 -6.82222e-12 1.26027e-11)
(-2.39913e-11 -7.04662e-12 1.10381e-11)
(-2.45345e-11 -8.87723e-12 9.41847e-12)
(-2.2493e-11 -9.77185e-12 1.03052e-11)
(-1.90344e-11 -9.19613e-12 1.11792e-11)
(-1.7671e-11 -1.05124e-11 8.5418e-12)
(-1.42112e-11 -9.91928e-12 7.12567e-12)
(-1.13887e-11 -9.25097e-12 7.89777e-12)
(-1.04397e-11 -8.18775e-12 9.20091e-12)
(-9.6092e-12 -9.15125e-12 8.11773e-12)
(-9.27013e-12 -9.8736e-12 7.90445e-12)
(-9.02514e-12 -9.72269e-12 3.07185e-12)
(-8.53813e-12 -9.78843e-12 -3.07198e-12)
(-7.85726e-12 -1.09658e-11 -3.20872e-12)
(-6.50064e-12 -1.04282e-11 -1.97894e-12)
(-2.93947e-12 -1.21933e-11 -1.22619e-12)
(-3.04485e-13 -1.34452e-11 -2.06465e-12)
(-1.17082e-12 -1.20392e-11 -3.84637e-12)
(-3.19895e-12 -1.13886e-11 -6.27658e-12)
(-3.1363e-12 -1.06557e-11 -7.85761e-12)
(-1.55642e-12 -1.07445e-11 -8.7904e-12)
(-2.27737e-13 -1.2243e-11 -9.71366e-12)
(3.04417e-13 -1.2083e-11 -1.1564e-11)
(-5.89177e-13 -1.26128e-11 -1.41983e-11)
(-2.09582e-12 -1.20094e-11 -1.39604e-11)
(-3.32462e-12 -1.05638e-11 -1.39319e-11)
(-3.5563e-12 -1.02408e-11 -1.43472e-11)
(-2.85358e-12 -1.08422e-11 -1.14328e-11)
(-8.7449e-13 -9.07872e-12 -9.14889e-12)
(-1.14592e-12 -9.2117e-12 -7.54655e-12)
(-2.3495e-12 -9.61013e-12 -7.65431e-12)
(-2.29943e-12 -9.9713e-12 -7.39365e-12)
(-6.15563e-13 -1.00202e-11 -7.47993e-12)
(2.70312e-12 -1.08733e-11 -5.44323e-12)
(5.41384e-12 -8.67707e-12 3.42963e-12)
(4.80064e-12 -8.85002e-12 1.50027e-11)
(2.89668e-12 -7.52852e-12 1.92538e-11)
(1.84284e-12 -8.9136e-12 1.63254e-11)
(2.10491e-12 -5.72825e-12 1.10062e-11)
(3.68899e-12 -9.27764e-12 5.91656e-12)
(1.9909e-12 -8.95255e-12 2.37096e-13)
(7.09852e-13 -8.64333e-12 -4.19778e-12)
(6.35748e-13 -7.88938e-12 -5.23542e-12)
(3.42042e-13 -8.2971e-12 -6.69192e-12)
(-6.05357e-13 -7.91648e-12 -6.32213e-12)
(-2.55526e-13 -7.60924e-12 -5.39865e-12)
(3.38126e-12 -8.31911e-12 -4.86531e-12)
(4.42817e-12 -1.0222e-11 -3.83206e-12)
(3.76679e-12 -1.00473e-11 -2.34513e-12)
(4.60117e-12 -9.44941e-12 6.83428e-13)
(5.96848e-12 -9.26204e-12 3.42544e-12)
(4.85262e-12 -9.60126e-12 4.20031e-12)
(2.94079e-12 -9.55873e-12 4.58568e-12)
(3.09988e-12 -7.80299e-12 4.39955e-12)
(1.79976e-12 -6.10504e-12 4.19473e-12)
(9.56091e-13 -1.03802e-11 1.03832e-13)
(4.31968e-13 -1.13783e-11 -6.14909e-12)
(3.9301e-13 -1.24368e-11 -1.01128e-11)
(5.16912e-13 -1.00924e-11 -1.05768e-11)
(-2.78739e-13 -9.90502e-12 -9.31366e-12)
(-1.17769e-12 -7.9066e-12 -8.19977e-12)
(-1.89342e-12 -6.70122e-12 -6.05618e-12)
(-1.28558e-12 -5.34322e-12 -4.86284e-12)
(-7.40225e-13 -6.73467e-12 -4.78807e-12)
(-7.36581e-13 -5.82225e-12 -2.73105e-12)
(-1.36777e-12 -5.74765e-12 1.93375e-12)
(9.06737e-13 -8.0224e-12 6.30963e-12)
(2.61725e-14 -6.61817e-12 1.00641e-11)
(-5.11325e-13 -7.57923e-12 1.39123e-11)
(-1.35454e-12 -7.73473e-12 8.18268e-12)
(-3.22604e-12 -7.23551e-12 -2.51949e-12)
(-2.59757e-13 -7.07423e-12 -9.59792e-12)
(-4.51045e-14 -1.00689e-11 -1.01986e-11)
(-1.01519e-12 -9.96433e-12 -9.96955e-12)
(-2.66091e-13 -1.04023e-11 -1.04519e-11)
(4.45193e-13 -1.0787e-11 -6.68525e-12)
(-1.01722e-12 -1.0198e-11 -1.31894e-12)
(-3.36598e-12 -7.93677e-12 -1.94525e-13)
(-2.6966e-12 -7.94753e-12 5.85243e-13)
(-1.00938e-12 -8.49843e-12 4.05284e-13)
(-1.88716e-12 -1.0113e-11 2.85263e-13)
(-1.04363e-12 -1.22143e-11 -5.24148e-12)
(6.99299e-13 -1.04221e-11 -1.16084e-11)
(-3.727e-13 -1.21937e-11 -1.33099e-11)
(4.26152e-13 -1.29304e-11 -1.29744e-11)
(1.33168e-12 -1.1014e-11 -1.29098e-11)
(-1.39887e-13 -8.3871e-12 -1.30198e-11)
(-3.03447e-14 -1.15372e-11 -1.54045e-11)
(7.08886e-13 -1.08191e-11 -1.53801e-11)
(-1.02665e-12 -1.11314e-11 -1.70639e-11)
(-2.61782e-12 -8.85258e-12 -1.86656e-11)
(-2.85824e-12 -1.03257e-11 -1.9013e-11)
(-2.74551e-12 -9.92228e-12 -1.92776e-11)
(-2.46026e-12 -1.05289e-11 -1.88625e-11)
(-4.57707e-13 -8.76926e-12 -1.82894e-11)
(-8.88256e-13 -1.04774e-11 -1.46968e-11)
(-1.26397e-12 -8.18775e-12 -1.00092e-11)
(8.76422e-13 -9.20548e-12 -7.26192e-12)
(9.20621e-13 -7.46372e-12 -8.49588e-12)
(-2.48092e-11 -1.16605e-11 -1.08458e-12)
(-2.7195e-11 -7.99483e-12 2.79162e-12)
(-2.5875e-11 -9.28743e-12 6.05506e-12)
(-2.60152e-11 -1.05258e-11 8.38332e-12)
(-2.83102e-11 -1.10732e-11 9.69148e-12)
(-2.93136e-11 -9.81585e-12 1.05198e-11)
(-2.75833e-11 -8.27622e-12 1.0478e-11)
(-2.35579e-11 -1.00674e-11 9.43701e-12)
(-2.22131e-11 -1.30998e-11 9.08901e-12)
(-2.0734e-11 -1.45984e-11 8.9096e-12)
(-1.94566e-11 -1.20729e-11 7.93385e-12)
(-1.79727e-11 -1.42796e-11 5.97437e-12)
(-1.46489e-11 -1.39851e-11 3.9047e-12)
(-1.21878e-11 -1.1573e-11 5.23358e-12)
(-1.12548e-11 -1.00291e-11 5.96022e-12)
(-9.95872e-12 -1.28098e-11 6.65057e-12)
(-9.41053e-12 -1.37333e-11 9.25402e-12)
(-9.23483e-12 -1.42829e-11 6.25172e-12)
(-8.31122e-12 -1.4434e-11 7.97848e-13)
(-6.80361e-12 -1.51731e-11 -1.15783e-12)
(-5.46898e-12 -1.44104e-11 -1.00687e-12)
(-2.53852e-12 -1.49741e-11 -2.38711e-12)
(-1.3964e-12 -1.77316e-11 -1.42411e-12)
(-3.01171e-12 -1.62425e-11 -4.01377e-12)
(-3.75043e-12 -1.43811e-11 -7.46537e-12)
(-1.6977e-12 -1.37295e-11 -7.79465e-12)
(-1.27954e-13 -1.51946e-11 -7.98676e-12)
(-5.90792e-13 -1.68997e-11 -7.76253e-12)
(1.26915e-13 -1.66144e-11 -1.13024e-11)
(-6.80038e-13 -1.468e-11 -1.38827e-11)
(-2.60692e-12 -1.62841e-11 -1.34325e-11)
(-3.77225e-12 -1.42915e-11 -1.21021e-11)
(-2.40859e-12 -1.2225e-11 -1.16708e-11)
(-2.27072e-12 -1.52897e-11 -1.02583e-11)
(-2.32328e-12 -1.45977e-11 -8.6642e-12)
(-1.4437e-12 -1.32523e-11 -8.70639e-12)
(-1.62988e-12 -1.49371e-11 -8.95093e-12)
(-1.72635e-12 -1.42613e-11 -8.98038e-12)
(1.37934e-13 -1.31307e-11 -8.52586e-12)
(2.2404e-12 -1.21172e-11 -7.62603e-12)
(3.83593e-12 -1.17705e-11 2.06369e-12)
(3.98394e-12 -1.36697e-11 1.33475e-11)
(3.18292e-12 -1.22508e-11 1.84285e-11)
(1.51953e-12 -1.28174e-11 1.66185e-11)
(2.24504e-12 -1.00347e-11 1.53856e-11)
(4.01648e-12 -1.04268e-11 1.52683e-11)
(1.81265e-12 -1.23083e-11 8.86451e-12)
(1.37148e-13 -9.95044e-12 9.37298e-13)
(4.45095e-13 -1.15394e-11 -4.29901e-12)
(-4.49548e-16 -1.14004e-11 -7.54785e-12)
(7.26601e-14 -1.12826e-11 -5.1084e-12)
(2.03037e-12 -1.19757e-11 -3.78431e-12)
(4.47021e-12 -1.20785e-11 -4.16605e-12)
(3.68909e-12 -1.27546e-11 -4.86986e-12)
(2.37755e-12 -1.36038e-11 -4.57807e-12)
(4.31839e-12 -1.29249e-11 -2.39435e-12)
(7.17415e-12 -1.14809e-11 -1.93396e-13)
(6.39116e-12 -1.22798e-11 1.06529e-12)
(3.51079e-12 -1.37097e-11 2.51281e-12)
(1.19476e-12 -1.37103e-11 1.78987e-12)
(1.07355e-12 -1.24692e-11 4.49393e-13)
(3.02202e-12 -1.39084e-11 -2.6409e-12)
(2.12419e-12 -1.42671e-11 -6.24838e-12)
(-3.24378e-13 -1.52137e-11 -9.21268e-12)
(-1.75143e-12 -1.52623e-11 -8.94215e-12)
(-1.10581e-12 -1.40871e-11 -8.60517e-12)
(-1.30391e-12 -1.19912e-11 -6.98606e-12)
(-1.8732e-12 -1.14133e-11 -3.884e-12)
(-6.88956e-13 -1.01854e-11 -1.68844e-12)
(1.7007e-13 -9.9557e-12 -1.24077e-12)
(-1.69976e-12 -1.06414e-11 1.19479e-12)
(-9.69785e-13 -1.10959e-11 5.37314e-12)
(9.12754e-13 -1.36634e-11 7.16003e-12)
(7.83818e-13 -1.23442e-11 7.2778e-12)
(1.45225e-13 -1.16113e-11 1.07333e-11)
(-1.51304e-12 -1.25297e-11 5.20049e-12)
(-3.07635e-12 -9.6645e-12 -2.35854e-12)
(-2.08225e-15 -1.18694e-11 -6.21831e-12)
(-5.43585e-13 -1.34785e-11 -8.61271e-12)
(-8.59788e-13 -1.25065e-11 -9.38942e-12)
(-4.46506e-13 -1.33808e-11 -8.20327e-12)
(1.48563e-13 -1.42292e-11 -5.59784e-12)
(-2.63118e-13 -1.37356e-11 2.45751e-12)
(-3.07519e-12 -1.21825e-11 4.22447e-12)
(-2.13987e-12 -1.33922e-11 3.10809e-12)
(-1.24488e-12 -1.49376e-11 2.17721e-12)
(-1.47571e-12 -1.44815e-11 1.81136e-12)
(-1.02488e-12 -1.65014e-11 -4.57107e-12)
(-1.16156e-13 -1.46176e-11 -1.0786e-11)
(4.93156e-13 -1.64106e-11 -1.16428e-11)
(9.78631e-14 -1.72768e-11 -1.16481e-11)
(-5.10828e-13 -1.52792e-11 -1.19691e-11)
(9.39017e-13 -1.1916e-11 -1.2443e-11)
(2.35975e-12 -1.31975e-11 -1.38515e-11)
(6.08931e-13 -1.34122e-11 -1.37294e-11)
(-1.25697e-12 -1.48815e-11 -1.55351e-11)
(-1.52279e-12 -1.46133e-11 -1.77633e-11)
(-4.15263e-12 -1.4479e-11 -1.90935e-11)
(-3.72821e-12 -1.14787e-11 -2.12208e-11)
(-3.04951e-12 -1.23882e-11 -1.69504e-11)
(-7.12676e-13 -9.9386e-12 -1.54023e-11)
(-2.6071e-13 -1.32267e-11 -1.32895e-11)
(-2.09745e-12 -1.29129e-11 -9.95063e-12)
(-1.56617e-13 -1.23026e-11 -7.6313e-12)
(8.8267e-13 -1.15478e-11 -8.61356e-12)
(-2.1453e-11 -1.17563e-11 3.62681e-12)
(-2.48493e-11 -1.03014e-11 5.36687e-12)
(-2.27935e-11 -1.01093e-11 8.28499e-12)
(-2.47551e-11 -9.10021e-12 7.46627e-12)
(-2.87509e-11 -8.61254e-12 7.78824e-12)
(-3.10123e-11 -8.09508e-12 8.32404e-12)
(-2.64406e-11 -8.96948e-12 8.94454e-12)
(-2.1418e-11 -8.54404e-12 7.83554e-12)
(-2.15179e-11 -1.01444e-11 7.25046e-12)
(-2.34e-11 -1.06365e-11 6.72809e-12)
(-1.99826e-11 -1.11994e-11 5.31278e-12)
(-1.56152e-11 -1.37255e-11 3.22171e-12)
(-1.59964e-11 -1.39699e-11 1.28193e-13)
(-1.45813e-11 -1.2136e-11 3.07148e-12)
(-8.86092e-12 -1.08683e-11 4.47949e-12)
(-7.23445e-12 -1.19499e-11 7.50996e-12)
(-9.24726e-12 -1.18998e-11 1.18375e-11)
(-1.01786e-11 -1.11949e-11 8.89605e-12)
(-8.44656e-12 -1.27012e-11 3.93332e-12)
(-7.08387e-12 -1.35513e-11 9.87176e-13)
(-5.89428e-12 -1.46845e-11 2.53324e-13)
(-1.41968e-12 -1.4313e-11 6.90343e-13)
(-4.80514e-13 -1.47275e-11 -1.43462e-12)
(-4.53676e-12 -1.38034e-11 -3.10732e-12)
(-4.7282e-12 -1.44279e-11 -6.29394e-12)
(-2.72974e-12 -1.36366e-11 -8.01103e-12)
(6.40408e-13 -1.24083e-11 -8.621e-12)
(1.50983e-12 -1.39001e-11 -8.18229e-12)
(-1.5161e-12 -1.50394e-11 -1.16999e-11)
(-1.06441e-13 -1.47239e-11 -1.36423e-11)
(-1.89709e-12 -1.59106e-11 -1.36419e-11)
(-7.3053e-12 -1.59689e-11 -1.28155e-11)
(-1.37406e-12 -1.5724e-11 -1.1752e-11)
(2.22664e-13 -1.59e-11 -8.8697e-12)
(-2.93976e-12 -1.62436e-11 -6.40123e-12)
(1.12173e-13 -1.47789e-11 -8.30457e-12)
(-7.24431e-13 -1.39068e-11 -1.04419e-11)
(-3.21422e-12 -1.394e-11 -9.53386e-12)
(-1.85866e-12 -1.35662e-11 -9.31441e-12)
(9.82084e-13 -1.09277e-11 -1.0397e-11)
(6.87672e-12 -1.18276e-11 -2.15711e-13)
(5.28214e-12 -1.30308e-11 1.36978e-11)
(3.12072e-12 -1.2197e-11 2.05605e-11)
(3.62896e-13 -1.18485e-11 1.91331e-11)
(6.0397e-13 -1.09549e-11 1.6874e-11)
(5.32174e-12 -1.07842e-11 1.79291e-11)
(9.84152e-13 -1.19408e-11 1.02868e-11)
(-6.49666e-13 -1.09284e-11 -5.41392e-14)
(1.4231e-12 -1.15268e-11 -3.07126e-12)
(3.76294e-13 -1.25504e-11 -4.02116e-12)
(3.14623e-13 -1.15211e-11 -3.10226e-12)
(1.52632e-12 -1.34649e-11 -1.24426e-12)
(3.68914e-12 -1.38335e-11 -2.92204e-12)
(4.22187e-12 -1.24507e-11 -4.40898e-12)
(3.27109e-12 -1.29338e-11 -3.36318e-12)
(2.8544e-12 -1.22686e-11 -2.23517e-12)
(5.66332e-12 -1.25687e-11 -1.00851e-12)
(8.17278e-12 -1.16445e-11 -7.58968e-13)
(5.27655e-12 -1.15314e-11 -1.93284e-12)
(2.11771e-12 -1.13113e-11 -3.74151e-12)
(1.67854e-12 -1.13503e-11 -3.87772e-12)
(2.27171e-12 -1.17348e-11 -6.7181e-12)
(1.10547e-12 -1.13705e-11 -9.83082e-12)
(2.50514e-13 -1.10213e-11 -1.13888e-11)
(-4.95116e-13 -1.12382e-11 -8.68676e-12)
(-2.79851e-12 -1.15881e-11 -7.9941e-12)
(-2.38144e-12 -9.43373e-12 -6.29725e-12)
(-2.33003e-12 -1.20265e-11 -2.65315e-12)
(-2.67036e-12 -1.21755e-11 1.04159e-12)
(-5.37641e-13 -1.26675e-11 -1.13837e-12)
(-2.26917e-13 -1.35588e-11 2.97777e-12)
(1.59863e-12 -1.24036e-11 7.93517e-12)
(1.8773e-12 -1.14663e-11 7.33089e-12)
(-4.01072e-13 -1.24431e-11 7.82332e-12)
(-6.5993e-13 -1.17347e-11 1.05141e-11)
(-3.45956e-12 -1.22013e-11 3.66255e-12)
(-3.12423e-12 -1.11881e-11 -3.19326e-12)
(2.7391e-12 -1.16751e-11 -5.17556e-12)
(-4.15773e-14 -1.21524e-11 -5.79388e-12)
(-2.51402e-12 -1.16733e-11 -5.25347e-12)
(9.13413e-13 -1.11733e-11 -3.50127e-12)
(1.41872e-12 -1.09874e-11 -1.54954e-13)
(-2.23574e-12 -1.08081e-11 4.80634e-12)
(-3.24645e-12 -1.18865e-11 8.23525e-12)
(-3.61092e-13 -1.30542e-11 7.67217e-12)
(-8.10908e-13 -1.36908e-11 6.44606e-12)
(-1.14726e-12 -1.4816e-11 4.71506e-12)
(-6.01964e-13 -1.56688e-11 -2.93994e-12)
(5.23916e-13 -1.4473e-11 -8.19005e-12)
(1.11509e-12 -1.55943e-11 -1.00895e-11)
(-1.744e-13 -1.49219e-11 -1.04319e-11)
(-2.20009e-12 -1.36401e-11 -9.42205e-12)
(-1.40231e-12 -1.28945e-11 -1.09695e-11)
(2.63306e-12 -1.32871e-11 -1.18329e-11)
(2.90532e-12 -1.28084e-11 -1.34627e-11)
(9.80821e-13 -1.26142e-11 -1.54507e-11)