/*--------------------------------*- C++ -*----------------------------------*\
| =========                 |                                                 |
| \\      /  F ield         | OpenFOAM: The Open Source CFD Toolbox           |
|  \\    /   O peration     | Version:  2406                                  |
|   \\  /    A nd           | Website:  www.openfoam.com                      |
|    \\/     M anipulation  |                                                 |
\*---------------------------------------------------------------------------*/
FoamFile
{
    version     2.0;
    format      ascii;
    arch        "LSB;label=32;scalar=64";
    class       volScalarField;
    location    "0.002";
    object      Ma;
}
// * * * * * * * * * * * * * * * * * * * * * * * * * * * * * * * * * * * * * //

dimensions      [0 0 0 0 0 0 0];

internalField   nonuniform List<scalar> 
81000
(
0.00360516
0.0036778
0.00367853
0.00367853
0.00367851
0.00367844
0.00367827
0.00367798
0.00367757
0.00367706
0.00367651
0.00367594
0.0036754
0.00367492
0.00367451
0.00367418
0.00367391
0.0036737
0.00367355
0.00367343
0.00367334
0.00367327
0.00367321
0.00367316
0.0036731
0.00367304
0.00367296
0.00367287
0.00367278
0.00367267
0.00367255
0.00367242
0.00367228
0.00367214
0.003672
0.00367187
0.00367174
0.00367162
0.00367152
0.00367144
0.00367137
0.00367131
0.00367126
0.00367123
0.00367121
0.00367119
0.00367119
0.00367119
0.00367119
0.00367119
0.00367119
0.0036712
0.00367122
0.00367125
0.00367129
0.00367134
0.00367141
0.0036715
0.00367161
0.00367173
0.00367187
0.00367203
0.00367219
0.00367237
0.00367254
0.0036727
0.00367285
0.00367297
0.00367306
0.00367312
0.00367315
0.00367317
0.00367317
0.00367316
0.00367314
0.00367308
0.00367299
0.00367286
0.00367273
0.0036726
0.0036725
0.00367244
0.00367241
0.00367243
0.00367251
0.00367265
0.00367288
0.00367322
0.00367365
0.00367415
0.00367468
0.00367519
0.00367563
0.00367596
0.00367618
0.0036763
0.00367635
0.00367636
0.00367616
0.00363796
0.00491428
0.00523739
0.00524831
0.00524868
0.00524867
0.00524861
0.00524848
0.00524823
0.00524784
0.00524729
0.00524659
0.00524575
0.00524483
0.00524389
0.00524301
0.00524222
0.0052416
0.00524114
0.00524084
0.00524067
0.00524059
0.00524057
0.0052406
0.00524069
0.00524085
0.00524105
0.00524127
0.00524149
0.00524168
0.00524183
0.00524196
0.00524205
0.00524211
0.00524214
0.00524215
0.00524215
0.00524215
0.00524214
0.00524213
0.00524211
0.00524209
0.00524208
0.00524207
0.00524206
0.00524206
0.00524207
0.00524208
0.0052421
0.00524215
0.00524223
0.00524236
0.00524254
0.00524279
0.00524312
0.00524355
0.00524408
0.00524471
0.00524544
0.00524625
0.0052471
0.00524797
0.00524882
0.00524959
0.00525026
0.00525081
0.00525123
0.00525152
0.0052517
0.0052518
0.00525184
0.00525185
0.0052518
0.00525166
0.00525138
0.00525088
0.00525016
0.00524922
0.00524806
0.00524671
0.00524521
0.00524365
0.00524222
0.00524119
0.0052407
0.0052406
0.0052407
0.00524103
0.00524164
0.00524257
0.00524374
0.00524504
0.00524633
0.00524751
0.00524847
0.00524919
0.00524965
0.00524989
0.00524996
0.00524864
0.0051332
0.0168012
0.0167991
0.0167989
0.0167984
0.0167974
0.0167963
0.0167951
0.016794
0.0167929
0.0167918
0.0167908
0.0167899
0.016789
0.0167882
0.0167874
0.0167868
0.0167863
0.0167858
0.0167855
0.0167853
0.0167851
0.016785
0.0167849
0.0167849
0.0167849
0.0167849
0.016785
0.0167851
0.0167852
0.0167853
0.0167853
0.0167854
0.0167855
0.0167855
0.0167856
0.0167856
0.0167856
0.0167857
0.0167857
0.0167857
0.0167857
0.0167857
0.0167857
0.0167857
0.0167857
0.0167857
0.0167857
0.0167857
0.0167857
0.0167857
0.0167856
0.0167856
0.0167855
0.0167854
0.0167853
0.0167851
0.0167849
0.0167846
0.0167843
0.016784
0.0167836
0.0167833
0.0167829
0.0167826
0.0167823
0.0167821
0.0167818
0.0167817
0.0167815
0.0167814
0.0167813
0.0167812
0.0167812
0.0167812
0.0167812
0.0167813
0.0167815
0.0167817
0.0167822
0.0167828
0.0167836
0.0167845
0.0167857
0.0167871
0.0167886
0.0167903
0.0167922
0.016794
0.0167958
0.0167975
0.016799
0.0168002
0.0168012
0.016802
0.0168025
0.0168029
0.0168031
0.0168034
0.0168034
0.0167663
0.0290685
0.0290713
0.029071
0.0290709
0.0290707
0.0290705
0.0290703
0.02907
0.0290696
0.0290692
0.0290688
0.0290685
0.0290681
0.0290679
0.0290677
0.0290676
0.0290675
0.0290674
0.0290674
0.0290674
0.0290674
0.0290675
0.0290675
0.0290675
0.0290675
0.0290675
0.0290675
0.0290675
0.0290675
0.0290675
0.0290675
0.0290675
0.0290675
0.0290675
0.0290675
0.0290675
0.0290675
0.0290675
0.0290675
0.0290675
0.0290675
0.0290675
0.0290675
0.0290675
0.0290675
0.0290675
0.0290675
0.0290675
0.0290675
0.0290675
0.0290675
0.0290675
0.0290675
0.0290675
0.0290675
0.0290675
0.0290675
0.0290675
0.0290675
0.0290675
0.0290675
0.0290675
0.0290675
0.0290675
0.0290675
0.0290675
0.0290675
0.0290675
0.0290675
0.0290674
0.0290674
0.0290674
0.0290674
0.0290673
0.0290673
0.0290673
0.0290672
0.0290672
0.0290672
0.0290672
0.0290673
0.0290674
0.0290675
0.0290677
0.0290679
0.0290682
0.0290686
0.029069
0.0290695
0.02907
0.0290705
0.029071
0.0290715
0.0290719
0.0290722
0.0290724
0.0290726
0.0290728
0.0290731
0.0290706
0.0089762
0.00899239
0.0089923
0.00899227
0.00899225
0.00899224
0.00899224
0.00899223
0.00899223
0.00899223
0.00899224
0.00899225
0.00899226
0.00899228
0.0089923
0.00899233
0.00899237
0.0089924
0.00899244
0.00899248
0.00899252
0.00899255
0.00899257
0.0089926
0.00899261
0.00899262
0.00899263
0.00899263
0.00899263
0.00899262
0.00899262
0.00899261
0.00899259
0.00899258
0.00899257
0.00899255
0.00899253
0.00899252
0.0089925
0.00899249
0.00899248
0.00899247
0.00899247
0.00899246
0.00899246
0.00899246
0.00899246
0.00899246
0.00899246
0.00899246
0.00899246
0.00899246
0.00899246
0.00899246
0.00899246
0.00899247
0.00899247
0.00899248
0.00899249
0.0089925
0.00899252
0.00899254
0.00899256
0.00899258
0.0089926
0.00899262
0.00899264
0.00899266
0.00899268
0.00899269
0.0089927
0.0089927
0.0089927
0.0089927
0.00899269
0.00899268
0.00899266
0.00899263
0.0089926
0.00899256
0.00899252
0.00899248
0.00899243
0.00899239
0.00899235
0.00899232
0.0089923
0.00899228
0.00899226
0.00899226
0.00899225
0.00899226
0.00899226
0.00899227
0.00899228
0.00899229
0.00899231
0.00899234
0.00899242
0.00897668
0.000482226
0.000503
0.000503447
0.000503451
0.00050345
0.000503455
0.000503461
0.00050347
0.000503481
0.000503495
0.000503513
0.000503534
0.000503558
0.000503584
0.000503613
0.000503643
0.000503674
0.000503704
0.000503732
0.000503759
0.000503783
0.000503804
0.000503821
0.000503835
0.000503846
0.000503854
0.000503859
0.000503862
0.000503865
0.000503866
0.000503866
0.000503866
0.000503866
0.000503865
0.000503864
0.000503863
0.000503861
0.000503859
0.000503856
0.000503854
0.000503852
0.00050385
0.000503848
0.000503847
0.000503846
0.000503845
0.000503845
0.000503845
0.000503844
0.000503844
0.000503844
0.000503844
0.000503845
0.000503845
0.000503845
0.000503846
0.000503848
0.000503849
0.000503852
0.000503854
0.000503858
0.000503861
0.000503864
0.000503867
0.00050387
0.000503872
0.000503874
0.000503875
0.000503875
0.000503876
0.000503875
0.000503874
0.000503873
0.000503869
0.000503864
0.000503856
0.000503846
0.000503831
0.000503813
0.000503792
0.000503767
0.000503739
0.000503709
0.000503677
0.000503645
0.000503613
0.000503582
0.000503554
0.000503528
0.000503506
0.000503487
0.000503472
0.000503459
0.00050345
0.000503444
0.000503438
0.000503439
0.000503434
0.000502987
0.000482191
3.32976e-06
3.329e-06
3.32749e-06
3.32581e-06
3.32458e-06
3.32399e-06
3.32385e-06
3.32391e-06
3.32435e-06
3.32554e-06
3.32767e-06
3.33074e-06
3.33439e-06
3.33818e-06
3.34155e-06
3.34418e-06
3.34589e-06
3.34682e-06
3.34717e-06
3.34725e-06
3.34723e-06
3.34713e-06
3.34685e-06
3.34637e-06
3.34567e-06
3.34483e-06
3.3439e-06
3.343e-06
3.34219e-06
3.34153e-06
3.34104e-06
3.34071e-06
3.3405e-06
3.34039e-06
3.34034e-06
3.34033e-06
3.34032e-06
3.34033e-06
3.34035e-06
3.34038e-06
3.34041e-06
3.34044e-06
3.34047e-06
3.3405e-06
3.34052e-06
3.34054e-06
3.34055e-06
3.34055e-06
3.34056e-06
3.34056e-06
3.34056e-06
3.34056e-06
3.34056e-06
3.34056e-06
3.34056e-06
3.34056e-06
3.34055e-06
3.34054e-06
3.34053e-06
3.34051e-06
3.3405e-06
3.34049e-06
3.34048e-06
3.34048e-06
3.3405e-06
3.34054e-06
3.34063e-06
3.34079e-06
3.34104e-06
3.34142e-06
3.34196e-06
3.34264e-06
3.34345e-06
3.34433e-06
3.34522e-06
3.34601e-06
3.34665e-06
3.34709e-06
3.34733e-06
3.34742e-06
3.34743e-06
3.34733e-06
3.34693e-06
3.34594e-06
3.34415e-06
3.34145e-06
3.33802e-06
3.33419e-06
3.33055e-06
3.32752e-06
3.32545e-06
3.32431e-06
3.3239e-06
3.32385e-06
3.32401e-06
3.32463e-06
3.32591e-06
3.32762e-06
3.32917e-06
3.32995e-06
3.35635e-07
4.25142e-07
4.37601e-07
4.41847e-07
4.45122e-07
4.48635e-07
4.52246e-07
4.55811e-07
4.59166e-07
4.62143e-07
4.64605e-07
4.66473e-07
4.67745e-07
4.68498e-07
4.68865e-07
4.68996e-07
4.69018e-07
4.69e-07
4.68928e-07
4.68772e-07
4.68523e-07
4.68182e-07
4.67765e-07
4.67285e-07
4.66758e-07
4.66195e-07
4.65608e-07
4.65009e-07
4.64412e-07
4.63832e-07
4.63285e-07
4.62785e-07
4.62343e-07
4.61965e-07
4.61652e-07
4.61402e-07
4.61209e-07
4.61065e-07
4.60962e-07
4.60891e-07
4.60844e-07
4.60815e-07
4.60797e-07
4.60787e-07
4.60782e-07
4.6078e-07
4.60778e-07
4.60778e-07
4.60778e-07
4.60778e-07
4.60778e-07
4.60778e-07
4.60778e-07
4.60779e-07
4.6078e-07
4.60783e-07
4.6079e-07
4.60801e-07
4.6082e-07
4.60851e-07
4.60901e-07
4.60975e-07
4.61081e-07
4.61228e-07
4.61425e-07
4.61679e-07
4.61995e-07
4.62378e-07
4.62823e-07
4.63326e-07
4.63874e-07
4.64455e-07
4.65051e-07
4.65649e-07
4.66232e-07
4.66791e-07
4.67313e-07
4.67787e-07
4.68198e-07
4.68534e-07
4.68779e-07
4.68931e-07
4.69002e-07
4.6902e-07
4.68995e-07
4.6886e-07
4.68485e-07
4.67722e-07
4.66437e-07
4.64556e-07
4.62082e-07
4.59095e-07
4.55733e-07
4.52165e-07
4.48552e-07
4.4504e-07
4.41767e-07
4.37525e-07
4.25072e-07
3.35596e-07
2.67915e-07
2.77886e-07
2.78074e-07
2.78276e-07
2.78481e-07
2.78695e-07
2.78921e-07
2.7916e-07
2.7941e-07
2.79671e-07
2.7994e-07
2.80214e-07
2.80491e-07
2.80767e-07
2.81039e-07
2.81306e-07
2.81564e-07
2.81812e-07
2.82047e-07
2.82267e-07
2.82473e-07
2.82663e-07
2.82837e-07
2.82995e-07
2.83138e-07
2.83265e-07
2.83377e-07
2.83475e-07
2.8356e-07
2.83633e-07
2.83694e-07
2.83744e-07
2.83786e-07
2.83818e-07
2.83844e-07
2.83863e-07
2.83877e-07
2.83888e-07
2.83895e-07
2.83899e-07
2.83903e-07
2.83904e-07
2.83905e-07
2.83906e-07
2.83906e-07
2.83906e-07
2.83906e-07
2.83906e-07
2.83906e-07
2.83906e-07
2.83906e-07
2.83906e-07
2.83906e-07
2.83906e-07
2.83906e-07
2.83906e-07
2.83906e-07
2.83905e-07
2.83904e-07
2.83903e-07
2.83899e-07
2.83895e-07
2.83887e-07
2.83877e-07
2.83863e-07
2.83843e-07
2.83818e-07
2.83785e-07
2.83744e-07
2.83693e-07
2.83632e-07
2.83559e-07
2.83474e-07
2.83376e-07
2.83263e-07
2.83136e-07
2.82994e-07
2.82836e-07
2.82662e-07
2.82473e-07
2.82268e-07
2.82048e-07
2.81813e-07
2.81567e-07
2.8131e-07
2.81044e-07
2.80773e-07
2.80498e-07
2.80223e-07
2.7995e-07
2.79683e-07
2.79423e-07
2.79174e-07
2.78936e-07
2.7871e-07
2.78497e-07
2.78293e-07
2.78091e-07
2.77903e-07
2.67953e-07
5.73456e-08
6.03308e-08
6.04037e-08
6.04724e-08
6.05516e-08
6.06421e-08
6.07439e-08
6.08566e-08
6.09789e-08
6.11092e-08
6.12452e-08
6.13844e-08
6.15244e-08
6.16626e-08
6.17968e-08
6.19253e-08
6.20464e-08
6.21588e-08
6.22616e-08
6.23544e-08
6.24368e-08
6.2509e-08
6.25715e-08
6.26247e-08
6.26695e-08
6.27066e-08
6.2737e-08
6.27616e-08
6.27812e-08
6.27966e-08
6.28086e-08
6.28177e-08
6.28245e-08
6.28295e-08
6.2833e-08
6.28353e-08
6.28368e-08
6.28375e-08
6.28378e-08
6.28378e-08
6.28376e-08
6.28373e-08
6.2837e-08
6.28367e-08
6.28365e-08
6.28364e-08
6.28363e-08
6.28363e-08
6.28362e-08
6.28362e-08
6.28362e-08
6.28362e-08
6.28363e-08
6.28363e-08
6.28364e-08
6.28365e-08
6.28367e-08
6.2837e-08
6.28373e-08
6.28376e-08
6.28378e-08
6.28378e-08
6.28375e-08
6.28368e-08
6.28353e-08
6.2833e-08
6.28295e-08
6.28245e-08
6.28177e-08
6.28085e-08
6.27965e-08
6.2781e-08
6.27613e-08
6.27366e-08
6.27061e-08
6.26689e-08
6.26241e-08
6.25708e-08
6.25084e-08
6.24362e-08
6.2354e-08
6.22616e-08
6.21592e-08
6.20474e-08
6.19272e-08
6.17996e-08
6.16664e-08
6.15293e-08
6.13905e-08
6.12524e-08
6.11173e-08
6.09878e-08
6.0866e-08
6.07537e-08
6.06521e-08
6.05616e-08
6.04821e-08
6.0413e-08
6.03381e-08
5.73137e-08
0.00361127
0.00366493
0.00366533
0.00366532
0.00366528
0.00366515
0.00366492
0.00366456
0.00366409
0.00366353
0.00366294
0.00366236
0.00366182
0.00366136
0.00366097
0.00366066
0.00366042
0.00366023
0.00366008
0.00365997
0.00365988
0.0036598
0.00365973
0.00365965
0.00365957
0.00365947
0.00365937
0.00365926
0.00365913
0.00365899
0.00365884
0.00365868
0.00365852
0.00365836
0.0036582
0.00365805
0.00365792
0.0036578
0.00365769
0.0036576
0.00365753
0.00365747
0.00365743
0.0036574
0.00365738
0.00365736
0.00365735
0.00365735
0.00365735
0.00365734
0.00365734
0.00365735
0.00365735
0.00365736
0.00365738
0.00365742
0.00365747
0.00365753
0.00365762
0.00365772
0.00365784
0.00365798
0.00365813
0.0036583
0.00365847
0.00365864
0.00365881
0.00365896
0.0036591
0.00365923
0.00365933
0.00365942
0.0036595
0.00365957
0.00365964
0.00365971
0.00365978
0.00365987
0.00365997
0.00366011
0.0036603
0.00366055
0.00366088
0.00366131
0.00366184
0.00366249
0.00366325
0.00366411
0.00366506
0.00366604
0.003667
0.00366789
0.00366865
0.00366923
0.00366962
0.00366984
0.00366994
0.00366996
0.00366986
0.00364163
0.00500926
0.00524583
0.00525158
0.0052517
0.00525168
0.00525158
0.00525133
0.00525087
0.00525014
0.00524915
0.00524792
0.0052465
0.00524496
0.00524338
0.00524181
0.00524034
0.005239
0.00523782
0.00523682
0.00523601
0.00523535
0.00523485
0.00523448
0.00523421
0.00523402
0.00523389
0.00523381
0.00523376
0.00523372
0.00523369
0.00523366
0.00523363
0.00523359
0.00523355
0.00523351
0.00523347
0.00523343
0.00523338
0.00523334
0.0052333
0.00523327
0.00523324
0.00523321
0.00523319
0.00523317
0.00523315
0.00523313
0.00523311
0.00523309
0.00523308
0.00523306
0.00523306
0.00523306
0.00523307
0.00523311
0.00523319
0.00523331
0.00523347
0.00523368
0.00523392
0.00523419
0.00523446
0.00523473
0.00523497
0.00523518
0.00523535
0.00523548
0.00523559
0.00523566
0.00523571
0.00523574
0.00523573
0.00523568
0.00523559
0.00523548
0.00523538
0.00523533
0.00523538
0.00523557
0.00523594
0.00523655
0.00523749
0.00523885
0.0052407
0.00524307
0.00524599
0.0052493
0.00525298
0.00525674
0.00526055
0.00526399
0.00526714
0.00526957
0.00527149
0.00527263
0.00527335
0.00527359
0.00527369
0.00527272
0.00517066
0.0168335
0.016851
0.0168509
0.0168507
0.0168503
0.0168496
0.0168487
0.0168478
0.0168469
0.0168461
0.0168453
0.0168446
0.0168441
0.0168436
0.0168433
0.016843
0.0168429
0.0168429
0.0168429
0.0168429
0.016843
0.0168431
0.0168432
0.0168434
0.0168436
0.0168438
0.016844
0.0168442
0.0168444
0.0168445
0.0168446
0.0168447
0.0168448
0.0168449
0.016845
0.016845
0.0168451
0.0168451
0.0168451
0.0168451
0.0168452
0.0168452
0.0168452
0.0168452
0.0168452
0.0168452
0.0168452
0.0168452
0.0168452
0.0168452
0.0168453
0.0168453
0.0168453
0.0168453
0.0168453
0.0168453
0.0168452
0.0168452
0.0168452
0.0168451
0.0168451
0.016845
0.0168449
0.0168448
0.0168447
0.0168446
0.0168445
0.0168444
0.0168443
0.0168442
0.0168441
0.0168439
0.0168437
0.0168435
0.0168432
0.0168429
0.0168425
0.0168422
0.0168418
0.0168416
0.0168414
0.0168414
0.0168415
0.0168417
0.0168421
0.0168426
0.0168433
0.016844
0.0168447
0.0168455
0.0168463
0.0168469
0.0168475
0.016848
0.0168483
0.0168486
0.0168488
0.016849
0.0168488
0.0167847
0.0290517
0.0290614
0.0290613
0.0290611
0.0290609
0.0290607
0.0290604
0.0290601
0.0290597
0.0290593
0.0290589
0.0290586
0.0290583
0.0290581
0.0290579
0.0290578
0.0290577
0.0290577
0.0290577
0.0290577
0.0290577
0.0290577
0.0290577
0.0290577
0.0290578
0.0290578
0.0290578
0.0290578
0.0290578
0.0290578
0.0290578
0.0290578
0.0290578
0.0290578
0.0290578
0.0290578
0.0290578
0.0290577
0.0290577
0.0290577
0.0290577
0.0290577
0.0290577
0.0290577
0.0290577
0.0290577
0.0290577
0.0290577
0.0290577
0.0290577
0.0290577
0.0290577
0.0290577
0.0290577
0.0290577
0.0290577
0.0290577
0.0290577
0.0290577
0.0290577
0.0290577
0.0290577
0.0290577
0.0290577
0.0290577
0.0290577
0.0290577
0.0290577
0.0290577
0.0290577
0.0290577
0.0290576
0.0290576
0.0290576
0.0290575
0.0290575
0.0290575
0.0290575
0.0290574
0.0290574
0.0290575
0.0290575
0.0290576
0.0290577
0.0290579
0.0290581
0.0290584
0.0290588
0.0290591
0.0290596
0.0290601
0.0290606
0.029061
0.0290614
0.0290617
0.0290619
0.0290621
0.0290622
0.0290622
0.0290525
0.00896425
0.00898128
0.00898121
0.00898118
0.00898116
0.00898115
0.00898115
0.00898114
0.00898114
0.00898114
0.00898115
0.00898116
0.00898117
0.00898119
0.00898121
0.00898124
0.00898128
0.00898131
0.00898135
0.00898139
0.00898142
0.00898145
0.00898147
0.00898149
0.0089815
0.00898151
0.00898152
0.00898152
0.00898151
0.00898151
0.0089815
0.00898149
0.00898147
0.00898146
0.00898144
0.00898142
0.00898141
0.00898139
0.00898138
0.00898137
0.00898135
0.00898135
0.00898134
0.00898134
0.00898133
0.00898133
0.00898133
0.00898133
0.00898133
0.00898133
0.00898133
0.00898133
0.00898133
0.00898133
0.00898133
0.00898133
0.00898134
0.00898135
0.00898135
0.00898137
0.00898138
0.0089814
0.00898141
0.00898143
0.00898146
0.00898148
0.0089815
0.00898151
0.00898153
0.00898154
0.00898155
0.00898156
0.00898156
0.00898156
0.00898155
0.00898154
0.00898153
0.00898151
0.00898148
0.00898145
0.00898141
0.00898138
0.00898134
0.0089813
0.00898126
0.00898124
0.00898121
0.00898119
0.00898118
0.00898117
0.00898117
0.00898117
0.00898118
0.00898118
0.00898119
0.00898121
0.00898122
0.00898125
0.00898132
0.00896438
0.000480371
0.000501357
0.000501814
0.000501818
0.000501816
0.000501821
0.000501827
0.000501835
0.000501846
0.00050186
0.000501877
0.000501898
0.000501921
0.000501948
0.000501976
0.000502005
0.000502035
0.000502065
0.000502093
0.00050212
0.000502143
0.000502164
0.000502181
0.000502194
0.000502205
0.000502212
0.000502218
0.000502221
0.000502223
0.000502224
0.000502224
0.000502224
0.000502224
0.000502223
0.000502222
0.000502221
0.000502219
0.000502217
0.000502214
0.000502212
0.00050221
0.000502208
0.000502206
0.000502205
0.000502204
0.000502203
0.000502203
0.000502202
0.000502202
0.000502202
0.000502202
0.000502202
0.000502202
0.000502203
0.000502203
0.000502204
0.000502205
0.000502207
0.000502209
0.000502211
0.000502214
0.000502217
0.00050222
0.000502223
0.000502225
0.000502227
0.000502229
0.000502229
0.00050223
0.00050223
0.00050223
0.000502229
0.000502227
0.000502224
0.00050222
0.000502212
0.000502202
0.000502189
0.000502171
0.000502151
0.000502127
0.0005021
0.000502071
0.000502041
0.00050201
0.000501979
0.00050195
0.000501923
0.000501899
0.000501877
0.000501859
0.000501845
0.000501833
0.000501825
0.000501818
0.000501813
0.000501815
0.00050181
0.000501352
0.000480327
3.402e-06
3.40121e-06
3.39948e-06
3.39771e-06
3.39624e-06
3.3956e-06
3.39539e-06
3.39554e-06
3.39612e-06
3.39758e-06
3.39981e-06
3.40308e-06
3.40663e-06
3.41044e-06
3.41361e-06
3.41616e-06
3.41773e-06
3.41859e-06
3.4189e-06
3.41896e-06
3.41893e-06
3.4188e-06
3.41847e-06
3.41792e-06
3.41716e-06
3.41626e-06
3.41531e-06
3.41441e-06
3.41361e-06
3.41297e-06
3.4125e-06
3.41218e-06
3.41198e-06
3.41188e-06
3.41183e-06
3.41181e-06
3.41181e-06
3.41181e-06
3.41183e-06
3.41185e-06
3.41188e-06
3.41191e-06
3.41194e-06
3.41197e-06
3.41198e-06
3.412e-06
3.412e-06
3.41201e-06
3.41201e-06
3.41201e-06
3.41201e-06
3.41201e-06
3.41201e-06
3.41201e-06
3.412e-06
3.41199e-06
3.41197e-06
3.41195e-06
3.41192e-06
3.41189e-06
3.41186e-06
3.41183e-06
3.41182e-06
3.41181e-06
3.41181e-06
3.41183e-06
3.41189e-06
3.41201e-06
3.41223e-06
3.41257e-06
3.41308e-06
3.41373e-06
3.41454e-06
3.41544e-06
3.41638e-06
3.41726e-06
3.41801e-06
3.41854e-06
3.41887e-06
3.419e-06
3.41903e-06
3.41897e-06
3.41867e-06
3.41782e-06
3.41626e-06
3.41371e-06
3.41054e-06
3.40675e-06
3.40321e-06
3.39999e-06
3.3978e-06
3.39639e-06
3.39584e-06
3.39571e-06
3.39594e-06
3.39663e-06
3.39814e-06
3.39997e-06
3.40173e-06
3.40255e-06
3.40098e-07
4.33918e-07
4.47858e-07
4.51846e-07
4.54516e-07
4.57633e-07
4.60985e-07
4.64415e-07
4.67739e-07
4.70775e-07
4.73376e-07
4.75447e-07
4.76965e-07
4.77972e-07
4.78563e-07
4.78857e-07
4.7897e-07
4.78992e-07
4.78963e-07
4.78882e-07
4.78731e-07
4.78499e-07
4.78182e-07
4.77787e-07
4.77322e-07
4.768e-07
4.76235e-07
4.75647e-07
4.75052e-07
4.74472e-07
4.73923e-07
4.73422e-07
4.72979e-07
4.72601e-07
4.72288e-07
4.72038e-07
4.71844e-07
4.717e-07
4.71595e-07
4.71523e-07
4.71474e-07
4.71443e-07
4.71424e-07
4.71413e-07
4.71407e-07
4.71404e-07
4.71403e-07
4.71402e-07
4.71402e-07
4.71402e-07
4.71402e-07
4.71402e-07
4.71402e-07
4.71403e-07
4.71405e-07
4.71408e-07
4.71415e-07
4.71427e-07
4.71447e-07
4.71479e-07
4.71529e-07
4.71604e-07
4.71711e-07
4.71858e-07
4.72055e-07
4.72309e-07
4.72625e-07
4.73006e-07
4.73452e-07
4.73956e-07
4.74506e-07
4.75087e-07
4.75681e-07
4.76269e-07
4.76831e-07
4.77351e-07
4.77814e-07
4.78207e-07
4.78521e-07
4.78752e-07
4.78902e-07
4.78983e-07
4.79012e-07
4.7899e-07
4.78876e-07
4.7858e-07
4.77985e-07
4.76972e-07
4.75447e-07
4.73369e-07
4.70762e-07
4.6772e-07
4.64392e-07
4.6096e-07
4.57606e-07
4.54489e-07
4.51819e-07
4.47831e-07
4.33894e-07
3.40086e-07
2.66855e-07
2.76068e-07
2.7624e-07
2.76442e-07
2.7665e-07
2.76869e-07
2.77098e-07
2.7734e-07
2.77593e-07
2.77854e-07
2.78122e-07
2.78395e-07
2.78668e-07
2.78939e-07
2.79206e-07
2.79467e-07
2.79719e-07
2.79961e-07
2.80191e-07
2.80407e-07
2.80609e-07
2.80795e-07
2.80966e-07
2.81121e-07
2.8126e-07
2.81385e-07
2.81495e-07
2.81591e-07
2.81675e-07
2.81746e-07
2.81805e-07
2.81855e-07
2.81895e-07
2.81927e-07
2.81952e-07
2.81971e-07
2.81985e-07
2.81995e-07
2.82002e-07
2.82006e-07
2.82009e-07
2.82011e-07
2.82012e-07
2.82013e-07
2.82013e-07
2.82013e-07
2.82013e-07
2.82013e-07
2.82013e-07
2.82013e-07
2.82013e-07
2.82013e-07
2.82013e-07
2.82013e-07
2.82013e-07
2.82013e-07
2.82013e-07
2.82012e-07
2.82011e-07
2.82009e-07
2.82006e-07
2.82002e-07
2.81995e-07
2.81985e-07
2.8197e-07
2.81951e-07
2.81926e-07
2.81894e-07
2.81854e-07
2.81804e-07
2.81744e-07
2.81673e-07
2.8159e-07
2.81493e-07
2.81383e-07
2.81259e-07
2.81119e-07
2.80964e-07
2.80794e-07
2.80608e-07
2.80407e-07
2.80192e-07
2.79962e-07
2.79721e-07
2.7947e-07
2.79211e-07
2.78945e-07
2.78675e-07
2.78403e-07
2.78132e-07
2.77865e-07
2.77605e-07
2.77353e-07
2.77112e-07
2.76883e-07
2.76665e-07
2.76457e-07
2.76255e-07
2.76084e-07
2.66891e-07
5.73488e-08
6.02054e-08
6.02731e-08
6.03411e-08
6.04198e-08
6.051e-08
6.06114e-08
6.07235e-08
6.08448e-08
6.09734e-08
6.1107e-08
6.12431e-08
6.13791e-08
6.15124e-08
6.1641e-08
6.1763e-08
6.18769e-08
6.19817e-08
6.20767e-08
6.21615e-08
6.22363e-08
6.23014e-08
6.23573e-08
6.24047e-08
6.24445e-08
6.24774e-08
6.25044e-08
6.25262e-08
6.25435e-08
6.25572e-08
6.25678e-08
6.25758e-08
6.25817e-08
6.2586e-08
6.25888e-08
6.25907e-08
6.25917e-08
6.25921e-08
6.2592e-08
6.25917e-08
6.25914e-08
6.25909e-08
6.25905e-08
6.25902e-08
6.25899e-08
6.25898e-08
6.25897e-08
6.25896e-08
6.25896e-08
6.25896e-08
6.25896e-08
6.25896e-08
6.25896e-08
6.25897e-08
6.25898e-08
6.25899e-08
6.25902e-08
6.25905e-08
6.25909e-08
6.25914e-08
6.25918e-08
6.2592e-08
6.25921e-08
6.25917e-08
6.25907e-08
6.25888e-08
6.25859e-08
6.25817e-08
6.25757e-08
6.25677e-08
6.25571e-08
6.25434e-08
6.2526e-08
6.25041e-08
6.24771e-08
6.24441e-08
6.24042e-08
6.23567e-08
6.23008e-08
6.22357e-08
6.2161e-08
6.20763e-08
6.19817e-08
6.18773e-08
6.1764e-08
6.16428e-08
6.1515e-08
6.13826e-08
6.12477e-08
6.11125e-08
6.09798e-08
6.08519e-08
6.07311e-08
6.06194e-08
6.05181e-08
6.04279e-08
6.03489e-08
6.02806e-08
6.02113e-08
5.73239e-08
0.00362206
0.00364636
0.00364638
0.00364627
0.0036461
0.00364584
0.00364547
0.00364499
0.0036444
0.00364373
0.003643
0.00364224
0.0036415
0.0036408
0.00364016
0.0036396
0.00363911
0.00363871
0.00363836
0.00363808
0.00363784
0.00363763
0.00363743
0.00363724
0.00363705
0.00363686
0.00363667
0.00363648
0.00363628
0.00363608
0.00363588
0.00363568
0.00363549
0.0036353
0.00363512
0.00363496
0.00363481
0.00363468
0.00363457
0.00363448
0.0036344
0.00363434
0.00363429
0.00363425
0.00363422
0.00363419
0.00363417
0.00363415
0.00363412
0.00363409
0.00363405
0.003634
0.00363395
0.00363389
0.00363382
0.00363374
0.00363366
0.00363359
0.00363351
0.00363345
0.00363341
0.00363338
0.00363337
0.00363338
0.00363341
0.00363347
0.00363355
0.00363365
0.00363375
0.00363387
0.003634
0.00363414
0.00363429
0.00363446
0.00363467
0.00363491
0.00363521
0.00363557
0.00363601
0.00363655
0.0036372
0.00363799
0.00363892
0.00364002
0.00364128
0.0036427
0.00364424
0.00364587
0.00364751
0.00364911
0.00365058
0.00365187
0.00365295
0.0036538
0.00365444
0.0036549
0.0036552
0.00365548
0.00365562
0.00364433
0.00511026
0.00526999
0.00527253
0.00527253
0.00527245
0.00527221
0.00527172
0.00527089
0.00526971
0.00526817
0.00526632
0.00526421
0.00526194
0.00525958
0.00525721
0.0052549
0.00525272
0.00525071
0.00524891
0.00524733
0.00524597
0.00524483
0.00524387
0.00524308
0.00524243
0.0052419
0.00524146
0.00524109
0.00524079
0.00524053
0.00524031
0.00524012
0.00523995
0.00523981
0.00523968
0.00523957
0.00523948
0.0052394
0.00523932
0.00523926
0.0052392
0.00523916
0.00523911
0.00523907
0.00523903
0.00523899
0.00523893
0.00523884
0.00523873
0.00523859
0.00523839
0.00523814
0.00523784
0.00523746
0.00523702
0.00523653
0.00523599
0.00523543
0.00523486
0.0052343
0.00523379
0.00523333
0.00523295
0.00523263
0.00523239
0.00523221
0.00523209
0.005232
0.00523195
0.00523192
0.00523192
0.00523194
0.00523199
0.0052321
0.00523232
0.0052327
0.00523332
0.00523424
0.00523555
0.00523735
0.00523972
0.00524274
0.00524645
0.00525087
0.00525595
0.00526159
0.00526761
0.00527379
0.00527988
0.0052856
0.00529072
0.00529502
0.0052984
0.00530081
0.00530233
0.0053031
0.00530338
0.00530342
0.00530195
0.00517364
0.0168176
0.0168517
0.0168516
0.0168515
0.0168513
0.0168509
0.0168506
0.0168502
0.0168498
0.0168496
0.0168494
0.0168493
0.0168493
0.0168494
0.0168496
0.0168498
0.0168501
0.0168505
0.0168508
0.0168513
0.0168517
0.0168521
0.0168525
0.0168529
0.0168533
0.0168537
0.016854
0.0168543
0.0168545
0.0168547
0.0168549
0.016855
0.0168551
0.0168552
0.0168553
0.0168554
0.0168554
0.0168554
0.0168555
0.0168555
0.0168555
0.0168555
0.0168556
0.0168556
0.0168556
0.0168556
0.0168556
0.0168556
0.0168557
0.0168557
0.0168558
0.0168558
0.0168559
0.016856
0.0168561
0.0168563
0.0168564
0.0168566
0.0168567
0.0168569
0.016857
0.0168571
0.0168572
0.0168572
0.0168572
0.0168572
0.0168572
0.0168571
0.016857
0.0168569
0.0168568
0.0168566
0.0168564
0.0168561
0.0168557
0.0168551
0.0168545
0.0168536
0.0168526
0.0168515
0.0168503
0.0168489
0.0168476
0.0168463
0.016845
0.0168438
0.0168427
0.0168418
0.016841
0.0168405
0.0168401
0.0168399
0.0168397
0.0168397
0.0168398
0.0168399
0.0168399
0.01684
0.0168399
0.0167699
0.0290926
0.029093
0.0290929
0.0290929
0.0290927
0.0290925
0.0290922
0.0290919
0.0290915
0.0290911
0.0290907
0.0290905
0.0290902
0.0290901
0.02909
0.0290899
0.0290899
0.0290899
0.0290899
0.0290899
0.0290899
0.0290899
0.0290899
0.02909
0.02909
0.02909
0.02909
0.02909
0.02909
0.02909
0.02909
0.02909
0.02909
0.02909
0.02909
0.0290899
0.0290899
0.0290899
0.0290899
0.0290899
0.0290899
0.0290899
0.0290899
0.0290899
0.0290899
0.0290899
0.0290899
0.0290899
0.0290899
0.0290899
0.0290898
0.0290898
0.0290898
0.0290898
0.0290898
0.0290898
0.0290899
0.0290899
0.0290899
0.0290899
0.0290899
0.0290899
0.0290899
0.0290899
0.0290899
0.02909
0.02909
0.02909
0.02909
0.02909
0.02909
0.0290899
0.0290899
0.0290899
0.0290898
0.0290898
0.0290897
0.0290897
0.0290896
0.0290895
0.0290895
0.0290894
0.0290894
0.0290894
0.0290894
0.0290895
0.0290896
0.0290898
0.02909
0.0290903
0.0290907
0.029091
0.0290914
0.0290917
0.029092
0.0290921
0.0290923
0.0290923
0.0290923
0.029092
0.00897702
0.00899061
0.00899054
0.00899051
0.0089905
0.00899049
0.00899049
0.00899049
0.00899049
0.00899049
0.0089905
0.00899051
0.00899053
0.00899055
0.00899058
0.00899062
0.00899066
0.0089907
0.00899074
0.00899078
0.00899081
0.00899084
0.00899087
0.00899088
0.0089909
0.0089909
0.00899091
0.00899091
0.0089909
0.0089909
0.00899089
0.00899087
0.00899086
0.00899085
0.00899083
0.00899081
0.0089908
0.00899078
0.00899077
0.00899075
0.00899074
0.00899074
0.00899073
0.00899072
0.00899072
0.00899072
0.00899072
0.00899072
0.00899072
0.00899072
0.00899072
0.00899072
0.00899072
0.00899072
0.00899072
0.00899072
0.00899072
0.00899073
0.00899073
0.00899074
0.00899075
0.00899076
0.00899078
0.0089908
0.00899081
0.00899083
0.00899085
0.00899086
0.00899088
0.00899089
0.0089909
0.0089909
0.00899091
0.00899091
0.0089909
0.0089909
0.00899088
0.00899086
0.00899084
0.00899081
0.00899077
0.00899073
0.00899069
0.00899065
0.00899061
0.00899057
0.00899053
0.00899051
0.00899049
0.00899048
0.00899047
0.00899046
0.00899046
0.00899046
0.00899047
0.00899048
0.00899049
0.00899051
0.00899058
0.00897682
0.000480444
0.00050117
0.000501615
0.000501618
0.000501614
0.000501617
0.000501623
0.000501632
0.000501643
0.000501657
0.000501674
0.000501695
0.000501718
0.000501744
0.000501772
0.000501802
0.000501832
0.000501862
0.00050189
0.000501916
0.00050194
0.000501961
0.000501978
0.000501992
0.000502002
0.00050201
0.000502015
0.000502019
0.000502021
0.000502022
0.000502022
0.000502022
0.000502022
0.000502021
0.00050202
0.000502019
0.000502017
0.000502015
0.000502013
0.00050201
0.000502008
0.000502006
0.000502005
0.000502003
0.000502002
0.000502002
0.000502001
0.000502001
0.000502001
0.000502001
0.000502001
0.000502001
0.000502001
0.000502001
0.000502002
0.000502002
0.000502003
0.000502005
0.000502006
0.000502009
0.000502011
0.000502014
0.000502016
0.000502019
0.000502021
0.000502022
0.000502023
0.000502024
0.000502024
0.000502024
0.000502024
0.000502023
0.000502021
0.000502018
0.000502013
0.000502006
0.000501996
0.000501983
0.000501966
0.000501946
0.000501922
0.000501896
0.000501868
0.000501838
0.000501808
0.000501778
0.00050175
0.000501723
0.000501699
0.000501679
0.000501661
0.000501647
0.000501636
0.000501627
0.000501621
0.000501618
0.000501622
0.000501619
0.000501171
0.000480379
3.46307e-06
3.46239e-06
3.46101e-06
3.45939e-06
3.45808e-06
3.45733e-06
3.45713e-06
3.45751e-06
3.45857e-06
3.46044e-06
3.46316e-06
3.46654e-06
3.47028e-06
3.47393e-06
3.47713e-06
3.4796e-06
3.48126e-06
3.4822e-06
3.48261e-06
3.48272e-06
3.48265e-06
3.48242e-06
3.48199e-06
3.48135e-06