/*--------------------------------*- C++ -*----------------------------------*\
| =========                 |                                                 |
| \\      /  F ield         | OpenFOAM: The Open Source CFD Toolbox           |
|  \\    /   O peration     | Version:  2406                                  |
|   \\  /    A nd           | Website:  www.openfoam.com                      |
|    \\/     M anipulation  |                                                 |
\*---------------------------------------------------------------------------*/
FoamFile
{
    version     2.0;
    format      ascii;
    arch        "LSB;label=32;scalar=64";
    class       volVectorField;
    location    "0.002";
    object      U;
}
// * * * * * * * * * * * * * * * * * * * * * * * * * * * * * * * * * * * * * //

dimensions      [0 1 -1 0 0 0 0];

internalField   nonuniform List<vector> 
81000
(
(-0.0284125 1.23869 0)
(-0.0282276 1.26363 0)
(-0.0282304 1.26388 0)
(-0.0282314 1.26388 0)
(-0.0282313 1.26387 0)
(-0.0282309 1.26385 0)
(-0.0282299 1.26379 0)
(-0.0282278 1.26369 0)
(-0.0282238 1.26355 0)
(-0.0282172 1.26338 0)
(-0.028207 1.26318 0)
(-0.028193 1.26299 0)
(-0.0281756 1.26281 0)
(-0.028156 1.26264 0)
(-0.028136 1.2625 0)
(-0.028117 1.26239 0)
(-0.0280995 1.26229 0)
(-0.0280837 1.26222 0)
(-0.0280693 1.26217 0)
(-0.0280582 1.26213 0)
(-0.0280402 1.2621 0)
(-0.0280282 1.26208 0)
(-0.028018 1.26206 0)
(-0.0280169 1.26204 0)
(-0.0280091 1.26202 0)
(-0.0280061 1.262 0)
(-0.0280019 1.26197 0)
(-0.0279986 1.26194 0)
(-0.0279958 1.26191 0)
(-0.0279933 1.26187 0)
(-0.0279913 1.26183 0)
(-0.0279897 1.26178 0)
(-0.0279884 1.26174 0)
(-0.0279873 1.26169 0)
(-0.0279864 1.26164 0)
(-0.0279855 1.26159 0)
(-0.0279846 1.26155 0)
(-0.0279836 1.26151 0)
(-0.0279825 1.26148 0)
(-0.0279812 1.26145 0)
(-0.0279799 1.26142 0)
(-0.0279785 1.2614 0)
(-0.0279772 1.26139 0)
(-0.027976 1.26138 0)
(-0.0279751 1.26137 0)
(-0.0279748 1.26136 0)
(-0.0279748 1.26136 0)
(-0.0279748 1.26136 0)
(-0.0279749 1.26136 0)
(-0.0279751 1.26136 0)
(-0.0279753 1.26136 0)
(-0.0279758 1.26137 0)
(-0.0279764 1.26137 0)
(-0.0279772 1.26138 0)
(-0.0279783 1.2614 0)
(-0.0279796 1.26142 0)
(-0.0279811 1.26144 0)
(-0.027983 1.26147 0)
(-0.027985 1.26151 0)
(-0.0279872 1.26155 0)
(-0.0279896 1.2616 0)
(-0.0279922 1.26165 0)
(-0.0279952 1.26171 0)
(-0.0279985 1.26177 0)
(-0.0280022 1.26183 0)
(-0.028006 1.26188 0)
(-0.0280094 1.26193 0)
(-0.0280124 1.26197 0)
(-0.0280149 1.262 0)
(-0.0280168 1.26203 0)
(-0.0280184 1.26204 0)
(-0.0280197 1.26204 0)
(-0.0280206 1.26204 0)
(-0.0280218 1.26204 0)
(-0.028024 1.26203 0)
(-0.0280277 1.26201 0)
(-0.0280333 1.26198 0)
(-0.0280412 1.26194 0)
(-0.0280514 1.26189 0)
(-0.0280634 1.26185 0)
(-0.0280763 1.26181 0)
(-0.0280897 1.26179 0)
(-0.0281045 1.26178 0)
(-0.0281212 1.26179 0)
(-0.0281392 1.26181 0)
(-0.0281606 1.26186 0)
(-0.0281862 1.26194 0)
(-0.0282156 1.26205 0)
(-0.0282476 1.2622 0)
(-0.0282801 1.26237 0)
(-0.0283106 1.26255 0)
(-0.0283367 1.26273 0)
(-0.0283573 1.26288 0)
(-0.0283721 1.26299 0)
(-0.0283819 1.26307 0)
(-0.0283874 1.26311 0)
(-0.0283899 1.26313 0)
(-0.0283906 1.26313 0)
(-0.0283927 1.26306 0)
(-0.0281119 1.24997 0)
(-0.214603 1.67535 0)
(-0.214932 1.78705 0)
(-0.214965 1.79083 0)
(-0.214951 1.79096 0)
(-0.214927 1.79096 0)
(-0.2149 1.79094 0)
(-0.214875 1.7909 0)
(-0.214847 1.79082 0)
(-0.214812 1.79069 0)
(-0.214771 1.7905 0)
(-0.214725 1.79027 0)
(-0.214675 1.78998 0)
(-0.214627 1.78967 0)
(-0.214582 1.78935 0)
(-0.214544 1.78905 0)
(-0.21451 1.78878 0)
(-0.214481 1.78857 0)
(-0.214456 1.78841 0)
(-0.214437 1.78831 0)
(-0.214422 1.78826 0)
(-0.21441 1.78823 0)
(-0.214397 1.78822 0)
(-0.214386 1.78824 0)
(-0.214373 1.78827 0)
(-0.214359 1.78833 0)
(-0.214345 1.7884 0)
(-0.214332 1.78848 0)
(-0.214321 1.78855 0)
(-0.214311 1.78862 0)
(-0.214303 1.78867 0)
(-0.214296 1.78872 0)
(-0.214291 1.78875 0)
(-0.214287 1.78877 0)
(-0.214284 1.78878 0)
(-0.214282 1.78879 0)
(-0.21428 1.78879 0)
(-0.214278 1.78879 0)
(-0.214277 1.78878 0)
(-0.214275 1.78878 0)
(-0.214274 1.78877 0)
(-0.214273 1.78877 0)
(-0.214273 1.78876 0)
(-0.214272 1.78876 0)
(-0.214272 1.78876 0)
(-0.214272 1.78876 0)
(-0.214273 1.78876 0)
(-0.214273 1.78876 0)
(-0.214273 1.78877 0)
(-0.214274 1.78879 0)
(-0.214275 1.78881 0)
(-0.214276 1.78886 0)
(-0.214278 1.78892 0)
(-0.21428 1.78901 0)
(-0.214283 1.78912 0)
(-0.214287 1.78927 0)
(-0.214291 1.78945 0)
(-0.214297 1.78967 0)
(-0.214303 1.78992 0)
(-0.214311 1.7902 0)
(-0.214319 1.79049 0)
(-0.214326 1.7908 0)
(-0.214334 1.79109 0)
(-0.214339 1.79135 0)
(-0.214343 1.79158 0)
(-0.214345 1.79177 0)
(-0.214345 1.79192 0)
(-0.214342 1.79202 0)
(-0.214338 1.79208 0)
(-0.214332 1.79212 0)
(-0.214326 1.79213 0)
(-0.214316 1.79214 0)
(-0.214303 1.79212 0)
(-0.214283 1.79208 0)
(-0.214254 1.79198 0)
(-0.214217 1.79181 0)
(-0.214176 1.79157 0)
(-0.214135 1.79125 0)
(-0.214095 1.79085 0)
(-0.214057 1.79039 0)
(-0.214021 1.78987 0)
(-0.213989 1.78934 0)
(-0.213963 1.78884 0)
(-0.213942 1.78849 0)
(-0.213926 1.78832 0)
(-0.213919 1.78829 0)
(-0.213916 1.78832 0)
(-0.213919 1.78843 0)
(-0.213928 1.78865 0)
(-0.213946 1.78897 0)
(-0.213974 1.78937 0)
(-0.214016 1.78981 0)
(-0.21407 1.79025 0)
(-0.214133 1.79065 0)
(-0.214201 1.79098 0)
(-0.214273 1.79122 0)
(-0.214341 1.79136 0)
(-0.214406 1.79144 0)
(-0.214463 1.79146 0)
(-0.214629 1.79098 0)
(-0.216465 1.75094 0)
(-0.278415 -5.76871 0)
(-0.278635 -5.76705 0)
(-0.278661 -5.76699 0)
(-0.278749 -5.7668 0)
(-0.278917 -5.76646 0)
(-0.279156 -5.76605 0)
(-0.279441 -5.76563 0)
(-0.279689 -5.76523 0)
(-0.279856 -5.76484 0)
(-0.279975 -5.76447 0)
(-0.280068 -5.76412 0)
(-0.280143 -5.7638 0)
(-0.280205 -5.76349 0)
(-0.280257 -5.76321 0)
(-0.280298 -5.76295 0)
(-0.280331 -5.76274 0)
(-0.280357 -5.76255 0)
(-0.280375 -5.76241 0)
(-0.280385 -5.7623 0)
(-0.280389 -5.76221 0)
(-0.280389 -5.76215 0)
(-0.280388 -5.76212 0)
(-0.280387 -5.7621 0)
(-0.280386 -5.76209 0)
(-0.280384 -5.76209 0)
(-0.280381 -5.7621 0)
(-0.280375 -5.76211 0)
(-0.280367 -5.76214 0)
(-0.280356 -5.76218 0)
(-0.280345 -5.76221 0)
(-0.280334 -5.76224 0)
(-0.280326 -5.76227 0)
(-0.280322 -5.76229 0)
(-0.28032 -5.76231 0)
(-0.28032 -5.76232 0)
(-0.280319 -5.76233 0)
(-0.280319 -5.76234 0)
(-0.280319 -5.76235 0)
(-0.280319 -5.76236 0)
(-0.280319 -5.76237 0)
(-0.280319 -5.76238 0)
(-0.28032 -5.76238 0)
(-0.28032 -5.76238 0)
(-0.280321 -5.76238 0)
(-0.280321 -5.76238 0)
(-0.280322 -5.76238 0)
(-0.280323 -5.76238 0)
(-0.280325 -5.76238 0)
(-0.280328 -5.76237 0)
(-0.280333 -5.76236 0)
(-0.280339 -5.76235 0)
(-0.280346 -5.76233 0)
(-0.280356 -5.7623 0)
(-0.280367 -5.76226 0)
(-0.280381 -5.76221 0)
(-0.280397 -5.76215 0)
(-0.280416 -5.76207 0)
(-0.280437 -5.76198 0)
(-0.28046 -5.76188 0)
(-0.280485 -5.76177 0)
(-0.280511 -5.76165 0)
(-0.280538 -5.76152 0)
(-0.280566 -5.7614 0)
(-0.280595 -5.76129 0)
(-0.280624 -5.76119 0)
(-0.280655 -5.7611 0)
(-0.28069 -5.76102 0)
(-0.28073 -5.76095 0)
(-0.280765 -5.7609 0)
(-0.280787 -5.76085 0)
(-0.280797 -5.76082 0)
(-0.280799 -5.7608 0)
(-0.280796 -5.76079 0)
(-0.280789 -5.76079 0)
(-0.280777 -5.76079 0)
(-0.280757 -5.76082 0)
(-0.280726 -5.76089 0)
(-0.28068 -5.76099 0)
(-0.280617 -5.76114 0)
(-0.280535 -5.76135 0)
(-0.280426 -5.76162 0)
(-0.280289 -5.76196 0)
(-0.280123 -5.76237 0)
(-0.279941 -5.76285 0)
(-0.279742 -5.7634 0)
(-0.27953 -5.76399 0)
(-0.279305 -5.76463 0)
(-0.279076 -5.76527 0)
(-0.278844 -5.7659 0)
(-0.278616 -5.76649 0)
(-0.278394 -5.76701 0)
(-0.278189 -5.76745 0)
(-0.278001 -5.7678 0)
(-0.277841 -5.76807 0)
(-0.277712 -5.76826 0)
(-0.277619 -5.7684 0)
(-0.277559 -5.76849 0)
(-0.277547 -5.76856 0)
(-0.277375 -5.76859 0)
(-0.274 -5.75687 0)
(0.229527 -9.98909 0)
(0.225051 -9.9889 0)
(0.225005 -9.98881 0)
(0.224971 -9.98876 0)
(0.224981 -9.98871 0)
(0.22498 -9.98864 0)
(0.224976 -9.98855 0)
(0.224972 -9.98844 0)
(0.224968 -9.98831 0)
(0.224966 -9.98818 0)
(0.224967 -9.98805 0)
(0.224971 -9.98792 0)
(0.224977 -9.98781 0)
(0.224984 -9.98773 0)
(0.224991 -9.98766 0)
(0.224997 -9.98762 0)
(0.225003 -9.98759 0)
(0.225011 -9.98757 0)
(0.225023 -9.98757 0)
(0.225036 -9.98757 0)
(0.225051 -9.98757 0)
(0.225067 -9.98758 0)
(0.225084 -9.98758 0)
(0.2251 -9.98759 0)
(0.225117 -9.98759 0)
(0.225132 -9.9876 0)
(0.225147 -9.9876 0)
(0.22516 -9.9876 0)
(0.225172 -9.9876 0)
(0.225182 -9.98761 0)
(0.225192 -9.98761 0)
(0.2252 -9.98761 0)
(0.225208 -9.98761 0)
(0.225214 -9.98761 0)
(0.22522 -9.98761 0)
(0.225224 -9.9876 0)
(0.225228 -9.9876 0)
(0.225231 -9.9876 0)
(0.225234 -9.98759 0)
(0.225236 -9.98759 0)
(0.225237 -9.98759 0)
(0.225238 -9.98759 0)
(0.225239 -9.98758 0)
(0.22524 -9.98758 0)
(0.225241 -9.98758 0)
(0.225241 -9.98758 0)
(0.225241 -9.98758 0)
(0.225242 -9.98758 0)
(0.225242 -9.98758 0)
(0.225242 -9.98758 0)
(0.225242 -9.98758 0)
(0.225242 -9.98758 0)
(0.225243 -9.98758 0)
(0.225243 -9.98758 0)
(0.225243 -9.98758 0)
(0.225243 -9.98758 0)
(0.225243 -9.98758 0)
(0.225243 -9.98758 0)
(0.225242 -9.98758 0)
(0.225242 -9.98758 0)
(0.22524 -9.98758 0)
(0.225239 -9.98758 0)
(0.225237 -9.98759 0)
(0.225234 -9.98759 0)
(0.22523 -9.98759 0)
(0.225226 -9.98759 0)
(0.22522 -9.98759 0)
(0.225213 -9.98758 0)
(0.225205 -9.98758 0)
(0.225195 -9.98757 0)
(0.225184 -9.98756 0)
(0.225172 -9.98755 0)
(0.225159 -9.98754 0)
(0.225146 -9.98753 0)
(0.225133 -9.98752 0)
(0.225119 -9.98751 0)
(0.225105 -9.9875 0)
(0.22509 -9.9875 0)
(0.225075 -9.9875 0)
(0.22506 -9.9875 0)
(0.225047 -9.98752 0)
(0.225036 -9.98755 0)
(0.225027 -9.98759 0)
(0.22502 -9.98765 0)
(0.225013 -9.98773 0)
(0.225007 -9.98783 0)
(0.225002 -9.98796 0)
(0.224997 -9.98811 0)
(0.224994 -9.98828 0)
(0.224994 -9.98845 0)
(0.224996 -9.98863 0)
(0.225002 -9.9888 0)
(0.225008 -9.98896 0)
(0.225013 -9.9891 0)
(0.225017 -9.98921 0)
(0.225016 -9.98929 0)
(0.225001 -9.98935 0)
(0.225041 -9.98941 0)
(0.225091 -9.98952 0)
(0.229845 -9.98982 0)
(0.180823 -3.07967 0)
(0.177467 -3.08536 0)
(0.177407 -3.08534 0)
(0.177407 -3.08533 0)
(0.177402 -3.08532 0)
(0.177398 -3.08532 0)
(0.177394 -3.08532 0)
(0.177391 -3.08532 0)
(0.177387 -3.08532 0)
(0.177384 -3.08532 0)
(0.177382 -3.08532 0)
(0.17738 -3.08532 0)
(0.177379 -3.08533 0)
(0.177379 -3.08533 0)
(0.177378 -3.08534 0)
(0.177379 -3.08535 0)
(0.17738 -3.08536 0)
(0.177381 -3.08538 0)
(0.177383 -3.08539 0)
(0.177385 -3.0854 0)
(0.177388 -3.08541 0)
(0.177391 -3.08543 0)
(0.177394 -3.08543 0)
(0.177398 -3.08544 0)
(0.177402 -3.08545 0)
(0.177406 -3.08545 0)
(0.17741 -3.08545 0)
(0.177414 -3.08545 0)
(0.177418 -3.08545 0)
(0.177422 -3.08545 0)
(0.177426 -3.08545 0)
(0.177429 -3.08544 0)
(0.177432 -3.08544 0)
(0.177434 -3.08543 0)
(0.177436 -3.08543 0)
(0.177438 -3.08542 0)
(0.17744 -3.08542 0)
(0.177441 -3.08541 0)
(0.177442 -3.08541 0)
(0.177443 -3.0854 0)
(0.177444 -3.0854 0)
(0.177445 -3.0854 0)
(0.177445 -3.08539 0)
(0.177445 -3.08539 0)
(0.177445 -3.08539 0)
(0.177445 -3.08539 0)
(0.177445 -3.08539 0)
(0.177445 -3.08539 0)
(0.177445 -3.08539 0)
(0.177445 -3.08539 0)
(0.177445 -3.08539 0)
(0.177445 -3.08539 0)
(0.177445 -3.08539 0)
(0.177445 -3.08539 0)
(0.177445 -3.08539 0)
(0.177444 -3.08539 0)
(0.177444 -3.0854 0)
(0.177443 -3.0854 0)
(0.177442 -3.0854 0)
(0.177441 -3.08541 0)
(0.17744 -3.08541 0)
(0.177439 -3.08542 0)
(0.177437 -3.08543 0)
(0.177436 -3.08543 0)
(0.177433 -3.08544 0)
(0.177431 -3.08545 0)
(0.177428 -3.08546 0)
(0.177425 -3.08546 0)
(0.177422 -3.08547 0)
(0.177418 -3.08547 0)
(0.177415 -3.08548 0)
(0.177411 -3.08548 0)
(0.177407 -3.08548 0)
(0.177403 -3.08548 0)
(0.1774 -3.08547 0)
(0.177397 -3.08547 0)
(0.177393 -3.08546 0)
(0.177391 -3.08545 0)
(0.177388 -3.08544 0)
(0.177386 -3.08543 0)
(0.177385 -3.08542 0)
(0.177384 -3.0854 0)
(0.177383 -3.08539 0)
(0.177384 -3.08537 0)
(0.177384 -3.08536 0)
(0.177386 -3.08535 0)
(0.177388 -3.08534 0)
(0.17739 -3.08533 0)
(0.177394 -3.08533 0)
(0.177398 -3.08532 0)
(0.177402 -3.08532 0)
(0.177407 -3.08532 0)
(0.177411 -3.08532 0)
(0.177416 -3.08533 0)
(0.177421 -3.08533 0)
(0.177426 -3.08533 0)
(0.17743 -3.08534 0)
(0.17743 -3.08535 0)
(0.177487 -3.08538 0)
(0.180959 -3.07983 0)
(0.0102414 -0.165408 0)
(0.0110226 -0.172512 0)
(0.0110578 -0.172663 0)
(0.0110697 -0.172664 0)
(0.011073 -0.172663 0)
(0.0110742 -0.172665 0)
(0.0110759 -0.172667 0)
(0.0110776 -0.17267 0)
(0.0110796 -0.172674 0)
(0.0110817 -0.172678 0)
(0.0110839 -0.172684 0)
(0.0110863 -0.172691 0)
(0.0110888 -0.172699 0)
(0.0110914 -0.172709 0)
(0.0110939 -0.172718 0)
(0.0110964 -0.172728 0)
(0.0110988 -0.172739 0)
(0.0111011 -0.172749 0)
(0.0111031 -0.172759 0)
(0.0111049 -0.172768 0)
(0.0111065 -0.172776 0)
(0.0111078 -0.172783 0)
(0.011109 -0.172789 0)
(0.0111099 -0.172794 0)
(0.0111106 -0.172797 0)
(0.0111112 -0.1728 0)
(0.0111116 -0.172802 0)
(0.0111119 -0.172803 0)
(0.0111122 -0.172804 0)
(0.0111124 -0.172804 0)
(0.0111125 -0.172804 0)
(0.0111126 -0.172804 0)
(0.0111127 -0.172804 0)
(0.0111128 -0.172804 0)
(0.0111129 -0.172804 0)
(0.011113 -0.172803 0)
(0.0111131 -0.172802 0)
(0.0111131 -0.172802 0)
(0.0111132 -0.172801 0)
(0.0111132 -0.1728 0)
(0.0111133 -0.172799 0)
(0.0111133 -0.172798 0)
(0.0111133 -0.172798 0)
(0.0111133 -0.172797 0)
(0.0111133 -0.172797 0)
(0.0111133 -0.172797 0)
(0.0111133 -0.172797 0)
(0.0111133 -0.172797 0)
(0.0111133 -0.172797 0)
(0.0111133 -0.172797 0)
(0.0111133 -0.172797 0)
(0.0111133 -0.172797 0)
(0.0111133 -0.172797 0)
(0.0111133 -0.172797 0)
(0.0111133 -0.172797 0)
(0.0111133 -0.172797 0)
(0.0111133 -0.172798 0)
(0.0111133 -0.172798 0)
(0.0111133 -0.172799 0)
(0.0111133 -0.1728 0)
(0.0111133 -0.172801 0)
(0.0111132 -0.172802 0)
(0.0111132 -0.172804 0)
(0.0111131 -0.172805 0)
(0.011113 -0.172806 0)
(0.0111129 -0.172806 0)
(0.0111128 -0.172807 0)
(0.0111127 -0.172807 0)
(0.0111126 -0.172807 0)
(0.0111125 -0.172807 0)
(0.0111124 -0.172807 0)
(0.0111122 -0.172807 0)
(0.011112 -0.172807 0)
(0.0111117 -0.172805 0)
(0.0111112 -0.172804 0)
(0.0111107 -0.172801 0)
(0.0111099 -0.172797 0)
(0.011109 -0.172792 0)
(0.0111079 -0.172786 0)
(0.0111065 -0.172779 0)
(0.0111049 -0.172771 0)
(0.0111031 -0.172761 0)
(0.0111011 -0.172751 0)
(0.0110988 -0.17274 0)
(0.0110964 -0.172729 0)
(0.0110939 -0.172718 0)
(0.0110913 -0.172708 0)
(0.0110887 -0.172698 0)
(0.0110862 -0.172689 0)
(0.0110838 -0.172682 0)
(0.0110816 -0.172676 0)
(0.0110795 -0.17267 0)
(0.0110776 -0.172666 0)
(0.0110758 -0.172663 0)
(0.0110742 -0.172661 0)
(0.011073 -0.172659 0)
(0.0110696 -0.17266 0)
(0.0110575 -0.172659 0)
(0.0110225 -0.172507 0)
(0.0102417 -0.165395 0)
(-0.0001533 0.001134 0)
(-0.000153279 0.00113374 0)
(-0.000153225 0.00113323 0)
(-0.000153146 0.00113266 0)
(-0.000153068 0.00113224 0)
(-0.000153009 0.00113204 0)
(-0.000152976 0.001132 0)
(-0.000152944 0.00113202 0)
(-0.000152892 0.00113218 0)
(-0.000152813 0.00113261 0)
(-0.000152713 0.00113336 0)
(-0.000152598 0.00113444 0)
(-0.000152479 0.00113572 0)
(-0.000152364 0.00113705 0)
(-0.000152263 0.00113823 0)
(-0.000152179 0.00113916 0)
(-0.000152116 0.00113976 0)
(-0.000152071 0.00114008 0)
(-0.000152045 0.00114021 0)
(-0.000152033 0.00114024 0)
(-0.00015202 0.00114023 0)
(-0.000152011 0.0011402 0)
(-0.000151996 0.0011401 0)
(-0.000151979 0.00113994 0)
(-0.00015196 0.0011397 0)
(-0.000151941 0.00113941 0)
(-0.000151923 0.00113909 0)
(-0.000151907 0.00113878 0)
(-0.000151895 0.0011385 0)
(-0.000151886 0.00113828 0)
(-0.000151882 0.00113811 0)
(-0.00015188 0.00113799 0)
(-0.000151881 0.00113792 0)
(-0.000151883 0.00113788 0)
(-0.000151885 0.00113786 0)
(-0.000151888 0.00113786 0)
(-0.000151891 0.00113786 0)
(-0.000151894 0.00113786 0)
(-0.000151898 0.00113786 0)
(-0.000151902 0.00113787 0)
(-0.000151907 0.00113788 0)
(-0.000151913 0.00113789 0)
(-0.000151918 0.0011379 0)
(-0.000151922 0.00113791 0)
(-0.000151926 0.00113792 0)
(-0.000151929 0.00113793 0)
(-0.000151931 0.00113793 0)
(-0.000151932 0.00113793 0)
(-0.000151933 0.00113793 0)
(-0.000151933 0.00113793 0)
(-0.000151933 0.00113793 0)
(-0.000151933 0.00113793 0)
(-0.000151932 0.00113793 0)
(-0.000151931 0.00113793 0)
(-0.000151929 0.00113793 0)
(-0.000151927 0.00113793 0)
(-0.000151924 0.00113793 0)
(-0.00015192 0.00113793 0)
(-0.000151916 0.00113792 0)
(-0.000151911 0.00113792 0)
(-0.000151906 0.00113791 0)
(-0.000151901 0.00113791 0)
(-0.000151896 0.00113791 0)
(-0.000151891 0.00113791 0)
(-0.000151886 0.00113792 0)
(-0.000151882 0.00113793 0)
(-0.000151879 0.00113796 0)
(-0.000151878 0.00113802 0)
(-0.000151878 0.00113811 0)
(-0.000151881 0.00113824 0)
(-0.000151887 0.00113842 0)
(-0.000151897 0.00113866 0)
(-0.00015191 0.00113894 0)
(-0.000151926 0.00113924 0)
(-0.000151944 0.00113955 0)
(-0.000151963 0.00113982 0)
(-0.000151982 0.00114004 0)
(-0.000151998 0.00114019 0)
(-0.00015201 0.00114027 0)
(-0.000152019 0.0011403 0)
(-0.000152033 0.0011403 0)
(-0.000152047 0.00114027 0)
(-0.000152076 0.00114012 0)
(-0.000152123 0.00113977 0)
(-0.000152189 0.00113914 0)
(-0.000152276 0.00113819 0)
(-0.000152379 0.00113699 0)
(-0.000152496 0.00113565 0)
(-0.000152616 0.00113437 0)
(-0.000152732 0.0011333 0)
(-0.000152832 0.00113257 0)
(-0.000152911 0.00113217 0)
(-0.000152962 0.00113202 0)
(-0.000152994 0.00113199 0)
(-0.000153028 0.00113205 0)
(-0.000153088 0.00113225 0)
(-0.000153168 0.00113269 0)
(-0.000153248 0.00113327 0)
(-0.000153303 0.0011338 0)
(-0.000153324 0.00113407 0)
(-4.60616e-05 0.00010575 0)
(-4.72285e-05 0.000138262 0)
(-4.58038e-05 0.000143243 0)
(-4.68274e-05 0.000144446 0)
(-4.67522e-05 0.000145653 0)
(-4.67486e-05 0.000146922 0)
(-4.67595e-05 0.00014822 0)
(-4.67716e-05 0.0001495 0)
(-4.67793e-05 0.000150705 0)
(-4.67799e-05 0.000151776 0)
(-4.67721e-05 0.000152664 0)
(-4.67568e-05 0.00015334 0)
(-4.6737e-05 0.000153803 0)
(-4.67165e-05 0.000154079 0)
(-4.6699e-05 0.000154217 0)
(-4.66865e-05 0.000154267 0)
(-4.66789e-05 0.000154278 0)
(-4.66718e-05 0.000154273 0)
(-4.66611e-05 0.000154251 0)
(-4.66447e-05 0.0001542 0)
(-4.66233e-05 0.000154117 0)
(-4.65977e-05 0.000154002 0)
(-4.65703e-05 0.00015386 0)
(-4.65434e-05 0.000153696 0)
(-4.65187e-05 0.000153515 0)
(-4.64959e-05 0.000153319 0)
(-4.64743e-05 0.000153115 0)
(-4.64535e-05 0.000152906 0)
(-4.64338e-05 0.000152698 0)
(-4.64154e-05 0.000152495 0)
(-4.63989e-05 0.000152304 0)
(-4.63844e-05 0.000152128 0)
(-4.63722e-05 0.000151973 0)
(-4.63623e-05 0.00015184 0)
(-4.63543e-05 0.00015173 0)
(-4.63481e-05 0.000151642 0)
(-4.63431e-05 0.000151575 0)
(-4.63392e-05 0.000151524 0)
(-4.63362e-05 0.000151488 0)
(-4.63337e-05 0.000151463 0)
(-4.63319e-05 0.000151447 0)
(-4.63305e-05 0.000151437 0)
(-4.63295e-05 0.000151431 0)
(-4.63289e-05 0.000151427 0)
(-4.63285e-05 0.000151426 0)
(-4.63283e-05 0.000151425 0)
(-4.63282e-05 0.000151424 0)
(-4.63281e-05 0.000151424 0)
(-4.63281e-05 0.000151424 0)
(-4.63281e-05 0.000151424 0)
(-4.63281e-05 0.000151424 0)
(-4.63281e-05 0.000151424 0)
(-4.63281e-05 0.000151424 0)
(-4.63282e-05 0.000151425 0)
(-4.63283e-05 0.000151425 0)
(-4.63285e-05 0.000151426 0)
(-4.63289e-05 0.000151428 0)
(-4.63296e-05 0.000151432 0)
(-4.63306e-05 0.000151439 0)
(-4.6332e-05 0.000151449 0)
(-4.63339e-05 0.000151467 0)
(-4.63364e-05 0.000151492 0)
(-4.63395e-05 0.00015153 0)
(-4.63434e-05 0.000151581 0)
(-4.63484e-05 0.000151651 0)
(-4.63547e-05 0.00015174 0)
(-4.63627e-05 0.000151851 0)
(-4.63727e-05 0.000151986 0)
(-4.63849e-05 0.000152142 0)
(-4.63994e-05 0.000152318 0)
(-4.6416e-05 0.00015251 0)
(-4.64344e-05 0.000152713 0)
(-4.64541e-05 0.000152921 0)
(-4.64749e-05 0.000153129 0)
(-4.64965e-05 0.000153333 0)
(-4.65193e-05 0.000153526 0)
(-4.6544e-05 0.000153706 0)
(-4.65707e-05 0.000153868 0)
(-4.6598e-05 0.000154008 0)
(-4.66234e-05 0.000154121 0)
(-4.66448e-05 0.000154202 0)
(-4.6661e-05 0.000154252 0)
(-4.66718e-05 0.000154274 0)
(-4.66792e-05 0.000154278 0)
(-4.66869e-05 0.000154267 0)
(-4.66996e-05 0.000154215 0)
(-4.67173e-05 0.000154075 0)
(-4.67378e-05 0.000153794 0)
(-4.67576e-05 0.000153327 0)
(-4.67728e-05 0.000152646 0)
(-4.67804e-05 0.000151754 0)
(-4.67797e-05 0.00015068 0)
(-4.67718e-05 0.000149472 0)
(-4.67598e-05 0.000148191 0)
(-4.67491e-05 0.000146892 0)
(-4.6753e-05 0.000145623 0)
(-4.68282e-05 0.000144417 0)
(-4.58052e-05 0.000143215 0)
(-4.72278e-05 0.000138237 0)
(-4.60615e-05 0.000105735 0)
(-7.12562e-06 -9.17967e-05 0)
(-7.4076e-06 -9.52117e-05 0)
(-7.24529e-06 -9.52891e-05 0)
(-7.24909e-06 -9.53584e-05 0)
(-7.23953e-06 -9.54295e-05 0)
(-7.22808e-06 -9.55043e-05 0)
(-7.21646e-06 -9.55832e-05 0)
(-7.2044e-06 -9.56663e-05 0)
(-7.19146e-06 -9.57536e-05 0)
(-7.17728e-06 -9.58445e-05 0)
(-7.16169e-06 -9.59383e-05 0)
(-7.1448e-06 -9.60341e-05 0)
(-7.12702e-06 -9.61308e-05 0)
(-7.10912e-06 -9.62272e-05 0)
(-7.09211e-06 -9.63224e-05 0)
(-7.07706e-06 -9.64153e-05 0)
(-7.06475e-06 -9.65052e-05 0)
(-7.05535e-06 -9.65912e-05 0)
(-7.04839e-06 -9.66727e-05 0)
(-7.04303e-06 -9.67492e-05 0)
(-7.03857e-06 -9.68204e-05 0)
(-7.03456e-06 -9.68861e-05 0)
(-7.03081e-06 -9.69463e-05 0)
(-7.02722e-06 -9.70011e-05 0)
(-7.02375e-06 -9.70504e-05 0)
(-7.02041e-06 -9.70944e-05 0)
(-7.01722e-06 -9.71334e-05 0)
(-7.01421e-06 -9.71675e-05 0)
(-7.01139e-06 -9.7197e-05 0)
(-7.00878e-06 -9.72222e-05 0)
(-7.00638e-06 -9.72434e-05 0)
(-7.00418e-06 -9.72609e-05 0)
(-7.0022e-06 -9.72752e-05 0)
(-7.00041e-06 -9.72866e-05 0)
(-6.99882e-06 -9.72955e-05 0)
(-6.99741e-06 -9.73022e-05 0)
(-6.99617e-06 -9.73072e-05 0)
(-6.99509e-06 -9.73109e-05 0)
(-6.99417e-06 -9.73134e-05 0)
(-6.99339e-06 -9.73151e-05 0)
(-6.99274e-06 -9.73162e-05 0)
(-6.99222e-06 -9.73169e-05 0)
(-6.99182e-06 -9.73172e-05 0)
(-6.99153e-06 -9.73174e-05 0)
(-6.99134e-06 -9.73175e-05 0)
(-6.99122e-06 -9.73176e-05 0)
(-6.99116e-06 -9.73176e-05 0)
(-6.99112e-06 -9.73176e-05 0)
(-6.99111e-06 -9.73176e-05 0)
(-6.99111e-06 -9.73176e-05 0)
(-6.99111e-06 -9.73176e-05 0)
(-6.99111e-06 -9.73176e-05 0)
(-6.99112e-06 -9.73176e-05 0)
(-6.99115e-06 -9.73176e-05 0)
(-6.99122e-06 -9.73176e-05 0)
(-6.99134e-06 -9.73175e-05 0)
(-6.99153e-06 -9.73174e-05 0)
(-6.99182e-06 -9.73172e-05 0)
(-6.99222e-06 -9.73169e-05 0)
(-6.99274e-06 -9.73162e-05 0)
(-6.9934e-06 -9.73151e-05 0)
(-6.99419e-06 -9.73134e-05 0)
(-6.99513e-06 -9.73108e-05 0)
(-6.99622e-06 -9.73072e-05 0)
(-6.99748e-06 -9.73021e-05 0)
(-6.99891e-06 -9.72953e-05 0)
(-7.00052e-06 -9.72864e-05 0)
(-7.00232e-06 -9.7275e-05 0)
(-7.00433e-06 -9.72606e-05 0)
(-7.00654e-06 -9.7243e-05 0)
(-7.00895e-06 -9.72218e-05 0)
(-7.01158e-06 -9.71965e-05 0)
(-7.01441e-06 -9.7167e-05 0)
(-7.01743e-06 -9.71329e-05 0)
(-7.02063e-06 -9.70939e-05 0)
(-7.02397e-06 -9.70499e-05 0)
(-7.02743e-06 -9.70006e-05 0)
(-7.03102e-06 -9.6946e-05 0)
(-7.03475e-06 -9.68859e-05 0)
(-7.03873e-06 -9.68203e-05 0)
(-7.04316e-06 -9.67493e-05 0)
(-7.04847e-06 -9.6673e-05 0)
(-7.05539e-06 -9.65918e-05 0)
(-7.06473e-06 -9.65061e-05 0)
(-7.07699e-06 -9.64167e-05 0)
(-7.092e-06 -9.63242e-05 0)
(-7.10895e-06 -9.62294e-05 0)
(-7.12679e-06 -9.61334e-05 0)
(-7.1445e-06 -9.60373e-05 0)
(-7.16133e-06 -9.59419e-05 0)
(-7.17685e-06 -9.58486e-05 0)
(-7.19096e-06 -9.57581e-05 0)
(-7.20384e-06 -9.56712e-05 0)
(-7.21586e-06 -9.55884e-05 0)
(-7.22744e-06 -9.55097e-05 0)
(-7.23888e-06 -9.54352e-05 0)
(-7.24846e-06 -9.53642e-05 0)
(-7.24474e-06 -9.52949e-05 0)
(-7.4068e-06 -9.52178e-05 0)
(-7.12464e-06 -9.18096e-05 0)
(-1.1273e-06 -1.96754e-05 0)
(-1.14942e-06 -2.07016e-05 0)
(-1.09573e-06 -2.07296e-05 0)
(-1.09889e-06 -2.07531e-05 0)
(-1.09943e-06 -2.07804e-05 0)
(-1.09853e-06 -2.08115e-05 0)
(-1.09656e-06 -2.08467e-05 0)
(-1.09365e-06 -2.08856e-05 0)
(-1.08992e-06 -2.09279e-05 0)
(-1.08547e-06 -2.0973e-05 0)
(-1.08044e-06 -2.102e-05 0)
(-1.07502e-06 -2.10682e-05 0)
(-1.06943e-06 -2.11166e-05 0)
(-1.06395e-06 -2.11645e-05 0)
(-1.05887e-06 -2.12109e-05 0)
(-1.05445e-06 -2.12554e-05 0)
(-1.05076e-06 -2.12972e-05 0)
(-1.04777e-06 -2.1336e-05 0)
(-1.04529e-06 -2.13715e-05 0)
(-1.04317e-06 -2.14036e-05 0)
(-1.04128e-06 -2.1432e-05 0)
(-1.03955e-06 -2.14569e-05 0)
(-1.03795e-06 -2.14785e-05 0)
(-1.03645e-06 -2.14969e-05 0)
(-1.03505e-06 -2.15124e-05 0)
(-1.03372e-06 -2.15252e-05 0)
(-1.03245e-06 -2.15357e-05 0)
(-1.03125e-06 -2.15442e-05 0)
(-1.0301e-06 -2.1551e-05 0)
(-1.029e-06 -2.15564e-05 0)
(-1.02796e-06 -2.15606e-05 0)
(-1.02697e-06 -2.15638e-05 0)
(-1.02603e-06 -2.15661e-05 0)
(-1.02516e-06 -2.15679e-05 0)
(-1.02435e-06 -2.15691e-05 0)
(-1.02362e-06 -2.157e-05 0)
(-1.02296e-06 -2.15705e-05 0)
(-1.02238e-06 -2.15708e-05 0)
(-1.02188e-06 -2.15709e-05 0)
(-1.02148e-06 -2.15709e-05 0)
(-1.02115e-06 -2.15709e-05 0)
(-1.0209e-06 -2.15708e-05 0)
(-1.02072e-06 -2.15707e-05 0)
(-1.02058e-06 -2.15706e-05 0)
(-1.02049e-06 -2.15705e-05 0)
(-1.02043e-06 -2.15705e-05 0)
(-1.0204e-06 -2.15705e-05 0)
(-1.02038e-06 -2.15704e-05 0)
(-1.02037e-06 -2.15704e-05 0)
(-1.02037e-06 -2.15704e-05 0)
(-1.02037e-06 -2.15704e-05 0)
(-1.02037e-06 -2.15704e-05 0)
(-1.02038e-06 -2.15704e-05 0)
(-1.0204e-06 -2.15705e-05 0)
(-1.02043e-06 -2.15705e-05 0)
(-1.02049e-06 -2.15705e-05 0)
(-1.02058e-06 -2.15706e-05 0)
(-1.02072e-06 -2.15707e-05 0)
(-1.02091e-06 -2.15708e-05 0)
(-1.02116e-06 -2.15709e-05 0)
(-1.02148e-06 -2.15709e-05 0)
(-1.02189e-06 -2.15709e-05 0)
(-1.02239e-06 -2.15708e-05 0)
(-1.02297e-06 -2.15705e-05 0)
(-1.02363e-06 -2.157e-05 0)
(-1.02437e-06 -2.15691e-05 0)
(-1.02517e-06 -2.15679e-05 0)
(-1.02605e-06 -2.15661e-05 0)
(-1.02698e-06 -2.15637e-05 0)
(-1.02796e-06 -2.15605e-05 0)
(-1.029e-06 -2.15563e-05 0)
(-1.0301e-06 -2.1551e-05 0)
(-1.03124e-06 -2.15441e-05 0)
(-1.03244e-06 -2.15356e-05 0)
(-1.03369e-06 -2.1525e-05 0)
(-1.03501e-06 -2.15122e-05 0)
(-1.0364e-06 -2.14967e-05 0)
(-1.03787e-06 -2.14783e-05 0)
(-1.03945e-06 -2.14567e-05 0)
(-1.04115e-06 -2.14318e-05 0)
(-1.04301e-06 -2.14034e-05 0)
(-1.0451e-06 -2.13715e-05 0)
(-1.04752e-06 -2.13362e-05 0)
(-1.05046e-06 -2.12976e-05 0)
(-1.05409e-06 -2.1256e-05 0)
(-1.05849e-06 -2.12119e-05 0)
(-1.06355e-06 -2.11658e-05 0)
(-1.06903e-06 -2.11184e-05 0)
(-1.07465e-06 -2.10703e-05 0)
(-1.08011e-06 -2.10225e-05 0)
(-1.08517e-06 -2.09758e-05 0)
(-1.08966e-06 -2.0931e-05 0)
(-1.09344e-06 -2.08889e-05 0)
(-1.09637e-06 -2.08501e-05 0)
(-1.09837e-06 -2.0815e-05 0)
(-1.09928e-06 -2.07838e-05 0)
(-1.09874e-06 -2.07565e-05 0)
(-1.09538e-06 -2.07329e-05 0)
(-1.14964e-06 -2.07041e-05 0)
(-1.12713e-06 -1.96644e-05 0)
(-0.0237653 1.24095 0)
(-0.0238626 1.25932 0)
(-0.0238788 1.25946 0)
(-0.0238791 1.25946 0)
(-0.0238791 1.25944 0)
(-0.0238789 1.2594 0)
(-0.0238784 1.25932 0)
(-0.0238772 1.2592 0)
(-0.0238742 1.25903 0)
(-0.0238678 1.25884 0)
(-0.0238568 1.25864 0)
(-0.0238407 1.25844 0)
(-0.0238199 1.25826 0)
(-0.023796 1.2581 0)
(-0.0237706 1.25797 0)
(-0.0237461 1.25786 0)
(-0.0237233 1.25778 0)
(-0.0237028 1.25771 0)
(-0.023684 1.25766 0)
(-0.0236695 1.25762 0)
(-0.0236486 1.2576 0)
(-0.0236357 1.25757 0)
(-0.0236224 1.25754 0)
(-0.0236183 1.25751 0)
(-0.0236084 1.25749 0)
(-0.0236028 1.25746 0)
(-0.0235968 1.25742 0)
(-0.023592 1.25738 0)
(-0.0235879 1.25734 0)
(-0.0235846 1.25729 0)
(-0.0235821 1.25724 0)
(-0.0235801 1.25718 0)
(-0.0235787 1.25713 0)
(-0.0235776 1.25707 0)
(-0.0235766 1.25702 0)
(-0.0235758 1.25697 0)
(-0.0235748 1.25692 0)
(-0.0235737 1.25688 0)
(-0.0235725 1.25684 0)
(-0.0235712 1.25681 0)
(-0.0235698 1.25679 0)
(-0.0235684 1.25677 0)
(-0.0235669 1.25675 0)
(-0.0235656 1.25674 0)
(-0.0235645 1.25673 0)
(-0.0235637 1.25673 0)
(-0.0235631 1.25673 0)
(-0.0235627 1.25673 0)
(-0.0235623 1.25672 0)
(-0.0235619 1.25672 0)
(-0.0235616 1.25672 0)
(-0.0235611 1.25672 0)
(-0.0235606 1.25673 0)
(-0.0235599 1.25673 0)
(-0.0235589 1.25674 0)
(-0.0235578 1.25675 0)
(-0.0235565 1.25677 0)
(-0.0235551 1.25679 0)
(-0.0235535 1.25682 0)
(-0.023552 1.25685 0)
(-0.0235507 1.25689 0)
(-0.0235496 1.25694 0)
(-0.0235489 1.25699 0)
(-0.0235488 1.25705 0)
(-0.0235492 1.25711 0)
(-0.0235497 1.25717 0)
(-0.02355 1.25723 0)
(-0.0235498 1.25728 0)
(-0.0235492 1.25733 0)
(-0.0235485 1.25737 0)
(-0.0235482 1.25741 0)
(-0.0235488 1.25744 0)
(-0.0235506 1.25746 0)
(-0.0235536 1.25749 0)
(-0.0235571 1.25751 0)
(-0.0235619 1.25754 0)
(-0.0235691 1.25756 0)
(-0.0235798 1.25759 0)
(-0.0235928 1.25763 0)
(-0.0236079 1.25767 0)
(-0.0236254 1.25774 0)
(-0.0236453 1.25782 0)
(-0.0236678 1.25794 0)
(-0.0236931 1.25808 0)
(-0.0237208 1.25826 0)
(-0.0237516 1.25849 0)
(-0.0237859 1.25875 0)
(-0.0238224 1.25904 0)
(-0.0238588 1.25937 0)
(-0.0238924 1.2597 0)
(-0.0239208 1.26003 0)
(-0.0239428 1.26034 0)
(-0.0239587 1.2606 0)
(-0.0239694 1.2608 0)
(-0.0239757 1.26093 0)
(-0.023978 1.26101 0)
(-0.023978 1.26104 0)
(-0.0239778 1.26105 0)
(-0.0239544 1.26102 0)
(-0.0233121 1.25139 0)
(-0.215364 1.70821 0)
(-0.21606 1.78987 0)
(-0.215959 1.79187 0)
(-0.215935 1.79191 0)
(-0.215929 1.79191 0)
(-0.215916 1.79188 0)
(-0.215893 1.79179 0)
(-0.215859 1.79164 0)
(-0.215814 1.79139 0)
(-0.215759 1.79106 0)
(-0.215696 1.79064 0)
(-0.215631 1.79016 0)
(-0.215568 1.78963 0)
(-0.215512 1.78909 0)
(-0.215466 1.78855 0)
(-0.215429 1.78805 0)
(-0.2154 1.78759 0)
(-0.215378 1.78719 0)
(-0.215362 1.78684 0)
(-0.215349 1.78656 0)
(-0.21534 1.78634 0)
(-0.215332 1.78616 0)
(-0.215324 1.78604 0)
(-0.215316 1.78594 0)
(-0.215308 1.78588 0)
(-0.2153 1.78584 0)
(-0.215291 1.78581 0)
(-0.215282 1.78579 0)
(-0.215273 1.78578 0)
(-0.215266 1.78577 0)
(-0.21526 1.78576 0)
(-0.215256 1.78575 0)
(-0.215253 1.78574 0)
(-0.21525 1.78573 0)
(-0.215248 1.78571 0)
(-0.215246 1.7857 0)
(-0.215243 1.78568 0)
(-0.215241 1.78567 0)
(-0.21524 1.78565 0)
(-0.215238 1.78564 0)
(-0.215237 1.78563 0)
(-0.215237 1.78562 0)
(-0.215236 1.78561 0)
(-0.215236 1.7856 0)
(-0.215237 1.78559 0)
(-0.215238 1.78559 0)
(-0.215239 1.78558 0)
(-0.21524 1.78557 0)
(-0.215241 1.78557 0)
(-0.215242 1.78556 0)
(-0.215244 1.78556 0)
(-0.215246 1.78555 0)
(-0.215249 1.78555 0)
(-0.215253 1.78556 0)
(-0.215259 1.78557 0)
(-0.215266 1.7856 0)
(-0.215276 1.78564 0)
(-0.215287 1.78569 0)
(-0.215301 1.78576 0)
(-0.215315 1.78585 0)
(-0.21533 1.78594 0)
(-0.215344 1.78603 0)
(-0.215356 1.78612 0)
(-0.215366 1.7862 0)
(-0.215374 1.78628 0)
(-0.215379 1.78633 0)
(-0.215381 1.78638 0)
(-0.215381 1.78642 0)
(-0.215378 1.78644 0)
(-0.215371 1.78646 0)
(-0.215359 1.78647 0)
(-0.215339 1.78647 0)
(-0.215311 1.78646 0)
(-0.215276 1.78643 0)
(-0.215234 1.78639 0)
(-0.215193 1.78636 0)
(-0.215152 1.78635 0)
(-0.215113 1.78638 0)