/*--------------------------------*- C++ -*----------------------------------*\
| =========                 |                                                 |
| \\      /  F ield         | OpenFOAM: The Open Source CFD Toolbox           |
|  \\    /   O peration     | Version:  2406                                  |
|   \\  /    A nd           | Website:  www.openfoam.com                      |
|    \\/     M anipulation  |                                                 |
\*---------------------------------------------------------------------------*/
FoamFile
{
    version     2.0;
    format      ascii;
    arch        "LSB;label=32;scalar=64";
    class       volScalarField;
    location    "0.01";
    object      Ma;
}
// * * * * * * * * * * * * * * * * * * * * * * * * * * * * * * * * * * * * * //

dimensions      [0 0 0 0 0 0 0];

internalField   nonuniform List<scalar> 
13948
(
8.90662e-15
1.68679e-14
1.57173e-14
2.27193e-14
8.61682e-15
2.16822e-14
2.0182e-14
1.96703e-14
2.00894e-14
3.29319e-14
2.99916e-14
3.12246e-14
2.71459e-14
4.98999e-14
5.69472e-14
3.42626e-14
1.87024e-14
7.57821e-15
1.47612e-14
2.17765e-14
1.23046e-14
1.63072e-14
8.79341e-15
1.96293e-14
2.60749e-14
2.34863e-14
3.96748e-14
1.82366e-14
2.83624e-14
4.33801e-14
7.13264e-14
3.88294e-14
8.41206e-15
2.29489e-14
1.78773e-14
2.00328e-14
2.04328e-14
8.79591e-15
1.75236e-14
3.61878e-14
1.58157e-14
2.34231e-14
1.62056e-14
1.6408e-14
6.5592e-15
2.15188e-14
2.80374e-14
3.40296e-14
2.81021e-14
3.95646e-14
4.05562e-14
3.97867e-14
5.32687e-14
5.14951e-14
5.06453e-14
4.16893e-14
1.94973e-14
4.42613e-15
1.99159e-14
2.51289e-14
3.58384e-14
4.49254e-14
3.69523e-14
3.32628e-14
3.64723e-14
1.76643e-14
2.23728e-14
2.66619e-14
2.34675e-14
3.1252e-14
3.88559e-14
3.88467e-14
6.90502e-14
5.98956e-14
4.92444e-14
6.85335e-14
7.14659e-14
4.2526e-14
4.89165e-14
5.67275e-14
5.89956e-14
6.10006e-14
4.87279e-14
4.23378e-14
5.13095e-14
5.789e-14
4.7019e-14
4.77046e-14
4.31839e-14
4.89148e-14
6.06788e-14
5.60509e-14
3.1634e-14
2.22197e-14
4.23195e-14
2.97806e-14
2.48654e-14
6.10722e-15
2.93954e-14
1.26273e-14
1.38368e-14
2.09149e-14
1.02432e-14
1.48361e-14
1.52145e-14
3.17977e-14
2.79598e-14
2.39293e-14
2.39424e-14
3.31458e-14
2.77374e-14
3.51342e-14
2.01811e-14
3.76732e-14
4.71094e-14
3.45545e-14
2.02999e-14
1.82982e-14
1.13698e-14
1.47817e-14
1.07895e-14
1.82723e-14
1.93221e-14
2.94939e-14
3.27429e-14
2.59303e-14
2.88122e-14
2.2301e-14
3.22201e-14
4.31161e-14
6.17159e-14
3.74319e-14
1.07924e-14
1.64443e-14
4.91656e-15
1.51511e-14
2.49771e-14
1.30406e-14
2.14466e-14
2.85087e-14
1.39562e-14
2.10159e-14
2.11932e-14
1.94942e-14
9.64961e-15
2.61099e-14
2.19588e-14
2.55414e-14
1.86312e-14
3.1747e-14
2.87244e-14
3.6537e-14
5.53308e-14
4.9373e-14
5.29168e-14
4.54771e-14
1.96432e-14
1.54332e-14
1.29764e-14
1.91681e-14
1.99071e-14
3.30173e-14
2.53724e-14
2.38714e-14
2.29622e-14
9.16566e-15
1.48396e-14
2.33109e-14
2.43646e-14
3.03437e-14
3.00309e-14
2.82688e-14
4.67628e-14
4.80253e-14
4.94184e-14
6.1327e-14
5.5257e-14
3.68937e-14
4.15002e-14
5.73222e-14
5.89083e-14
5.00077e-14
3.64529e-14
3.39812e-14
5.11306e-14
4.99389e-14
4.71076e-14
4.43662e-14
2.97688e-14
3.54736e-14
4.36919e-14
3.93451e-14
1.90061e-14
2.23695e-14
3.1776e-14
2.07803e-14
2.16939e-14
1.40172e-14
3.09383e-14
1.87026e-14
1.95705e-14
2.42781e-14
2.04883e-14
1.41596e-14
1.19895e-14
1.16751e-14
1.56201e-14
1.84512e-14
1.94037e-14
1.94321e-14
1.61182e-14
1.74541e-14
2.57822e-14
3.19747e-14
3.9277e-14
3.77355e-14
3.25252e-14
2.50441e-14
3.11818e-14
3.01621e-14
3.38469e-14
2.43056e-14
3.0248e-14
3.65848e-14
4.05315e-14
3.25896e-14
3.28553e-14
2.52309e-14
2.22751e-14
2.52987e-14
2.21991e-14
2.70996e-14
3.70166e-14
3.75226e-14
3.67543e-14
3.44579e-14
3.11102e-14
3.25621e-14
3.88244e-14
5.37007e-14
3.47643e-14
2.12517e-14
1.8796e-14
1.40979e-14
1.76663e-14
2.1787e-14
1.30504e-14
2.90591e-14
3.75504e-14
2.54825e-14
2.03585e-14
2.09314e-14
2.60488e-14
1.73598e-14
2.44697e-14
1.63556e-14
1.24082e-14
1.49146e-14
2.77273e-14
2.34693e-14
2.0363e-14
3.80367e-14
3.22455e-14
3.00923e-14
2.51173e-14
2.41128e-14
2.7756e-14
2.18269e-14
1.73904e-14
2.63787e-14
2.76713e-14
2.47503e-14
1.74142e-14
3.15851e-15
4.72536e-15
1.80318e-15
1.09805e-14
1.45722e-14
1.52159e-14
1.12428e-14
1.678e-14
1.78842e-14
2.01487e-14
2.66104e-14
3.33664e-14
2.38491e-14
2.03185e-14
2.92068e-14
3.74391e-14
3.61611e-14
2.18179e-14
1.1483e-14
1.9957e-14
3.16584e-14
2.47397e-14
3.0584e-14
2.37983e-14
5.57462e-15
7.73873e-15
1.27698e-14
1.13381e-14
9.70406e-15
5.31066e-15
7.34055e-15
1.20881e-14
1.26139e-14
1.25532e-14
3.57046e-14
1.57771e-14
1.20448e-14
8.56252e-15
1.42836e-14
1.74123e-14
1.8751e-14
2.06193e-14
2.49159e-14
2.99389e-14
4.12456e-14
4.05e-14
3.77258e-14
3.18993e-14
2.30992e-14
1.17893e-14
1.65924e-14
1.61317e-14
2.23762e-14
2.01529e-14
3.01849e-14
3.10491e-14
3.70103e-14
3.17081e-14
2.15132e-14
2.29791e-14
2.93632e-14
2.31819e-14
1.76969e-14
1.61842e-14
1.43104e-14
8.6658e-15
1.28237e-14
1.73387e-14
1.80893e-14
1.34073e-14
6.00747e-15
7.94833e-15
7.59463e-15
7.22761e-15
7.13143e-15
1.3955e-14
1.33501e-14
1.62821e-14
2.03739e-14
2.30773e-14
1.86464e-14
2.46645e-14
3.04777e-14
2.68391e-14
2.63868e-14
2.2845e-14
2.33765e-14
2.07849e-14
2.7064e-14
3.46984e-14
1.75018e-14
1.37072e-14
1.7833e-14
2.3991e-14
2.25046e-14
2.32588e-14
1.88407e-14
1.66383e-14
1.98797e-14
2.1877e-14
1.82516e-14
2.72122e-14
3.11838e-14
3.16482e-14
2.69366e-14
2.32733e-14
3.34035e-14
3.24735e-14
3.23017e-14
2.99352e-14
1.81927e-14
1.59451e-14
1.75639e-14
1.88707e-14
8.46628e-15
1.04543e-14
2.30109e-14
3.10103e-14
2.48337e-14
2.10814e-14
1.44218e-14
1.65123e-14
1.28783e-14
9.89652e-15
9.58653e-15
7.54856e-15
9.73825e-15
1.44466e-14
1.40801e-14
8.75216e-15
1.99037e-14
1.1737e-14
1.31182e-14
1.35731e-14
1.3526e-14
1.46852e-14
1.79697e-14
1.33501e-14
2.96793e-14
3.75758e-14
2.93151e-14
2.35018e-14
1.55976e-14
8.58171e-15
3.24593e-15
7.06557e-15
7.36636e-15
6.90793e-15
1.40776e-14
1.32775e-14
3.6422e-15
3.25664e-15
1.10199e-14
1.3248e-14
7.13003e-15
1.14207e-14
1.37251e-14
1.32464e-14
1.61373e-14
1.106e-14
9.00487e-15
1.16855e-14
8.43875e-15
3.27264e-15
1.49046e-15
6.69836e-15
1.23893e-14
1.31686e-14
1.8997e-14
1.83918e-14
2.10928e-14
1.68957e-14
1.19281e-14
1.81894e-14
1.88518e-14
1.86241e-14
3.65958e-14
8.44718e-15
1.32378e-14
1.16109e-14
7.34779e-15
8.05292e-15
7.64716e-15
1.73798e-14
1.47307e-14
1.91574e-14
2.64952e-14
2.48358e-14
2.9643e-14
3.28341e-14
3.61083e-14
3.41646e-14
2.01132e-14
1.41011e-14
9.2759e-15
1.08067e-14
1.35612e-14
1.87556e-14
2.59357e-14
2.78296e-14
2.63566e-14
2.81341e-14
1.71787e-14
1.86076e-14
2.2555e-14
1.91765e-14
1.78665e-14
1.22482e-14
7.77637e-15
6.5343e-15
7.90841e-15
9.46621e-15
8.63544e-15
4.0383e-15
6.26823e-15
1.7378e-15
4.53295e-15
4.23902e-15
8.1024e-15
9.92394e-15
8.44625e-15
9.80189e-15
1.78979e-14
1.38096e-14
1.3994e-14
1.53522e-14
1.57659e-14
9.65734e-15
1.08859e-14
7.96276e-15
1.1302e-14
3.71192e-15
2.10772e-14
2.46461e-14
1.43968e-14
4.78194e-15
1.29454e-14
1.34549e-14
1.1441e-14
6.34077e-15
5.03307e-15
5.89196e-15
1.11457e-14
1.23681e-14
2.16079e-14
2.82235e-14
2.02946e-14
1.74813e-14
1.75952e-14
1.81138e-14
3.02339e-14
2.30212e-14
1.43436e-14
2.34979e-14
1.08377e-14
1.31038e-14
1.6714e-14
1.37296e-14
4.08858e-15
1.33185e-14
1.44409e-14
1.7007e-14
2.40119e-14
1.70293e-14
3.32813e-15
8.54094e-15
4.49491e-15
9.33934e-15
5.48657e-15
3.65499e-15
6.2761e-15
7.26005e-15
7.48806e-15
4.04915e-15
6.74732e-15
8.00871e-15
9.1945e-15
1.30106e-14
4.65665e-15
2.50295e-15
7.71349e-15
5.54032e-15
2.52802e-14
3.38402e-14
2.77407e-14
1.45775e-14
1.01e-14
1.04113e-14
6.37494e-15
9.13386e-15
1.01902e-14
4.54378e-15
7.05874e-15
4.69519e-15
6.94111e-15
4.48233e-15
1.36747e-14
6.08352e-15
6.57753e-15
1.40549e-14
9.79323e-15
3.81308e-15
1.6113e-14
1.28891e-14
6.49051e-15
1.17289e-14
4.06091e-15
1.20807e-14
1.19188e-14
1.11285e-14
1.47259e-14
1.4562e-14
2.99765e-14
2.37612e-14
1.70615e-14
1.88383e-14
1.91065e-14
2.05447e-14
2.00139e-14
2.3889e-14
3.3977e-14
8.63936e-15
6.82078e-15
1.18021e-14
1.5082e-14
1.85696e-14
1.1343e-14
1.02531e-14
1.42863e-14
8.28727e-15
1.28864e-14
1.71601e-14
1.83431e-14
1.73153e-14
2.14602e-14
2.39309e-14
1.96511e-14
1.16465e-14
6.03072e-15
5.43441e-15
8.1091e-15
1.0285e-14
1.00441e-14
1.35219e-14
1.87149e-14
1.9692e-14
2.3306e-14
1.83134e-14
2.14155e-14
1.90815e-14
1.41204e-14
1.0077e-14
1.03611e-14
1.23263e-14
1.75061e-14
1.3134e-14
1.41592e-14
1.0734e-14
1.38898e-14
9.73038e-15
9.18218e-15
7.19475e-15
1.00039e-14
8.97054e-15
1.62749e-15
1.01849e-14
7.49383e-15
1.48903e-14
1.15406e-14
1.15212e-14
9.22294e-15
7.6716e-15
4.8359e-15
9.13291e-15
9.21675e-15
1.31678e-14
1.1889e-14
8.95406e-15
1.82913e-14
1.79309e-14
1.08881e-14
9.9252e-15
1.36107e-14
9.89868e-15
1.89109e-14
2.13616e-14
1.60532e-14
4.12893e-15
1.70912e-14
2.31705e-14
1.74386e-14
1.48032e-14
1.83976e-14
1.36145e-14
1.6519e-14
1.99554e-14
1.32155e-14
2.2705e-14
2.03701e-14
2.28297e-14
1.32812e-14
6.12858e-15
1.69737e-14
1.17355e-14
1.31682e-14
1.02124e-14
3.41604e-15
1.19184e-14
9.50333e-15
1.35846e-14
7.77651e-15
3.90408e-15
1.05632e-14
9.73503e-15
6.62398e-15
1.18457e-14
1.14442e-14
1.07675e-14
1.12383e-14
6.38924e-15
2.46196e-15
1.06045e-14
1.42547e-14
9.72184e-15
5.68495e-15
1.12172e-14
1.937e-14
9.08037e-15
7.49639e-15
1.12985e-14
9.11229e-15
8.04195e-15
1.36952e-14
1.02086e-14
1.44298e-14
1.20738e-14
1.18605e-14
1.34073e-14
9.77668e-15
4.3108e-15
9.67898e-15
7.16865e-15
6.73642e-15
1.11058e-14
1.20079e-14
1.70776e-14
1.15095e-14
1.81458e-14
1.63928e-14
1.68565e-14
1.25295e-14
5.195e-15
6.35513e-15
8.38302e-15
6.99141e-15
8.64918e-15
7.5654e-15
1.88752e-14
1.49414e-14
1.24924e-14
2.56249e-14
2.21085e-14
1.1766e-14
1.26159e-14
1.76122e-14
2.52616e-14
1.48528e-14
2.10278e-14
2.25765e-14
2.43459e-14
3.11168e-14
2.48674e-14
1.85462e-14
2.38963e-14
1.62589e-14
2.43311e-14
2.48211e-14
2.56775e-14
1.95432e-14
1.38355e-14
1.75377e-14
1.72952e-14
1.08904e-14
6.41465e-15
1.08875e-14
1.58777e-14
1.78193e-14
8.52356e-15
1.18752e-14
1.15235e-14
1.30239e-14
1.44807e-14
1.49269e-14
2.27023e-14
2.58366e-14
2.40671e-14
1.95395e-14
2.32088e-14
2.72374e-14
2.86308e-14
2.61141e-14
2.81467e-14
2.58993e-14
2.14245e-14
2.87888e-14
1.66927e-14
1.93797e-14
1.20072e-14
1.83617e-14
1.32778e-14
9.07293e-15
8.82569e-15
1.53393e-14
8.47201e-15
1.56242e-14
1.53046e-14
1.45925e-14
7.71781e-15
1.46448e-14
1.66572e-14
2.24353e-14
2.33783e-14
2.02147e-14
1.14916e-14
1.97991e-14
2.03671e-14
1.39266e-14
1.26402e-14
1.48717e-14
3.00076e-14
3.38669e-14
3.33772e-14
2.04518e-14
1.61987e-14
2.51742e-14
1.25048e-14
2.84616e-14
3.29794e-14
1.96331e-14
1.482e-14
1.88511e-14
2.09672e-14
2.52815e-14
2.92807e-14
3.46517e-14
3.54802e-14
1.86578e-14
2.23474e-14
1.73093e-14
9.76819e-15
3.24234e-15
2.85873e-15
6.78554e-15
1.68969e-14
1.66971e-14
1.66747e-14
1.74475e-14
1.5105e-14
1.57941e-14
1.38117e-14
1.9048e-14
1.93416e-14
2.09933e-14
2.26747e-14
1.47947e-14
1.82607e-14
2.26152e-14
3.18004e-14
2.56721e-14
1.47537e-14
2.24433e-14
3.35406e-14
2.42505e-14
2.34375e-14
1.29369e-14
2.13946e-14
1.4469e-14
1.18264e-14
9.27106e-15
9.95969e-15
1.56178e-14
2.21042e-14
2.41316e-14
2.3023e-14
1.11172e-14
9.29025e-15
7.63486e-15
9.08899e-15
1.71654e-14
1.75683e-14
2.06635e-14
2.12356e-14
1.29297e-14
1.74306e-14
2.41662e-14
1.92936e-14
1.40305e-14
1.67395e-14
5.51419e-15
1.12539e-14
1.27212e-14
8.38255e-15
6.16388e-15
1.21068e-14
1.25806e-14
1.70336e-14
1.95439e-14
2.54209e-14
2.73688e-14
2.71915e-14
2.42398e-14
8.99176e-15
9.29604e-15
1.03475e-14
1.45759e-14
1.44912e-14
1.21192e-14
1.1472e-14
1.40589e-14
1.14518e-14
1.32806e-14
1.27779e-14
7.54085e-15
7.63128e-15
1.16123e-14
1.12247e-14
8.24054e-15
9.88011e-15
6.13166e-15
1.34117e-14
5.16968e-15
1.6961e-14
9.73475e-15
9.43734e-15
9.09713e-15
8.46998e-15
1.04344e-14
1.47883e-14
1.24493e-14
1.77955e-14
1.38361e-14
1.21279e-14
1.81682e-14
2.48958e-14
1.66311e-14
2.05221e-14
2.01719e-14
2.43029e-14
2.32403e-14
2.67376e-14
1.60714e-14
1.61645e-14
1.24489e-14
9.35796e-15
1.92503e-14
1.86021e-14
1.98212e-14
1.31729e-14
8.92635e-15
6.77567e-15
2.16337e-14
1.41132e-14
8.41236e-15
1.50722e-14
1.52051e-14
9.12643e-15
1.407e-14
1.73121e-14
4.92425e-15
2.94951e-14
2.75098e-14
1.64381e-14
1.09001e-14
1.61311e-14
1.56963e-14
1.41639e-14
2.55355e-14
2.75447e-14
1.95073e-14
2.22967e-14
1.66021e-14
2.57707e-14
2.91906e-14
2.69646e-14
2.25489e-14
2.06625e-14
2.48523e-14
2.44735e-14
2.6873e-14
4.09925e-14
4.05246e-14
1.29416e-14
2.37334e-14
2.17116e-14
1.1599e-14
5.88929e-15
9.42361e-15
1.63012e-14
1.43011e-14
1.83837e-14
1.77195e-14
2.06803e-14
2.21041e-14
1.99493e-14
1.41266e-14
2.17228e-14
2.14697e-14
2.12065e-14
1.11899e-14
1.76215e-14
2.20479e-14
2.47611e-14
4.2748e-14
4.60445e-14
2.69767e-14
2.04667e-14
2.35995e-14
2.42669e-14
1.59114e-14
7.22239e-15
7.56638e-15
1.13737e-14
1.22657e-14
5.26843e-15
1.30895e-14
6.49754e-15
1.02498e-14
7.50553e-15
1.24388e-14
1.6985e-14
6.23072e-15
9.79918e-15
1.22459e-14
1.56119e-14
1.75521e-14
1.88735e-14
2.02606e-14
1.22746e-14
8.03623e-15
1.54869e-14
2.041e-14
1.95616e-14
9.8231e-15
9.72288e-15
2.08773e-15
1.4669e-14
1.52556e-14
1.43474e-14
1.0936e-14
1.72006e-14
9.34737e-15
1.21794e-14
2.71274e-14
2.80364e-14
3.53431e-14
2.65461e-14
9.12316e-15
7.49392e-15
3.64274e-15
4.76481e-15
3.51275e-15
6.77104e-15
6.72832e-15
1.14029e-14
6.89741e-15
1.27241e-14
9.92841e-15
1.01656e-14
1.70428e-14
2.3351e-14
1.30567e-14
7.13768e-15
5.12065e-15
4.6016e-15
5.9741e-15
8.60099e-15
1.07593e-14
8.20453e-15
1.08878e-14
9.71248e-15
7.46542e-15
8.02483e-15
9.92225e-15
2.19279e-15
8.54405e-15
4.45619e-15
4.47122e-15
1.01515e-14
1.03672e-14
7.7484e-15
6.46642e-15
7.87992e-15
9.74679e-15
1.36885e-14
1.5525e-14
1.17056e-14
6.2062e-15
1.10772e-14
4.93683e-15
1.17959e-14
1.23162e-14
7.53085e-15
7.95703e-15
7.50755e-15
4.83173e-15
1.36126e-14
1.24442e-14
7.80623e-15
1.37947e-14
1.68566e-14
1.74918e-14
1.41977e-14
7.10298e-15
1.16031e-14
1.55671e-14
1.32866e-14
1.31638e-14
9.81341e-15
1.37373e-14
5.21219e-15
1.46315e-14
1.89579e-14
1.93295e-14
2.07524e-14
9.34809e-15
6.14551e-15
1.26644e-14
9.72174e-15
9.24239e-15
9.27423e-15
3.87724e-15
9.46039e-15
6.88103e-15
1.2817e-14
2.67973e-14
2.54825e-14
1.09926e-14
1.68188e-14
1.64722e-14
9.58519e-15
9.46715e-15
8.70951e-15
7.56508e-15
1.19701e-14
2.17524e-14
1.79162e-14
1.07286e-14
1.22487e-14
1.20302e-14
9.38024e-15
7.88636e-15
5.83331e-15
7.35743e-15
5.18045e-15
1.25059e-14
1.16408e-14
1.66681e-14
2.81257e-14
2.92462e-14
2.67317e-14
1.50653e-14
1.49708e-14
2.15638e-14
1.32432e-14
1.22096e-14
8.54419e-15
3.44562e-15
2.05981e-15
2.17415e-14
3.40024e-14
2.58956e-14
2.31351e-14
2.82456e-14
2.17579e-14
2.60829e-14
1.80307e-14
1.21195e-14
2.31913e-14
2.53316e-14
2.68113e-14
2.42305e-14
2.78901e-14
2.9827e-14
2.58525e-14
1.79185e-14
2.48468e-14
2.17778e-14
1.84196e-14
1.22989e-14
1.89871e-14
2.19913e-14
1.91084e-14
2.23197e-14
1.98973e-14
2.18504e-14
1.73408e-14
1.00872e-14
1.25757e-14
1.17857e-14
2.37843e-14
1.94242e-14
4.08355e-15
6.23819e-15
7.63879e-15
1.46468e-15
5.8421e-15
4.33828e-15
4.6046e-15
1.2232e-14
9.62035e-15
1.10427e-14
8.76119e-15
6.76572e-15
1.94749e-14
1.54555e-14
8.5311e-15
5.37944e-15
2.94121e-15
5.16372e-15
6.68057e-15
1.2229e-14
1.06363e-14
4.62313e-15
8.49119e-15
8.2459e-15
8.52024e-15
9.08678e-15
4.932e-15
8.41203e-15
1.72704e-14
9.05904e-15
1.10268e-14
5.80561e-15
9.48471e-15
9.49588e-15
1.10593e-14
1.16647e-14
2.11398e-15
1.14106e-14
1.41793e-14
1.62242e-14
7.71323e-15
3.25822e-15
7.59719e-15
7.62858e-15
4.89675e-15
3.22736e-15
6.51645e-15
6.51914e-15
4.46243e-15
4.22911e-15
1.15678e-14
1.04106e-14
6.18119e-15
1.88815e-14
1.85448e-14
1.00881e-14
6.84455e-15
1.2497e-14
1.98112e-14
1.20194e-14
1.21938e-14
1.04991e-14
1.10141e-14
2.38093e-15
9.72875e-15
1.46694e-14
1.64967e-14
1.16773e-14
1.5513e-14
3.81165e-15
1.5127e-14
8.56537e-15
8.10326e-15
9.9607e-15
1.40151e-14
1.32719e-14
1.53404e-14
9.81531e-15
1.11716e-14
1.59869e-14
1.47237e-14
1.26011e-14
8.21547e-15
4.52756e-15
7.1105e-15
4.47636e-15
8.08549e-15
7.68829e-15
1.67087e-14
1.63682e-14
1.58677e-14
1.643e-14
1.36618e-14
1.76163e-14
2.42305e-14
2.0368e-14
1.4945e-14
7.51976e-15
4.54726e-15
6.58235e-15
7.41896e-15
1.05507e-14
9.28142e-15
1.10582e-14
6.00431e-15
8.23272e-15
6.40543e-15
9.87963e-15
9.29831e-15
7.40033e-15
1.58953e-14
1.84333e-14
1.98329e-14
2.67068e-14
3.92513e-14
3.66941e-14
2.72946e-14
3.34459e-14
2.80988e-14
2.40053e-14
2.41867e-14
1.85937e-14
2.11679e-14
1.88118e-14
2.15502e-14
2.08763e-14
2.03746e-14
2.13539e-14
2.68426e-14
3.90638e-14
3.31361e-14
1.73295e-14
1.96381e-14
3.17803e-14
2.93752e-14
2.61607e-14
1.10931e-14
2.21903e-14
1.37466e-14
1.72103e-14
1.60298e-14
1.08384e-14
2.79126e-15
2.62191e-15
5.61813e-15
1.41694e-14
1.1823e-14
5.41871e-15
4.5867e-15
4.13722e-15
4.56274e-15
6.56897e-15
7.28106e-15
3.06383e-15
6.41067e-15
8.34175e-15
1.27813e-15
6.84861e-15
9.3438e-15
1.0035e-14
8.59083e-15
1.54814e-14
1.1126e-14
1.61682e-14
9.33226e-15
9.29993e-15
5.60261e-15
8.17885e-15
6.4818e-15
6.61862e-15
7.35918e-15
1.3098e-14
2.61713e-15
7.54762e-15
5.44783e-15
9.53644e-15
9.51292e-15
6.46314e-15
6.33995e-15
9.48914e-15
1.76331e-14
1.15128e-14
1.02226e-14
7.64751e-15
1.26352e-14
1.06427e-14
6.39331e-15
9.9277e-15
1.28014e-14
1.26378e-14
1.02064e-14
9.71353e-15
5.77278e-15
4.02879e-15
1.18905e-14
4.91912e-15
6.54374e-15
2.76157e-15
9.99118e-15
1.88461e-14
1.97496e-14
1.6459e-14
2.15615e-14
2.45317e-14
2.12878e-14
1.45799e-14
7.29397e-16
4.79779e-15
6.41212e-15
7.51648e-15
1.91994e-14
2.4126e-14
1.73458e-14
1.24685e-14
3.45572e-15
1.4171e-14
1.4133e-14
9.28227e-15
1.54429e-14
1.13753e-14
1.67418e-14
1.1024e-14
1.83247e-14
1.6088e-14
8.36089e-15
1.78466e-14
9.57387e-15
3.62956e-15
1.06983e-14
2.28691e-15
3.52145e-15
4.03385e-15
1.04505e-14
1.24691e-14
1.68801e-14
2.47762e-14
1.92606e-14
1.21298e-14
2.01163e-14
3.35566e-14
3.62972e-14
3.2604e-14
2.00795e-14
1.62452e-14
1.84949e-14
5.45051e-15
2.04215e-14
1.16294e-14
6.92833e-15
1.29637e-14
1.65039e-14
1.66342e-14
1.45758e-14
1.99128e-14
1.82899e-14
2.56846e-14
2.66064e-14
1.57057e-14
1.67433e-14
2.5974e-14
3.60589e-14
2.81351e-14
3.243e-14
2.36395e-14
2.02334e-14
2.058e-14
1.22453e-14
1.57395e-14
1.28823e-14
1.4701e-14
1.11714e-14
7.76732e-15
1.18854e-14
2.90227e-14
2.44521e-14
2.11098e-14
2.20405e-14
2.70591e-14
2.77607e-14
2.92565e-14
2.32005e-14
2.01666e-14
1.49511e-14
1.44903e-14
1.56289e-14
1.92408e-14
1.79758e-14
7.92012e-15
1.98632e-14
1.59217e-14
1.88779e-14
1.1525e-14
1.08998e-14
2.93016e-15
4.93831e-15
7.56114e-15
8.39458e-15
1.45685e-14
1.35176e-14
1.02526e-14
1.20568e-14
4.35785e-15
5.89587e-15
5.42924e-15
9.18213e-15
1.06152e-14
1.24311e-14
8.43521e-15
1.44029e-14
9.13617e-15
1.16404e-14
7.02466e-15
1.08284e-14
1.99999e-14
1.82289e-14
1.06856e-14
1.37713e-14
1.24048e-14
6.17133e-15
4.07494e-15
3.29322e-15
5.5667e-15
7.28587e-15
5.58527e-15
3.36798e-15
1.07351e-14
1.45564e-14
1.19435e-14
1.43522e-14
1.44938e-14
1.35391e-14
1.49736e-14
1.57748e-14
1.89684e-14
1.93652e-14
1.74209e-14
1.07446e-14
4.95078e-15
7.67379e-15
1.73372e-15
8.23057e-15
8.65624e-15
3.7044e-15
5.18508e-15
7.36207e-15
1.44431e-14
9.60919e-15
1.35801e-14
1.57482e-14
1.30784e-14
6.70975e-15
7.90478e-15
1.12285e-14
1.42695e-14
2.58547e-15
1.34499e-14
1.45608e-14
1.45026e-14
7.19971e-15
3.50138e-15
9.46709e-15
1.39532e-14
1.52984e-14
2.77875e-14
1.49717e-14
6.8298e-15
6.42453e-15
5.83414e-15
5.47398e-15
8.87287e-15
8.75499e-15
5.60377e-15
4.6084e-15
4.84285e-15
4.39382e-15
5.3478e-15
3.7825e-15
1.10131e-14
1.01869e-14
1.90954e-14
1.40602e-14
4.26125e-15
8.57508e-15
6.37967e-15
1.42326e-14
2.53994e-14
2.27134e-14
1.34354e-14
9.85049e-15
1.14787e-14
1.28852e-14
1.90341e-14
1.81936e-14
1.05654e-14
1.53901e-14
9.04583e-15
1.19237e-14
8.69804e-15
1.22807e-14
2.03988e-14
1.48077e-14
1.2442e-14
1.18699e-14
1.52686e-14
1.83345e-14
2.9447e-14
2.81374e-14
1.73225e-14
1.30536e-14
1.53983e-14
1.56071e-14
1.72889e-14
1.21703e-14
9.03687e-15
1.16423e-14
1.16464e-14
8.91158e-15
6.47117e-15
8.44875e-15
1.03513e-14
8.71044e-15
1.90215e-14
2.02248e-14
1.76326e-14
2.55466e-14
3.39759e-14
3.2952e-14
1.87222e-14
5.22031e-15
6.8034e-15
1.49827e-14
1.8367e-14
1.54115e-14
1.48185e-14
2.03974e-14
1.30622e-14
1.10619e-14
8.18636e-15
8.65402e-15
1.05558e-14
6.05431e-15
1.77984e-14
2.04694e-14
2.20816e-14
1.56068e-14
1.13043e-14
3.46648e-15
2.51131e-15
4.37871e-15
8.65075e-15
1.71468e-14
1.00247e-14
8.20002e-15
9.60133e-15
1.26635e-14
8.53464e-15
5.00746e-15
1.29449e-14
1.65054e-14
1.65761e-14
1.4759e-14
1.45974e-14
1.37832e-14
6.25273e-15
6.82145e-15
5.45259e-15
4.26188e-15
4.20063e-15
7.3959e-15
5.69233e-15
6.40628e-15
1.24218e-14
1.5685e-14
1.49605e-14
1.47646e-14
1.74216e-14
1.82769e-14
1.59028e-14
1.98178e-14
2.0833e-14
1.61629e-14
7.46387e-15
3.82125e-15
9.28317e-15
1.14503e-14
1.24532e-14
2.01477e-14
4.01292e-15
1.49048e-14
1.28044e-14
9.76367e-15
6.51531e-15
1.0693e-14
9.33748e-15
8.59404e-15
8.72833e-15
1.77973e-14
1.64814e-14
1.70237e-14
4.01821e-15
1.5088e-14
1.21383e-14
1.01721e-14
8.97328e-15
4.27571e-15
1.23849e-14
1.33562e-14
2.42906e-14
4.04414e-14
2.06539e-14
7.44617e-15
1.34347e-14
1.28935e-14
8.19716e-15
7.455e-15
4.90106e-15
8.22196e-15
5.97436e-15
1.45971e-14
6.43497e-15
6.86324e-15
7.27661e-15
1.30355e-14
1.24649e-14
2.2831e-14
1.56728e-14
7.10128e-15
1.75137e-14
1.07735e-14
7.07924e-15
6.75563e-15
1.04222e-14
1.36198e-14
7.62715e-15
8.4131e-15
8.38466e-15
4.73865e-15
9.62185e-15
1.33588e-14
1.0879e-14
5.45459e-15
7.70776e-15
1.57992e-14
1.7072e-14
1.71231e-14
1.03272e-14
7.58941e-15
1.25003e-14
9.17073e-15
1.40894e-14
1.38318e-14
1.90922e-14
1.51326e-14
1.40212e-14
1.68222e-14
8.06783e-15
1.33364e-14
9.80607e-15
7.12591e-15
1.56196e-14
1.41162e-14
1.63596e-14
1.77297e-14
1.39779e-14
1.59044e-14
1.44993e-14
2.40779e-14
1.73981e-14
1.689e-14
2.02784e-14
3.74024e-14
3.22279e-14
1.8125e-14
1.17469e-14
1.33854e-14
2.75135e-14
2.39082e-14
1.53478e-14
1.24577e-14
1.7401e-14
8.78212e-15
2.3517e-14
1.56628e-14
5.53358e-15
4.77125e-15
5.77516e-15
8.91603e-15
1.36399e-14
1.04604e-14
1.30436e-14
6.89966e-15
5.07706e-15
5.66715e-15
1.02505e-14
1.00791e-14
2.19246e-14
1.20804e-14
2.62604e-15
7.55846e-15
1.14416e-14
1.00966e-14
1.0812e-14
1.00908e-14
1.97589e-14
8.61297e-15
1.28173e-14
1.21517e-14
1.7416e-14
1.37118e-14
1.76907e-14
1.35795e-14
6.3273e-15
1.04097e-14
7.97733e-15
1.47452e-14
1.45666e-14
1.77294e-14
2.02586e-14
2.28125e-14
2.39546e-14
2.47599e-14
1.60918e-14
1.42252e-14
2.01101e-14
2.46435e-14
1.84127e-14
1.1581e-14
3.51667e-15
1.10947e-14
1.51129e-14
1.15953e-14
2.47403e-14
1.5073e-14
1.2629e-14
2.13274e-14
1.63736e-14
1.06244e-14
1.83724e-14
6.23982e-15
6.7374e-15
1.09908e-14
1.28409e-14
1.01905e-14
1.07809e-14
1.29243e-14
9.17744e-15
1.74072e-14
1.76883e-14
8.20222e-15
8.60659e-15
2.18948e-14
9.90953e-15
2.91118e-14
4.22895e-14
2.29044e-14
1.5956e-14
1.08577e-14
1.85337e-14
1.85244e-14
9.64062e-15
7.48633e-15
1.36076e-14
1.20467e-14
2.10469e-14
1.3679e-14
1.39994e-14
7.39739e-15
2.60873e-14
1.80053e-14
2.65581e-14
2.60909e-14
1.07268e-14
9.19016e-15
1.20056e-14
1.09828e-14
2.26749e-14
1.82648e-14
1.43796e-14
9.53919e-15
1.23919e-14
1.63141e-14
2.49313e-14
2.11394e-14
5.42498e-15
1.38564e-14
9.43235e-15
2.22553e-14
2.41338e-14
3.18648e-14
1.95583e-14
1.73222e-14
1.54118e-14
2.12461e-14
3.09012e-14
2.83382e-14
1.97224e-14
5.40994e-15
1.41728e-14
1.03249e-14
6.40832e-15
1.4408e-14
7.24221e-15
1.65505e-14
9.34551e-15
1.86261e-14
1.62748e-14
2.16834e-14
2.92747e-14
2.21846e-14
2.0727e-14
2.18724e-14
2.88356e-14
2.19416e-14
1.39268e-14
3.22111e-14
2.12997e-14
1.19519e-14
2.41459e-14
1.02154e-14
2.09869e-14
1.22911e-14
2.62975e-14
1.70508e-14
7.49577e-15
1.06928e-14
1.69687e-14
2.98899e-14
7.81967e-15
6.83811e-15
4.22087e-15
6.11005e-15
3.96598e-15
1.28718e-14
5.33878e-15
5.30088e-15
4.05387e-15
7.10031e-15
9.72229e-15
1.47994e-14
1.61967e-14
1.54152e-14
8.73037e-15
1.07442e-14
1.21065e-14
1.11378e-14
2.09844e-14
1.23603e-14
7.34173e-15
1.8813e-14
1.39991e-14
6.56415e-15
8.3022e-15
6.05063e-15
5.36445e-15
5.9068e-15
1.80223e-14
9.65957e-15
5.71247e-15
5.07733e-15
5.37322e-15
4.06438e-15
4.39016e-15
2.82066e-15
1.01373e-14
1.61659e-14
1.28837e-14
1.40706e-14
1.70407e-14
1.54813e-14
1.23838e-14
1.23349e-14
1.09548e-14
9.90659e-15
1.61027e-14
9.55705e-15
7.38543e-15
1.79865e-14
1.67265e-14
9.60203e-15
1.46457e-14
1.31811e-14
1.11347e-14
1.00399e-14
7.29559e-15
1.30115e-14
1.77971e-14
1.24545e-14
2.12013e-14
9.93056e-15
1.10815e-14
1.03682e-14
2.14948e-14
1.72398e-14
1.09102e-14
1.48407e-14
8.93677e-15
1.09424e-14
1.96169e-14
1.91526e-14
4.05659e-15
1.73004e-14
7.60031e-15
6.156e-15
1.66061e-14
1.10264e-14
1.20446e-14
1.64255e-14
1.92887e-14
1.76186e-14
2.03544e-14
1.76568e-14
3.34267e-15
1.06843e-14
1.78599e-14
1.85081e-14
1.90244e-14
1.67941e-14
9.32264e-15
9.91986e-15
6.70684e-15
1.22747e-14
6.51076e-15
1.40745e-15
7.10069e-15
1.26448e-14
1.36607e-14
2.69727e-14
2.12093e-14
1.38074e-14
1.70628e-14
1.8407e-14
1.46524e-14
1.59629e-14
2.16872e-14
1.14805e-14
2.09672e-14
1.16698e-14
4.28016e-15
1.35824e-14
1.84977e-14
2.12412e-14
1.88473e-14
1.65678e-14
6.65622e-15
1.21706e-14
4.111e-15
8.72308e-15
3.86422e-15
9.17823e-15
1.2574e-14
2.62268e-14
3.69954e-14
2.45206e-14
1.92398e-14
1.69829e-14
2.09739e-14
2.57816e-14
4.12769e-14
3.89693e-14
3.65244e-14
3.97232e-14
2.73357e-14
2.38155e-14
8.22301e-15
1.80967e-14
2.72893e-14
2.69253e-14
8.28201e-15
2.05075e-15
9.89946e-15
1.55576e-14
1.90977e-14
7.20471e-15
8.28075e-15
6.70048e-15
9.93745e-15
8.4542e-15
1.64683e-14
9.95554e-15
8.07618e-15
9.49216e-15
5.03525e-15
9.19765e-15
1.31664e-14
1.65155e-14
2.1643e-14
2.33004e-14
1.45443e-14
1.45299e-14
1.81851e-14
1.65851e-14
1.23407e-14
1.32669e-14
1.54495e-14
2.39986e-14
1.36773e-14
1.00509e-14
1.43755e-14
1.52481e-14
1.78876e-14
1.61043e-14
1.17206e-14
1.39651e-14
1.44404e-14
2.00466e-14
1.78766e-14
2.07289e-14
1.97163e-14
2.04644e-14
1.72253e-14
1.80277e-14
1.85233e-14
2.01032e-14
2.38629e-14
2.011e-14
2.00007e-14
1.63844e-14
1.10196e-14
7.71071e-15
8.47849e-15
5.5699e-15
1.19791e-14
8.02187e-15
7.43648e-15
7.49701e-15
9.87768e-15
1.27839e-14
2.11566e-14
8.80321e-15
1.05378e-14
5.97459e-15
1.19765e-14
9.25327e-15
1.10379e-14
1.64158e-14
2.02658e-14
1.48787e-14
5.33546e-15
7.28719e-15
3.44709e-15
9.32183e-15
9.63351e-15
1.52498e-14
1.2653e-14
1.2679e-14
8.16197e-15
1.11431e-14
7.15088e-15
4.6072e-15
6.01405e-15
1.56876e-14
1.68721e-14
1.72533e-14
1.63603e-14
1.11248e-14
4.70314e-15
4.79534e-15
8.39821e-15
7.4561e-15
1.0972e-14
1.82293e-15
8.50897e-15
8.81321e-15
1.20544e-14
1.43958e-15
5.66548e-15
8.41698e-15
9.98292e-15
9.3936e-15
9.03691e-15
1.44272e-14
1.64128e-14
1.35206e-14
1.47048e-14
1.08326e-14
1.24429e-14
1.56333e-14
1.85702e-14
1.82258e-14
8.04074e-15
1.10901e-14
1.40995e-14
5.3911e-15
1.41915e-14
1.18012e-14
1.02846e-14
1.30716e-14
1.04723e-14
1.28766e-14
1.23258e-14
7.13922e-15
1.38771e-14
1.78318e-14
1.56241e-14
1.73312e-14
1.6181e-14
1.7816e-14
1.5096e-14
1.21007e-14
1.11425e-14
1.34406e-14
2.24546e-14
2.78733e-14
2.78962e-14
2.66657e-14
2.70832e-14
2.78665e-14
1.12258e-14
6.05277e-15
1.15323e-14
2.17117e-14
1.52829e-14
1.11332e-14
9.91684e-15
7.58235e-15
1.45917e-14
1.37816e-14
5.14261e-15
5.08699e-15
1.01925e-14
1.02227e-14
1.2233e-14
2.16176e-14
1.71187e-14
9.47275e-15
1.14438e-14
6.1717e-15
4.267e-15
7.02108e-15
1.04796e-14
7.9742e-15
1.27542e-14
1.09374e-14
6.76201e-15
7.42553e-15
1.13808e-14
9.7524e-15
1.10376e-14
6.69261e-15
1.6674e-14
1.78555e-14
1.16195e-14
1.21066e-14
1.17708e-14
6.53812e-15
8.23156e-15
8.7465e-15
5.35282e-15
3.65134e-15
6.6574e-15
5.59801e-15
6.57412e-15
5.21475e-15
5.93057e-15
9.09015e-15
8.84493e-15
6.68147e-15
7.78302e-15
1.07201e-14
1.06788e-14
6.70128e-15
5.40365e-15
7.12603e-15
7.11341e-15
9.14361e-15
9.51825e-15
9.25056e-15
7.08227e-15
6.06065e-15
1.4472e-14
1.16934e-14
1.81802e-14
1.78589e-14
8.64083e-15
1.13049e-14
1.33538e-14
6.79678e-15
9.34498e-15
7.70463e-15
7.36365e-15
1.22787e-14
4.52588e-15
9.70967e-15
4.60949e-15
3.17123e-15
8.63352e-15
1.50144e-14
2.41577e-14
3.75865e-15
1.76155e-14
1.30608e-14
5.3196e-15
6.16047e-15
4.36607e-15
2.91613e-15
5.61997e-15
8.33341e-15
1.23838e-14
1.85286e-14
7.86154e-15
2.21418e-15
6.48824e-15
3.37067e-15
9.18932e-15
4.89425e-15
9.30666e-15
4.0932e-15
5.98465e-15
9.04576e-15
6.73425e-15
2.82567e-15
2.09892e-15
7.79123e-15
1.35984e-15
1.48215e-14
1.58424e-14
1.36714e-14
8.54523e-15
3.02176e-15
5.23383e-15
9.77718e-15
1.95596e-14
2.40905e-14
2.31692e-14
1.27221e-14
2.11778e-14
1.9439e-14
4.48249e-15
1.65342e-14
1.25054e-14
1.20939e-14
1.42178e-14
1.37219e-14
1.17219e-14
1.92095e-14
2.02744e-14
2.60765e-14
2.2292e-14
1.95786e-14
8.55921e-15
1.83305e-14
5.84407e-15
1.15578e-14
3.57571e-15
5.54892e-15
2.81079e-15
5.93558e-15
8.75405e-15
8.42524e-15
1.07125e-14
7.24886e-15
8.18791e-15
4.25412e-15
1.02467e-14
6.24875e-15
1.41056e-14
6.30901e-15
3.51237e-15
4.81442e-15
4.90799e-15
1.11727e-14
8.58161e-15
6.21869e-15
1.11304e-14
8.69732e-15
6.97927e-15
2.2253e-15
1.17149e-14
1.5036e-14
9.34298e-15
4.61559e-15
1.03707e-14
4.01546e-15
4.7017e-15
7.31574e-15
6.37751e-15
7.09369e-15
1.09437e-14
4.71651e-15
1.09054e-14
1.19485e-14
9.83583e-15
6.10029e-15
3.02978e-15
4.55145e-15
1.09042e-14
8.29978e-15
8.23798e-15
1.3719e-15
4.73029e-15
6.23459e-15
9.4926e-15
7.63389e-15
4.43286e-15
2.25627e-15
3.84757e-15
5.52555e-15
5.87682e-15
1.01516e-14
7.76653e-15
1.03561e-14
8.46335e-15
7.09195e-15
8.97881e-15
6.98666e-15
5.63715e-15
6.48333e-15
9.99531e-15
1.24376e-14
1.50934e-14
1.92931e-14
2.14379e-14
1.28394e-14
1.6698e-14
1.38219e-14
2.20522e-14
1.8367e-14
1.51467e-14
8.83427e-15
1.05567e-14
1.85015e-14
1.86517e-14
8.87602e-15
5.1221e-15
1.14934e-14
1.06922e-14
1.56376e-14
1.5502e-14
1.09864e-14
8.46636e-15
1.57632e-14
1.28345e-14
1.52158e-14
1.47658e-14
2.51241e-14
1.98201e-14
2.16983e-14
1.35601e-14
8.53598e-15
1.17999e-14
8.96476e-15
1.46562e-14
8.10816e-15
1.23722e-14
1.19954e-14
9.7541e-15
9.22316e-15
6.8646e-15
9.55201e-15
7.92848e-15
1.22245e-14
7.3755e-15
4.89503e-15
7.96157e-15
4.31156e-15
1.81918e-15
1.01044e-14
8.52046e-15
7.96156e-15
1.22362e-14
1.31343e-14
2.0945e-14
2.00336e-14
1.67698e-14
1.76724e-14
2.16926e-14
1.43574e-14
1.77611e-14
1.9162e-14
1.76594e-14
2.00599e-14