/*--------------------------------*- C++ -*----------------------------------*\
| =========                 |                                                 |
| \\      /  F ield         | OpenFOAM: The Open Source CFD Toolbox           |
|  \\    /   O peration     | Version:  2406                                  |
|   \\  /    A nd           | Website:  www.openfoam.com                      |
|    \\/     M anipulation  |                                                 |
\*---------------------------------------------------------------------------*/
FoamFile
{
    version     2.0;
    format      ascii;
    arch        "LSB;label=32;scalar=64";
    class       volScalarField;
    location    "0.095";
    object      p;
}
// * * * * * * * * * * * * * * * * * * * * * * * * * * * * * * * * * * * * * //

dimensions      [1 -1 -2 0 0 0 0];

internalField   nonuniform List<scalar> 
14020
(
330016
330015
330014
330013
330012
330011
330012
330013
330016
330020
330025
330029
330033
330036
330039
330042
330046
330051
330057
330062
330066
330070
330072
330073
330074
330075
330078
330082
330084
330083
330081
330077
330074
330074
330076
330081
330084
330086
330087
330086
330085
330084
330085
330086
330086
330085
330084
330082
330078
330074
330069
330065
330062
330062
330062
330061
330060
330058
330058
330060
330062
330064
330064
330065
330064
330062
330060
330058
330056
330055
330054
330053
330052
330050
330048
330047
330047
330047
330046
330044
330041
330038
330036
330037
330040
330043
330044
330044
330044
330043
330042
330041
330042
330042
330040
330036
330031
330026
330022
330022
330022
330024
330026
330027
330028
330030
330031
330031
330032
330033
330033
330031
330028
330026
330025
330023
330022
330022
330023
330021
330020
330018
330017
330015
330013
330013
330013
330014
330015
330016
330017
330017
330016
330013
330012
330011
330010
330010
330010
330009
330007
330005
330005
330005
330006
330007
330007
330006
330003
329994
329986
329988
329995
330011
330041
330081
330070
329944
329552
328826
327834
326684
325461
324207
322942
321670
320395
319118
317839
316560
315280
314002
312725
311451
310179
308910
307644
306381
305119
303861
302606
301353
300104
298858
297616
296376
295140
293907
292678
291453
290233
289016
287804
286595
285389
284187
282988
281793
280601
279414
278233
277053
275882
274705
273545
272371
271222
270053
268914
267750
266621
265465
264347
263197
262091
260946
259851
258709
257625
256484
255414
254274
253225
252081
251058
249881
248892
247704
246799
245401
244998
330016
330015
330014
330013
330012
330011
330012
330013
330016
330020
330025
330029
330033
330036
330039
330042
330046
330051
330057
330062
330066
330070
330072
330073
330074
330075
330078
330082
330084
330083
330081
330077
330074
330074
330076
330081
330084
330086
330087
330086
330085
330084
330085
330086
330086
330085
330084
330082
330078
330074
330069
330065
330062
330062
330062
330061
330060
330058
330058
330060
330062
330064
330064
330065
330064
330062
330060
330058
330056
330055
330054
330053
330052
330050
330048
330047
330047
330047
330046
330044
330041
330038
330036
330037
330040
330043
330044
330044
330044
330043
330042
330041
330042
330042
330040
330036
330031
330026
330022
330022
330022
330024
330026
330027
330028
330030
330031
330031
330032
330033
330033
330031
330028
330026
330025
330023
330022
330022
330023
330021
330020
330018
330017
330015
330013
330013
330013
330014
330015
330016
330017
330017
330016
330013
330012
330011
330010
330010
330010
330009
330007
330005
330005
330005
330006
330007
330007
330006
330003
329994
329986
329988
329995
330011
330041
330081
330070
329944
329551
328826
327834
326684
325461
324207
322942
321670
320395
319118
317839
316560
315280
314002
312725
311451
310179
308910
307644
306381
305119
303861
302606
301353
300104
298858
297616
296376
295140
293907
292678
291454
290233
289016
287804
286595
285389
284187
282988
281793
280601
279414
278234
277053
275882
274704
273545
272370
271222
270052
268915
267750
266622
265464
264348
263196
262092
260945
259852
258707
257626
256482
255415
254272
253226
252077
251058
249873
248891
247696
246798
245392
244987
330016
330015
330014
330013
330012
330011
330012
330013
330016
330020
330025
330029
330033
330036
330039
330042
330046
330051
330057
330062
330066
330070
330072
330073
330074
330075
330078
330082
330084
330083
330081
330077
330074
330074
330076
330081
330084
330086
330087
330086
330085
330084
330085
330086
330086
330085
330084
330082
330078
330074
330069
330065
330062
330062
330062
330061
330060
330058
330058
330060
330062
330064
330064
330065
330064
330062
330060
330058
330056
330055
330054
330053
330052
330050
330048
330047
330047
330047
330046
330044
330041
330038
330036
330037
330040
330043
330044
330044
330044
330043
330042
330041
330042
330042
330040
330036
330031
330026
330022
330022
330022
330024
330026
330027
330028
330030
330031
330031
330032
330033
330033
330031
330028
330026
330025
330023
330022
330022
330023
330022
330020
330018
330017
330015
330013
330013
330013
330014
330015
330016
330017
330017
330016
330013
330012
330011
330010
330010
330010
330009
330007
330005
330005
330005
330006
330007
330007
330007
330003
329994
329986
329988
329995
330011
330041
330081
330070
329944
329551
328826
327833
326684
325461
324207
322942
321670
320396
319118
317839
316559
315280
314002
312725
311451
310179
308910
307644
306380
305119
303861
302606
301353
300104
298858
297615
296376
295140
293907
292678
291454
290233
289016
287804
286595
285389
284187
282988
281793
280601
279414
278234
277053
275882
274704
273545
272369
271223
270051
268916
267749
266624
265463
264349
263195
262092
260943
259852
258705
257627
256479
255416
254269
253227
252070
251058
249862
248894
247685
246802
245380
244985
330016
330015
330014
330013
330012
330011
330012
330013
330016
330020
330025
330029
330033
330036
330039
330042
330046
330051
330057
330062
330066
330070
330072
330073
330074
330075
330078
330082
330084
330083
330081
330077
330074
330074
330076
330081
330084
330086
330087
330086
330085
330084
330085
330086
330086
330085
330084
330082
330078
330074
330069
330065
330062
330062
330062
330062
330060
330058
330058
330060
330062
330064
330064
330065
330064
330062
330060
330058
330056
330055
330054
330053
330052
330050
330048
330047
330047
330047
330046
330044
330041
330038
330036
330037
330040
330043
330044
330044
330044
330043
330042
330041
330042
330042
330040
330036
330031
330026
330022
330022
330022
330024
330026
330027
330028
330030
330031
330031
330032
330033
330033
330031
330028
330026
330025
330023
330022
330022
330023
330022
330020
330018
330017
330015
330013
330013
330013
330014
330015
330016
330017
330018
330016
330013
330012
330011
330010
330010
330010
330009
330007
330005
330005
330005
330006
330007
330007
330007
330002
329994
329986
329988
329995
330011
330041
330081
330070
329944
329551
328826
327833
326684
325461
324207
322942
321671
320396
319118
317839
316559
315280
314002
312726
311451
310179
308910
307644
306380
305119
303861
302606
301353
300104
298858
297615
296376
295140
293907
292679
291454
290233
289017
287803
286595
285389
284187
282988
281793
280602
279414
278234
277052
275882
274703
273546
272368
271224
270050
268917
267749
266625
265463
264350
263193
262093
260940
259853
258702
257627
256476
255418
254264
253229
252063
251061
249849
248897
247669
246808
245355
244972
330016
330015
330014
330013
330012
330011
330012
330013
330016
330020
330025
330029
330033
330036
330039
330042
330046
330051
330057
330062
330066
330070
330072
330073
330074
330075
330078
330082
330084
330083
330081
330077
330074
330074
330076
330081
330084
330086
330086
330086
330085
330084
330085
330086
330086
330085
330084
330082
330078
330074
330069
330065
330062
330062
330062
330062
330060
330058
330058
330060
330062
330064
330064
330065
330064
330062
330060
330058
330056
330055
330054
330053
330052
330050
330048
330047
330047
330047
330046
330044
330041
330038
330036
330037
330040
330043
330044
330044
330044
330043
330042
330041
330042
330042
330040
330036
330031
330026
330023
330022
330022
330024
330026
330027
330028
330030
330030
330031
330032
330033
330033
330031
330027
330026
330025
330023
330022
330022
330023
330022
330020
330018
330017
330015
330013
330013
330014
330014
330015
330016
330017
330018
330016
330013
330012
330011
330010
330010
330010
330009
330007
330005
330005
330005
330006
330007
330007
330007
330002
329994
329986
329988
329995
330011
330041
330081
330070
329944
329551
328826
327833
326684
325461
324207
322942
321671
320396
319118
317838
316559
315280
314002
312726
311451
310179
308910
307644
306380
305120
303861
302606
301354
300104
298857
297615
296375
295140
293908
292679
291455
290233
289017
287803
286595
285389
284187
282988
281793
280602
279414
278234
277052
275882
274702
273546
272367
271225
270049
268918
267749
266627
265462
264350
263191
262093
260937
259854
258699
257629
256473
255421
254259
253231
252055
251064
249832
248903
247648
246816
245312
244947
330016
330015
330014
330013
330012
330011
330012
330013
330016
330020
330025
330029
330033
330036
330039
330042
330046
330051
330057
330062
330066
330070
330072
330073
330074
330075
330078
330082
330084
330083
330081
330077
330074
330074
330076
330081
330084
330086
330086
330086
330085
330084
330085
330086
330086
330085
330084
330082
330078
330074
330069
330065
330062
330062
330062
330062
330060
330058
330058
330060
330062
330064
330064
330065
330065
330062
330060
330058
330056
330055
330054
330053
330052
330050
330048
330047
330048
330047
330046
330044
330041
330038
330036
330037
330040
330043
330044
330044
330044
330043
330042
330041
330042
330042
330040
330036
330031
330026
330023
330022
330022
330024
330026
330027
330028
330030
330030
330031
330032
330033
330033
330031
330027
330026
330025
330023
330022
330022
330023
330022
330020
330018
330017
330015
330013
330013
330014
330014
330015
330016
330017
330018
330016
330013
330012
330011
330011
330010
330010
330009
330007
330005
330005
330005
330006
330007
330007
330007
330002
329994
329986
329988
329995
330011
330041
330082
330070
329944
329551
328826
327833
326684
325461
324207
322942
321671
320396
319118
317838
316558
315280
314003
312726
311452
310179
308910
307644
306380
305120
303862
302606
301354
300104
298857
297614
296375
295140
293908
292679
291455
290234
289017
287803
286594
285389
284187
282988
281793
280602
279414
278233
277051
275882
274701
273546
272366
271226
270049
268920
267749
266628
265462
264351
263189
262094
260935
259855
258696
257631
256469
255423
254253
253234
252046
251066
249813
248911
247621
246826
245246
244910
330016
330015
330014
330013
330012
330011
330012
330013
330016
330020
330025
330029
330033
330036
330039
330042
330046
330051
330057
330062
330066
330070
330072
330073
330074
330075
330078
330082
330084
330083
330082
330077
330074
330074
330076
330081
330084
330086
330086
330086
330085
330084
330085
330086
330086
330085
330084
330082
330078
330074
330069
330065
330062
330062
330062
330062
330060
330058
330058
330060
330062
330064
330064
330065
330065
330062
330060
330058
330056
330055
330054
330053
330052
330050
330048
330047
330048
330047
330046
330044
330041
330038
330036
330037
330040
330043
330044
330044
330044
330043
330042
330041
330042
330042
330040
330036
330031
330026
330023
330022
330022
330024
330026
330027
330028
330030
330030
330031
330032
330033
330033
330031
330027
330026
330025
330023
330022
330022
330023
330022
330020
330018
330017
330015
330013
330013
330014
330014
330015
330016
330017
330018
330016
330013
330012
330011
330011
330010
330009
330009
330007
330005
330005
330005
330006
330007
330007
330007
330002
329994
329987
329988
329995
330011
330041
330082
330070
329944
329551
328826
327833
326684
325461
324208
322942
321671
320396
319117
317838
316558
315280
314003
312727
311452
310179
308910
307643
306380
305120
303862
302606
301354
300104
298857
297614
296375
295140
293908
292680
291455
290234
289017
287803
286594
285388
284187
282988
281793
280602
279414
278233
277051
275882
274700
273547
272365
271226
270048
268921
267749
266630
265461
264352
263187
262095
260933
259856
258693
257632
256466
255426
254247
253237
252036
251070
249796
248921
247588
246838
245154
244887
330016
330015
330014
330013
330012
330011
330012
330013
330016
330020
330025
330029
330033
330036
330039
330042
330046
330051
330057
330062
330066
330070
330072
330073
330074
330075
330078
330082
330084
330083
330082
330077
330074
330074
330076
330081
330084
330086
330086
330086
330085
330084
330085
330086
330086
330085
330084
330082
330078
330074
330069
330065
330062
330062
330062
330062
330060
330058
330058
330060
330062
330064
330064
330065
330065
330062
330059
330057
330056
330055
330054
330053
330052
330050
330048
330047
330048
330047
330046
330044
330041
330038
330036
330037
330040
330043
330044
330044
330044
330043
330042
330041
330042
330042
330040
330036
330031
330026
330023
330022
330022
330024
330026
330027
330028
330030
330030
330031
330032
330033
330033
330031
330027
330026
330025
330024
330022
330022
330023
330022
330020
330018
330017
330015
330013
330013
330014
330014
330015
330016
330017
330018
330016
330013
330012
330011
330011
330010
330009
330009
330007
330005
330005
330005
330006
330007
330007
330007
330002
329994
329987
329988
329995
330011
330041
330082
330070
329944
329551
328826
327833
326684
325461
324208
322943
321671
320396
319117
317838
316558
315280
314003
312727
311452
310179
308910
307643
306380
305120
303862
302607
301354
300104
298857
297614
296375
295139
293908
292680
291456
290234
289017
287802
286594
285388
284187
282988
281793
280602
279414
278233
277050
275882
274700
273547
272364
271227
270048
268922
267750
266631
265461
264352
263186
262096
260932
259856
258691
257631
256462
255428
254243
253239
252029
251075
249786
248926
247549
246848
245049
244887
330016
330015
330014
330013
330012
330011
330012
330013
330016
330020
330025
330029
330033
330036
330039
330042
330046
330051
330057
330062
330066
330070
330072
330073
330074
330075
330078
330082
330084
330083
330082
330077
330074
330074
330076
330081
330084
330086
330086
330086
330085
330084
330085
330086
330086
330085
330084
330082
330078
330074
330069
330065
330062
330062
330062
330062
330060
330058
330058
330060
330062
330064
330064
330065
330065
330062
330059
330057
330056
330055
330054
330053
330052
330050
330048
330047
330048
330047
330046
330044
330041
330038
330036
330037
330040
330043
330044
330044
330044
330043
330042
330041
330042
330042
330040
330036
330031
330026
330023
330022
330022
330024
330026
330027
330028
330030
330030
330031
330032
330033
330033
330031
330027
330026
330025
330024
330022
330022
330023
330021
330020
330018
330017
330015
330013
330013
330014
330014
330015
330016
330017
330018
330016
330013
330012
330011
330011
330010
330009
330009
330007
330005
330005
330005
330006
330007
330007
330007
330002
329994
329987
329988
329995
330011
330041
330082
330070
329944
329551
328826
327833
326684
325461
324208
322943
321671
320396
319117
317838
316558
315280
314003
312727
311452
310179
308910
307643
306380
305120
303862
302607
301354
300103
298857
297613
296374
295139
293908
292680
291456
290234
289017
287802
286594
285388
284187
282988
281793
280602
279414
278233
277050
275882
274699
273547
272364
271228
270048
268923
267750
266632
265460
264353
263184
262097
260928
259855
258688
257628
256458
255430
254241
253241
252022
251083
249776
248928
247506
246866
244940
244923
105454
105471
105446
105392
105310
105200
105083
104983
104917
104919
105066
105578
106474
107593
108788
109981
111160
112396
113840
115640
117804
120151
122478
124717
126929
129190
131510
133813
135927
137642
138280
136979
131774
122292
109767
93827
82475.8
75728.2
66638.2
59753.7
57984.5
58188.8
61621.3
67707.8
74603.2
81689.4
88443.5
94609.9
99950.5
104191
107562
110410
112417
113519
113597
113139
112151
110947
109726
108395
107049
105740
104595
104230
104383
103877
102697
101858
101361
101046
100866
100854
100918
100841
100590
100568
101080
101272
101573
102420
103491
104314
104505
104172
103792
103203
102366
101628
101022
100707
100558
100497
100679
100942
101142
101493
101657
102149
102619
104410
105369
105444
105462
105440
105388
105308
105199
105081
104979
104907
104901
105023
105486
106335
107420
108592
109768
110926
112123
113491
115180
117224
119469
121713
123863
125957
128072
130215
132310
134188
135587
135794
133778
128131
118156
105954
88809.1
79660.4
74446.7
67467.3
60382.7
57527
57680.6
60053.5
66068.5
72406.7
79547.2
86650
93419.1
99119.6
104072
107677
110383
112316
113400
113602
113184
112261
111143
110008
108748
107437
106172
104993
104178
103547
102961
102220
101673
101207
100923
100783
100918
101159
101321
101415
101507
101809
102271
102393
102889
103395
103666
103721
103490
103136
102613
102023
101474
101185
101022
101025
101138
101319
101535
101594
101674
101803
102265
102788
105352
105431
105453
105433
105384
105306
105198
105080
104974
104896
104883
104979
105388
106185
107231
108376
109532
110668
111825
113118
114690
116600
118730
120879
122927
124891
126837
128776
130628
132226
133282
133066
130356
124508
114762
102525
85483.8
77728.2
72885.2
66944
60479
56905.7
56921.7
58528.8
63738
70344.2
77169.6
84651.1
91964.3
98013.4
103280
107234
110072
112080
113233
113565
113357
112668
111646
110435
109106
107785
106481
105244
104295
103613
102903
102255
101807
101468
101326
101232
101262
101479
101722
101871
102109
102204
102662
102919
103119
103342
103464
103421
103181
102870
102525
102135
101808
101593
101574
105150
105333
105417
105442
105426
105379
105303
105197
105078
104969
104886
104863
104936
105287
106023
107025
108139
109272
110386
111505
112722
114174
115938
117937
119978
121918
123741
125503
127216
128802
130089
130804
130266
127070
121138
112061
99742.7
83795.5
76314.5
71694
65870.9
59758.4
55640.5
55197
56586.3
60821.1
68191.6
74885.9
82934.6
90508.6
96806.9
102366
106654
109567
111483
112563
112913
112743
112220
105119
105310
105402
105430
105417
105373
105300
105196
105077
104964
104877
104844
104893
105184
105851
106802
107880
108988
110078
111159
112304
113635
115245
117095
119015
120838
122516
124084
125557
126859
127817
128241
127440
124189
118527
110517
97563.9
83144.6
75070.1
70165.7
64685.6
58918.7
54344.9
53208.6
54333.8
57902.1
65556.8
72586.1
80971.6
89137.1
95995.9
101416
105547
108500
110499
111646
112060
105084
105284
105383
105416
105407
105367
105297
105195
105076
104960
104868
104823
104853
105082
105672
106563
107601
108679
109743
110788
111865
113079
114528
116215
117997
119698
121232
122607
123837
124860
125520
125695
124631
121467
116088
108649
98233.4
84285.3
75264
69319.8
63869.6
58273.1
53343.5
51483.3
52297.6
55824.1
63200
71023.5
79503.1
87870
94526.1
100146
104598
107609
109467
110561
105043
105255
105362
105399
105396
105358
105292
105194
105075
104957
104860
104803
104815
104983
105488
106309
107300
108345
109381
110391
111406
112509
113799
115308
116936
118507
119902
121095
122093
122855
123260
123185
121898
118836
114096
107334
98629.7
87623.3
77560.2
70194.7
63603.5
57698.2
53062.2
51122
52038.2
55760.8
62962.1
71104.4
79466.4
87507.7
94258.8
99773.2
103398
106283
108206
109354
104995
105220
105338
105381
105382
105349
105287
105192
105075
104955
104852
104783
104778
104892
105305
106044
106980
107987
108992
109967
110926
111930
113066
114391
115847
117279
118542
119573
120363
120889
121112
120808
119353
116509
112397
106657
99229.7
90400
82003.2
74604.3
67399.6
61298.5
56976.7
54973.7
55290.8
58613.2
65414.1
73015.7
80534.7
87764.9
93943.9
98909
102520
105225
107041
108122
104941
105180
105309
105360
105367
105338
105280
105190
105074
104953
104845
104766
104743
104812
105126
105771
106642
107605
108577
109518
110426
111342
112339
113481
114751
116030
117165
118059
118678
119015
119090
118598
117061
114489
110964
106216
100163
93157.2
85631.9
78928.8
73360
68023.2
63442.9
60769.2
60204.3
62569.6
68625.7
75851
82335
88359.3
93818.2
98301.3
101703
104116
105784
106894
104878
105134
105276
105336
105348
105324
105273
105188
105075
104952
104839
104751
104710
104742
104960
105497
106290
107203
108138
109044
109907
110747
111622
112593
113675
114786
115791
116568
117060
117267
117218
116595
115062
112774
109785
105871
100963
95471.2
89496.2
83598.9
78129.4
73348.7
69982.2
68071.1
67266.1
68358
72521.1
78949.8
84794.4
89777.7
94251.5
98006.3
100949
103151
104743
105826
104806
105079
105237
105308
105326
105309
105263
105184
105075
104953
104835
104737
104679
104682
104814
105231
105929
106781
107675
108547
109369
110147
110918
111739
112638
113575
114443
115116
115516
115651
115518
114819
113351
111329
108804
105575
101614
97194.7
92560.5
87864.7
83488.4
79631.7
76465.3
74585.4
74177.2
74497.4
76950.3
81754.4
86627.4
90790.1
94495.2
97678.7
100253
102263
103739
104779
104723
105015
105191
105275
105301
105291
105251
105180
105076
104954
104833
104727
104651
104629
104695
104984
105567
106345
107193
108029
108814
109540
110229
110922
111657
112424
113149
113722
114056
114154
113983
113276
111914
110138
108002
105341
102147
98586.1
94893.3
91177.7
87651.6
84519.8
81952.8
80256.2
79590.2
79709.6
81222.8
84730.4
88610.1
91983.9
95006.5
97662.3
99847.6
101570
102898
103886
104627
104941
105137
105237
105272
105269
105237
105173
105076
104957
104833
104719
104629
104583
104602
104772
105220
105902
106692
107490
108243
108929
109554
110147
110743
111351
111935
112410
112690
112769
112598
111939
110715
109170
107363
105175
102598
99743.8
96763.9
93801.9
90971.4
88437
86363.9
84936.1
84285.6
84268.8
85084.3
87342.6
90273.9
92976.3
95432
97627.4
99486.4
100997
102197
103119
104517
104853
105072
105191
105238
105244
105218
105164
105075
104960
104836
104716
104612
104543
104527
104605
104906
105466
106181
106934
107656
108311
108891
109411
109898
110370
110820
111197
111429
111497
111349
110776
109718
108389
106858
105059
102986
100704
98308.6
95919
93646.3
91598.6
89894.1
88654.5
87966.7
87770
88128
89503.5
91694.5
93842.6
95834.2
97670.5
99262.5
100596
101676
102530
104393
104751
104995
105136
105198
105213
105196
105152
105073
104964
104841
104716
104601
104511
104466
104484
104646
105058
105671
106366
107053
107683
108236
108710
109120
109488
109820
110098
110279
110338
110219
109753
108884
107764
106462
104974
103308
101491
99578.8
97656.2
95813.3
94142.9
92730
91653.3
90975.4
90702.8
90763.3
91461
92945.7
94586.1
96174.8
97713.9
99098
100282
101264
102059
104252
104631
104903
105069
105150
105176
105169
105135
105068
104968
104848
104720
104596
104489
104416
104394
104455
104706
105185
105798
106440
107045
107579
108030
108399
108698
108941
109130
109252
109294
109195
108830
108166
107268
106171
104926
103572
102120
100598
99059.7
97571.4
96199.5
95010
94063.7
93407.5
93062
92964.9
93232.1
94116.2
95330.4
96555.7
97795.3
98973.1
100028
100931
101679
104095
104493
104793
104987
105091
105132
105136
105111
105058
104971
104856
104729
104599
104478
104380
104326
104327
104438
104755
105252
105828
106398
106917
107358
107713
107982
108173
108299
108366
108380
108280
107984
107505
106837
105959
104927
103812
102634
101413
100179
98974.9
97848.7
96848.1
96016.8
95391.8
94995.2
94824.3
94847.8
95249.4
96074.8
96993.8
97948.3
98922.9
99826
100644
101350
103923
104334
104662
104888
105019
105079
105095
105081
105042
104969
104864
104740
104608
104477
104360
104275
104236
104261
104417
104762
105239
105757
106251
106686
107041
107309
107488
107585
107620
107608
107498
107240
106875
106400
105755
104944
104040
103081
102090
101090
100110
99181.2
98338.1
97612.2
97031.5
96616.9
96378.9
96291.8
96406
96851.9
97509.7
98218.2
98974.5
99722.7
100417
101057
103740
104155
104508
104767
104930
105014
105044
105043
105017
104961
104871
104754
104623
104486
104356
104246
104172
104147
104192
104373
104712
105144
105595
106014
106373
106653
106846
106951
106983
106967
106864
106631
106318
105957
105501
104910
104211
103451
102656
101845
101042
100273
99559.9
98928.1
98398.8
97989.4
97711.4
97566.1
97534.8
97692.4
98092.8
98596.2
99146.6
99730.4
100292
100820
103553
103957
104329
104621
104819
104933
104984
104996
104982
104944
104872
104767
104641
104504
104365
104239
104136
104072
104056
104111
104293
104600
104975
105358
105709
106001
106218
106352
106407
106408
106342
106158
105878
105568
105224
104802
104287
103710
103089
102442
101791
101154
100551
100000
99519.7
99125.1
98827.3
98632.3
98536.8
98538.7
98696.2
99016.2
99401.7
99826.4
100267
100684
103371
103745
104125
104446
104681
104830
104908
104937
104937
104914
104863
104776
104662
104528
104387
104249
104127
104032
103974
103961
104014
104175
104435
104749
105069
105359
105595
105762
105855
105884
105863
105759
105542
105271
104986
104669
104294
103866
103394
102891
102372
101853
101347
100869
100435
100059
99751.6
99521.8
99372.4
99302.1
99315.4
99447
99692.3
99989.5
100317
100651
103208
103529
103900
104242
104512
104699
104811
104864
104879
104870
104839
104776
104678
104556
104417
104275
104141
104025
103935
103878
103862
103902
104027
104235
104488
104749
104985
105175
105305
105373
105389
105358
105238
105031
104794
104545
104267
103951
103605
103226
102824
102411
101998
101594
101212
100864
100560
100312
100124
99998.8
99939.6
99948.2
100045
100228
100455
100706
103081
103325
103661
104010
104310
104537
104686
104770
104806
104813
104798
104759
104686
104580
104452
104312
104172
104043
103933
103845
103786
103762
103782
103866
104019
104213
104419
104608
104760
104865
104918
104930
104897
104784
104610
104417
104209
103976
103726
103456
103160
102846
102524
102200
101882
101579
101299
101053
100846
100687
100577
100520
100516
100577
100706
100874
103000
103153
103426
103757
104075
104337
104528
104649
104714
104739
104740
104721
104676
104595
104484
104353
104215
104080
103957
103851
103766
103703
103668
103666
103710
103808
103945
104099
104246
104368
104452
104497
104509
104481
104390
104257
104108
103941
103756
103564
103360
103139
102901
102656
102410
102166
101931
101711
101514
101344
101209
101111
101054
101038
101069
101151
102960
103034
103218
103499
103812
104100
104329
104492
104593
104646
104664
104662
104641
104591
104505
104392
104262
104128
103999
103883
103783
103699
103632
103586
103566
103575
103622
103706
103811
103917
104010
104078
104118
104130
104111
104047
103952
103841
103713
103570
103424
103272
103111
102938
102756
102572
102391
102215
102048
101894
101759
101647
101562
101506
101483
101492
102948
102971
103065
103264
103538
103830
104090
104293
104436
104523
104568
104583
104580
104559
104507
104419
104308
104181
104053
103931
103822
103726
103645
103577
103523
103488
103474
103482
103516
103572
103638
103701
103751
103783
103796
103787
103746
103682
103604
103510
103403
103290
103176
103057
102931
102799
102664
102531
102401
102277
102161
102057
101967
101897
101847
101821
102946
102950
102981
103086
103285
103544
103813
104049
104233
104362
104441
104483
104497
104495
104475
104424
104338
104231
104111
103990
103876
103773
103682
103604
103537
103482
103437
103407
103392
103391
103405
103430
103460
103487
103506
103514
103508
103482
103442
103389
103323
103246
103160
103071
102981
102887
102789
102690
102592
102497
102406
102321
102244
102176
102121
102080
102946
102946
102952
102987
103092
103279
103519
103765
103982
104153
104273
104349
104390
104406
104406
104389
104342
104262
104162
104051
103939
103832
103736
103650
103575
103509
103454
103409
103372
103344
103325
103314
103309
103309
103309
103308
103303
103290
103269
103239
103200
103153
103097
103035
102967
102897
102826
102753
102679
102606
102535
102468
102404
102347
102296
102254
102946
102946
102946
102952
102986
103082
103250
103466
103691
103893
104054
104171
104247
104291
104310
104314
104301
104262
104190
104099
103999
103897
103799
103709
103627
103555
103493
103439
103394
103356
103325
103300
103278
103260
103243
103228
103212
103193
103172
103147
103117
103083
103044
102999
102950
102896
102840
102781
102721
102661
102602
102545
102492
102442
102396
102357
102946
102946
102946
102946
102952
102980
103060
103203
103392
103595
103783
103939
104056
104135
104184
104209
104217
104211
104181
104120
104040
103953
103863
103775
103691
103613
103544
103483
103431
103388
103351
103320
103293
103270
103249
103228
103208
103186
103163
103137
103108
103077
103042
103004
102962
102918
102870
102820
102768
102716
102664
102613
102564
102517
102474
102435
102946
102946
102946
102946
102946
102950
102970
103031
103144
103302
103481
103656
103807
103926
104011
104067
104101
104116
104116
104098
104050
103984
103909
103833
103755
103679
103607
103540
103480
103429
103386
103350
103320
103295
103273
103252
103232
103212
103192
103169
103145
103118
103090
103059
103025
102989
102949
102908
102864
102818
102772
102724
102677
102631
102587
102545
102946
102946
102946
102946
102946
102946
102948
102961
103001
103082
103206
103358
103516
103661
103782
103875
103940
103983
104008
104016
104008
103977
103925
103864
103800
103735
103670
103605
103544
103486
103434
103389
103351
103321
103296
103276
103258
103241
103224
103208
103190
103172
103152
103130
103106
103080
103052
103022
102990
102954
102917
102877
102836
102794
102751
102708
102946
102946
102946
102946
102946
102946
102946
102947
102953
102976
103028
103116
103234
103369
103503
103624
103723
103800
103854
103890
103909
103911
103897
103862
103815
103764
103710
103657
103603
103548
103496
103446
103401
103360
103326
103298
103275
103257
103243
103229
103217
103204
103191
103177
103162
103145
103128
103109
103088
103066
103042
103016
102988
102958
102926
102892
102946
102946
102946
102946
102946
102946
102946
102946
102946
102949
102959
102987
103041
103124
103228
103343
103457
103558
103643
103710
103759
103791
103806
103805
103790
103759
103720
103678
103635
103591
103547
103503
103459
103416
103377
103341
103310
103283
103260
103241
103226
103214
103203
103193
103183
103173
103162
103150
103137
103123
103108
103092
103074
103056
103037
103017
102946
102946
102946
102946
102946
102946
102946
102946
102946
102946
102947
102950
102962