/*--------------------------------*- C++ -*----------------------------------*\
| =========                 |                                                 |
| \\      /  F ield         | OpenFOAM: The Open Source CFD Toolbox           |
|  \\    /   O peration     | Version:  2406                                  |
|   \\  /    A nd           | Website:  www.openfoam.com                      |
|    \\/     M anipulation  |                                                 |
\*---------------------------------------------------------------------------*/
FoamFile
{
    version     2.0;
    format      ascii;
    arch        "LSB;label=32;scalar=64";
    class       volScalarField;
    location    "0.095";
    object      rho;
}
// * * * * * * * * * * * * * * * * * * * * * * * * * * * * * * * * * * * * * //

dimensions      [1 -3 0 0 0 0 0];

internalField   nonuniform List<scalar> 
14020
(
4.73935
4.73934
4.73932
4.73931
4.7393
4.73929
4.7393
4.73931
4.73933
4.73937
4.73942
4.73946
4.73949
4.73952
4.73955
4.73958
4.73962
4.73967
4.73973
4.73978
4.73982
4.73986
4.73988
4.73989
4.7399
4.73991
4.73994
4.73998
4.74
4.73999
4.73997
4.73993
4.73989
4.73989
4.73991
4.73996
4.73999
4.74001
4.74002
4.74002
4.74
4.74
4.74001
4.74002
4.74002
4.74001
4.74
4.73998
4.73994
4.7399
4.73985
4.73981
4.73978
4.73978
4.73979
4.73979
4.73977
4.73975
4.73976
4.73978
4.7398
4.73982
4.73983
4.73984
4.73983
4.73981
4.73979
4.73977
4.73976
4.73974
4.73973
4.73973
4.73971
4.73969
4.73967
4.73966
4.73966
4.73966
4.73965
4.73963
4.7396
4.73956
4.73954
4.73955
4.73958
4.73961
4.73962
4.73962
4.73961
4.7396
4.73959
4.73958
4.73959
4.73959
4.73957
4.73953
4.73947
4.73942
4.73938
4.73937
4.73938
4.7394
4.73941
4.73942
4.73943
4.73945
4.73947
4.73947
4.73949
4.7395
4.73951
4.73948
4.73945
4.73944
4.73943
4.73941
4.7394
4.7394
4.73939
4.73938
4.73936
4.73934
4.73933
4.73931
4.73928
4.73928
4.73929
4.7393
4.73931
4.73931
4.73933
4.73933
4.73931
4.73928
4.73927
4.73926
4.73926
4.73925
4.73925
4.73925
4.73923
4.73921
4.7392
4.73921
4.73922
4.73922
4.73922
4.73922
4.73918
4.73909
4.73901
4.73903
4.7391
4.73926
4.73957
4.73998
4.73986
4.73857
4.73455
4.72711
4.71692
4.70511
4.69253
4.67962
4.66658
4.65345
4.64028
4.62707
4.61383
4.60057
4.58729
4.574
4.56072
4.54745
4.53419
4.52094
4.50771
4.49448
4.48127
4.46807
4.45489
4.44172
4.42857
4.41544
4.40233
4.38924
4.37617
4.36311
4.35008
4.33708
4.32411
4.31117
4.29825
4.28536
4.27248
4.25962
4.24678
4.23397
4.22119
4.20843
4.19573
4.18302
4.17039
4.15768
4.14513
4.13242
4.11997
4.10728
4.0949
4.08223
4.06993
4.0573
4.04507
4.03248
4.02033
4.00773
3.99562
3.98296
3.97085
3.95805
3.94593
3.93299
3.92095
3.90792
3.89591
3.88198
3.86828
3.85122
3.83657
3.81524
3.80523
4.73935
4.73934
4.73932
4.73931
4.7393
4.73929
4.7393
4.73931
4.73933
4.73937
4.73942
4.73946
4.73949
4.73952
4.73955
4.73958
4.73962
4.73967
4.73973
4.73978
4.73982
4.73986
4.73988
4.73989
4.7399
4.73991
4.73994
4.73998
4.74
4.73999
4.73997
4.73993
4.73989
4.73989
4.73991
4.73996
4.73999
4.74001
4.74002
4.74002
4.74
4.74
4.74001
4.74002
4.74002
4.74001
4.74
4.73998
4.73994
4.7399
4.73985
4.73981
4.73978
4.73978
4.73979
4.73979
4.73977
4.73975
4.73976
4.73978
4.7398
4.73982
4.73983
4.73984
4.73983
4.73981
4.73979
4.73977
4.73976
4.73974
4.73973
4.73973
4.73971
4.73969
4.73967
4.73966
4.73966
4.73966
4.73965
4.73963
4.7396
4.73956
4.73954
4.73955
4.73958
4.73961
4.73962
4.73962
4.73961
4.7396
4.73959
4.73958
4.73959
4.73959
4.73957
4.73953
4.73947
4.73942
4.73938
4.73937
4.73938
4.7394
4.73941
4.73942
4.73943
4.73945
4.73947
4.73947
4.73949
4.7395
4.73951
4.73948
4.73945
4.73944
4.73943
4.73941
4.7394
4.7394
4.73939
4.73938
4.73936
4.73934
4.73933
4.73931
4.73928
4.73928
4.73929
4.7393
4.73931
4.73931
4.73933
4.73933
4.73931
4.73928
4.73927
4.73926
4.73926
4.73925
4.73925
4.73925
4.73923
4.73921
4.7392
4.73921
4.73922
4.73922
4.73922
4.73922
4.73918
4.73909
4.73901
4.73903
4.7391
4.73926
4.73957
4.73998
4.73986
4.73857
4.73455
4.72711
4.71692
4.70511
4.69253
4.67962
4.66658
4.65346
4.64028
4.62707
4.61383
4.60056
4.58728
4.574
4.56072
4.54745
4.53419
4.52094
4.50771
4.49448
4.48127
4.46807
4.45489
4.44172
4.42857
4.41544
4.40233
4.38924
4.37616
4.36311
4.35008
4.33708
4.32411
4.31117
4.29825
4.28536
4.27248
4.25962
4.24678
4.23397
4.22119
4.20843
4.19573
4.18301
4.17039
4.15767
4.14513
4.13241
4.11997
4.10726
4.0949
4.08222
4.06994
4.05729
4.04509
4.03246
4.02034
4.00771
3.99563
3.98294
3.97086
3.95802
3.94595
3.93296
3.92096
3.90787
3.89591
3.8819
3.86827
3.8511
3.83654
3.81513
3.80507
4.73935
4.73934
4.73932
4.73931
4.7393
4.73929
4.7393
4.73931
4.73933
4.73937
4.73942
4.73946
4.73949
4.73952
4.73955
4.73958
4.73962
4.73967
4.73973
4.73978
4.73982
4.73986
4.73988
4.73989
4.7399
4.73991
4.73994
4.73998
4.74
4.73999
4.73997
4.73993
4.73989
4.73989
4.73991
4.73996
4.73999
4.74001
4.74002
4.74002
4.74
4.74
4.74001
4.74002
4.74002
4.74001
4.74
4.73998
4.73994
4.7399
4.73985
4.73981
4.73978
4.73978
4.73979
4.73979
4.73977
4.73975
4.73976
4.73978
4.7398
4.73982
4.73983
4.73984
4.73983
4.73981
4.73979
4.73977
4.73976
4.73974
4.73973
4.73973
4.73971
4.73969
4.73967
4.73966
4.73966
4.73966
4.73965
4.73963
4.7396
4.73956
4.73954
4.73955
4.73958
4.73961
4.73962
4.73962
4.73961
4.7396
4.73959
4.73958
4.73959
4.73959
4.73957
4.73953
4.73947
4.73942
4.73938
4.73937
4.73938
4.7394
4.73941
4.73942
4.73943
4.73945
4.73947
4.73947
4.73949
4.7395
4.73951
4.73948
4.73945
4.73944
4.73943
4.73941
4.7394
4.7394
4.73939
4.73938
4.73936
4.73934
4.73933
4.73931
4.73928
4.73928
4.73929
4.7393
4.7393
4.73931
4.73933
4.73933
4.73931
4.73928
4.73927
4.73926
4.73926
4.73925
4.73925
4.73925
4.73923
4.73921
4.7392
4.73921
4.73922
4.73922
4.73923
4.73922
4.73918
4.73909
4.73901
4.73903
4.7391
4.73926
4.73957
4.73998
4.73986
4.73857
4.73455
4.72711
4.71692
4.70511
4.69253
4.67962
4.66658
4.65346
4.64029
4.62707
4.61383
4.60056
4.58728
4.574
4.56072
4.54745
4.53419
4.52094
4.5077
4.49448
4.48127
4.46807
4.45489
4.44172
4.42857
4.41544
4.40233
4.38924
4.37616
4.36311
4.35008
4.33708
4.32411
4.31117
4.29824
4.28535
4.27247
4.25962
4.24678
4.23397
4.22119
4.20843
4.19573
4.18301
4.17039
4.15766
4.14513
4.1324
4.11998
4.10725
4.09491
4.08222
4.06995
4.05728
4.04509
4.03245
4.02034
4.00769
3.99563
3.98291
3.97087
3.958
3.94596
3.93293
3.92097
3.90782
3.89594
3.88183
3.86828
3.85093
3.83651
3.81493
3.80496
4.73935
4.73934
4.73932
4.73931
4.7393
4.73929
4.7393
4.73931
4.73933
4.73937
4.73942
4.73946
4.73949
4.73952
4.73955
4.73958
4.73962
4.73967
4.73973
4.73978
4.73982
4.73986
4.73988
4.73989
4.7399
4.73991
4.73994
4.73998
4.74
4.73999
4.73997
4.73993
4.73989
4.73989
4.73991
4.73996
4.73999
4.74001
4.74002
4.74002
4.74
4.74
4.74001
4.74002
4.74002
4.74001
4.74
4.73998
4.73994
4.7399
4.73985
4.73981
4.73978
4.73978
4.73979
4.73979
4.73977
4.73975
4.73976
4.73978
4.7398
4.73982
4.73983
4.73984
4.73983
4.73981
4.73979
4.73977
4.73976
4.73974
4.73973
4.73973
4.73971
4.73969
4.73967
4.73966
4.73966
4.73966
4.73965
4.73963
4.7396
4.73956
4.73954
4.73955
4.73958
4.73961
4.73962
4.73962
4.73961
4.7396
4.73959
4.73958
4.73959
4.73959
4.73957
4.73952
4.73947
4.73942
4.73938
4.73937
4.73938
4.7394
4.73941
4.73942
4.73943
4.73945
4.73947
4.73947
4.73949
4.7395
4.73951
4.73948
4.73945
4.73944
4.73943
4.73941
4.7394
4.7394
4.73939
4.73938
4.73936
4.73934
4.73933
4.73931
4.73928
4.73928
4.73929
4.7393
4.7393
4.73931
4.73933
4.73933
4.73931
4.73928
4.73927
4.73926
4.73926
4.73925
4.73925
4.73925
4.73923
4.73921
4.7392
4.73921
4.73921
4.73922
4.73923
4.73922
4.73918
4.73909
4.73901
4.73903
4.7391
4.73926
4.73957
4.73998
4.73987
4.73857
4.73455
4.72711
4.71692
4.70511
4.69253
4.67962
4.66658
4.65346
4.64029
4.62707
4.61382
4.60056
4.58728
4.574
4.56072
4.54745
4.53419
4.52094
4.5077
4.49448
4.48127
4.46807
4.45489
4.44172
4.42857
4.41544
4.40232
4.38923
4.37616
4.36311
4.35009
4.33709
4.32411
4.31117
4.29824
4.28535
4.27247
4.25962
4.24678
4.23397
4.22119
4.20843
4.19573
4.18301
4.17039
4.15765
4.14514
4.13239
4.11999
4.10724
4.09493
4.08221
4.06997
4.05728
4.0451
4.03243
4.02035
4.00766
3.99564
3.98288
3.97088
3.95796
3.94598
3.93288
3.92099
3.90776
3.896
3.88175
3.8683
3.85067
3.83648
3.81455
3.80468
4.73935
4.73934
4.73932
4.73931
4.7393
4.73929
4.7393
4.73931
4.73933
4.73937
4.73942
4.73946
4.73949
4.73952
4.73955
4.73958
4.73962
4.73967
4.73973
4.73978
4.73982
4.73986
4.73988
4.73989
4.7399
4.73991
4.73994
4.73998
4.74
4.73999
4.73997
4.73993
4.73989
4.73989
4.73991
4.73996
4.73999
4.74001
4.74002
4.74002
4.74
4.74
4.74001
4.74002
4.74002
4.74001
4.74
4.73998
4.73994
4.7399
4.73985
4.73981
4.73978
4.73978
4.73979
4.73979
4.73977
4.73975
4.73976
4.73978
4.7398
4.73982
4.73983
4.73984
4.73983
4.73981
4.73979
4.73977
4.73976
4.73974
4.73973
4.73973
4.73971
4.73969
4.73967
4.73966
4.73966
4.73966
4.73965
4.73963
4.7396
4.73956
4.73954
4.73955
4.73958
4.73961
4.73962
4.73962
4.73961
4.7396
4.73959
4.73958
4.73959
4.73959
4.73957
4.73952
4.73947
4.73942
4.73938
4.73937
4.73937
4.7394
4.73941
4.73942
4.73943
4.73945
4.73947
4.73947
4.73949
4.7395
4.73951
4.73948
4.73945
4.73944
4.73943
4.73941
4.7394
4.7394
4.73939
4.73938
4.73936
4.73934
4.73933
4.73931
4.73928
4.73928
4.73929
4.7393
4.7393
4.73931
4.73933
4.73933
4.73931
4.73928
4.73927
4.73927
4.73926
4.73925
4.73925
4.73925
4.73923
4.73921
4.7392
4.73921
4.73921
4.73922
4.73923
4.73922
4.73918
4.73909
4.73901
4.73903
4.7391
4.73926
4.73957
4.73999
4.73987
4.73857
4.73455
4.72711
4.71692
4.70511
4.69253
4.67962
4.66658
4.65346
4.64029
4.62707
4.61382
4.60056
4.58728
4.57401
4.56073
4.54745
4.53419
4.52094
4.5077
4.49448
4.48127
4.46808
4.45489
4.44172
4.42857
4.41543
4.40232
4.38923
4.37616
4.36312
4.35009
4.33709
4.32411
4.31117
4.29824
4.28535
4.27247
4.25962
4.24678
4.23397
4.22119
4.20843
4.19573
4.183
4.17039
4.15764
4.14514
4.13238
4.12
4.10724
4.09494
4.08221
4.06998
4.05727
4.04511
4.03241
4.02035
4.00763
3.99565
3.98284
3.97089
3.95793
3.94601
3.93282
3.92102
3.9077
3.89608
3.88163
3.86833
3.85034
3.83644
3.81394
3.8042
4.73935
4.73934
4.73932
4.73931
4.7393
4.73929
4.7393
4.73931
4.73933
4.73937
4.73942
4.73946
4.73949
4.73952
4.73955
4.73958
4.73962
4.73967
4.73973
4.73978
4.73982
4.73986
4.73988
4.73989
4.7399
4.73991
4.73994
4.73998
4.74
4.73999
4.73997
4.73993
4.73989
4.73989
4.73991
4.73996
4.73999
4.74001
4.74002
4.74002
4.74
4.74
4.74001
4.74002
4.74002
4.74001
4.74
4.73998
4.73994
4.7399
4.73985
4.73981
4.73978
4.73978
4.73979
4.73979
4.73977
4.73975
4.73976
4.73978
4.7398
4.73982
4.73983
4.73984
4.73983
4.73981
4.73979
4.73977
4.73976
4.73974
4.73973
4.73973
4.73971
4.73969
4.73967
4.73966
4.73966
4.73966
4.73965
4.73963
4.7396
4.73956
4.73954
4.73955
4.73958
4.73961
4.73962
4.73962
4.73961
4.7396
4.73959
4.73958
4.73959
4.73959
4.73957
4.73952
4.73947
4.73942
4.73938
4.73937
4.73937
4.7394
4.73941
4.73942
4.73944
4.73945
4.73946
4.73947
4.73949
4.73951
4.73951
4.73948
4.73945
4.73944
4.73943
4.73941
4.7394
4.7394
4.73939
4.73938
4.73936
4.73934
4.73933
4.73931
4.73929
4.73928
4.73929
4.7393
4.7393
4.73931
4.73933
4.73933
4.73931
4.73928
4.73927
4.73927
4.73926
4.73925
4.73925
4.73925
4.73923
4.73921
4.7392
4.7392
4.73921
4.73922
4.73923
4.73922
4.73918
4.73909
4.73901
4.73903
4.7391
4.73926
4.73957
4.73999
4.73987
4.73857
4.73455
4.72711
4.71692
4.70511
4.69253
4.67962
4.66658
4.65346
4.64029
4.62707
4.61382
4.60055
4.58728
4.57401
4.56073
4.54745
4.53419
4.52093
4.5077
4.49448
4.48127
4.46808
4.4549
4.44173
4.42857
4.41543
4.40232
4.38923
4.37616
4.36312
4.35009
4.3371
4.32412
4.31117
4.29824
4.28535
4.27247
4.25962
4.24678
4.23397
4.22119
4.20843
4.19573
4.18299
4.17038
4.15763
4.14515
4.13237
4.12001
4.10723
4.09496
4.08222
4.07
4.05727
4.04512
4.03238
4.02036
4.0076
3.99566
3.98281
3.97091
3.95789
3.94604
3.93276
3.92106
3.90764
3.89615
3.88149
3.86838
3.84992
3.83643
3.81303
3.80353
4.73935
4.73934
4.73932
4.73931
4.7393
4.73929
4.7393
4.73931
4.73933
4.73937
4.73942
4.73946
4.73949
4.73952
4.73955
4.73958
4.73962
4.73967
4.73973
4.73978
4.73982
4.73986
4.73988
4.73989
4.7399
4.73991
4.73994
4.73998
4.74
4.73999
4.73997
4.73993
4.73989
4.73989
4.73991
4.73996
4.73999
4.74001
4.74002
4.74002
4.74
4.74
4.74001
4.74002
4.74002
4.74001
4.74
4.73998
4.73994
4.7399
4.73985
4.73981
4.73978
4.73978
4.73979
4.73979
4.73977
4.73975
4.73976
4.73978
4.7398
4.73982
4.73983
4.73984
4.73983
4.73981
4.73979
4.73977
4.73976
4.73974
4.73973
4.73973
4.73971
4.73969
4.73967
4.73966
4.73966
4.73966
4.73965
4.73963
4.7396
4.73956
4.73954
4.73955
4.73958
4.73961
4.73962
4.73962
4.73961
4.7396
4.73959
4.73958
4.73959
4.73959
4.73957
4.73952
4.73947
4.73942
4.73938
4.73937
4.73937
4.7394
4.73941
4.73942
4.73944
4.73945
4.73946
4.73947
4.73949
4.73951
4.73951
4.73948
4.73945
4.73944
4.73943
4.73941
4.7394
4.7394
4.73939
4.73938
4.73936
4.73934
4.73933
4.73931
4.73929
4.73928
4.73929
4.7393
4.7393
4.73931
4.73933
4.73933
4.73931
4.73928
4.73927
4.73927
4.73926
4.73925
4.73925
4.73925
4.73923
4.73921
4.7392
4.7392
4.73921
4.73922
4.73923
4.73922
4.73918
4.73909
4.73901
4.73903
4.7391
4.73926
4.73957
4.73999
4.73987
4.73857
4.73455
4.72711
4.71692
4.70511
4.69253
4.67962
4.66658
4.65346
4.64029
4.62707
4.61382
4.60055
4.58728
4.57401
4.56073
4.54746
4.53419
4.52093
4.5077
4.49448
4.48127
4.46808
4.4549
4.44173
4.42857
4.41543
4.40231
4.38922
4.37616
4.36312
4.3501
4.3371
4.32412
4.31117
4.29823
4.28534
4.27247
4.25962
4.24679
4.23398
4.22119
4.20843
4.19573
4.18299
4.17038
4.15762
4.14515
4.13236
4.12001
4.10722
4.09497
4.08222
4.07002
4.05726
4.04513
4.03236
4.02037
4.00758
3.99567
3.98278
3.97093
3.95785
3.94606
3.93269
3.9211
3.90757
3.89624
3.88135
3.86846
3.84943
3.83643
3.81178
3.80291
4.73935
4.73934
4.73932
4.73931
4.7393
4.73929
4.7393
4.73931
4.73933
4.73937
4.73942
4.73946
4.73949
4.73952
4.73955
4.73958
4.73962
4.73967
4.73973
4.73978
4.73982
4.73986
4.73988
4.73989
4.7399
4.73991
4.73994
4.73998
4.74
4.73999
4.73997
4.73993
4.73989
4.73989
4.73991
4.73996
4.73999
4.74001
4.74002
4.74002
4.74
4.74
4.74001
4.74002
4.74002
4.74001
4.74
4.73998
4.73994
4.7399
4.73985
4.73981
4.73978
4.73978
4.73979
4.73979
4.73977
4.73975
4.73976
4.73978
4.7398
4.73982
4.73983
4.73984
4.73983
4.73981
4.73979
4.73977
4.73976
4.73974
4.73973
4.73973
4.73971
4.73969
4.73967
4.73966
4.73966
4.73966
4.73965
4.73963
4.7396
4.73956
4.73954
4.73955
4.73958
4.73961
4.73962
4.73962
4.73961
4.7396
4.73959
4.73958
4.73959
4.73959
4.73957
4.73952
4.73947
4.73942
4.73938
4.73937
4.73937
4.73939
4.73941
4.73942
4.73944
4.73945
4.73946
4.73947
4.73949
4.73951
4.73951
4.73948
4.73945
4.73944
4.73943
4.73941
4.7394
4.7394
4.73939
4.73938
4.73936
4.73934
4.73933
4.73931
4.73929
4.73928
4.73929
4.7393
4.7393
4.73931
4.73933
4.73933
4.73931
4.73928
4.73927
4.73927
4.73926
4.73925
4.73925
4.73925
4.73923
4.73921
4.7392
4.7392
4.73921
4.73922
4.73923
4.73922
4.73918
4.73909
4.73901
4.73903
4.7391
4.73926
4.73957
4.73999
4.73987
4.73857
4.73455
4.72711
4.71692
4.70511
4.69253
4.67962
4.66658
4.65346
4.64029
4.62707
4.61381
4.60055
4.58728
4.57401
4.56074
4.54746
4.53419
4.52093
4.5077
4.49448
4.48127
4.46808
4.4549
4.44173
4.42857
4.41543
4.40231
4.38922
4.37616
4.36312
4.3501
4.3371
4.32412
4.31117
4.29823
4.28534
4.27247
4.25962
4.24679
4.23398
4.22119
4.20843
4.19573
4.18298
4.17038
4.15762
4.14515
4.13235
4.12002
4.10722
4.09498
4.08223
4.07003
4.05725
4.04513
4.03235
4.02038
4.00756
3.99567
3.98276
3.97091
3.95781
3.94608
3.93265
3.92112
3.90753
3.89635
3.88127
3.8685
3.8489
3.83643
3.81034
3.8025
4.73935
4.73934
4.73932
4.73931
4.7393
4.73929
4.73929
4.73931
4.73933
4.73937
4.73942
4.73946
4.73949
4.73952
4.73955
4.73958
4.73962
4.73967
4.73973
4.73978
4.73982
4.73986
4.73988
4.73989
4.7399
4.73991
4.73994
4.73998
4.74
4.73999
4.73997
4.73993
4.73989
4.73989
4.73991
4.73996
4.73999
4.74001
4.74002
4.74002
4.74
4.74
4.74001
4.74002
4.74002
4.74001
4.74
4.73998
4.73994
4.7399
4.73985
4.73981
4.73978
4.73978
4.73979
4.73979
4.73977
4.73975
4.73976
4.73978
4.7398
4.73982
4.73983
4.73984
4.73983
4.73981
4.73979
4.73977
4.73976
4.73974
4.73973
4.73973
4.73971
4.73969
4.73967
4.73966
4.73966
4.73966
4.73965
4.73963
4.7396
4.73956
4.73954
4.73955
4.73958
4.73961
4.73962
4.73962
4.73961
4.7396
4.73959
4.73958
4.73959
4.73959
4.73957
4.73952
4.73947
4.73942
4.73938
4.73937
4.73937
4.73939
4.73941
4.73942
4.73944
4.73945
4.73946
4.73947
4.73949
4.73951
4.73951
4.73948
4.73945
4.73944
4.73943
4.73941
4.7394
4.7394
4.73939
4.73938
4.73936
4.73934
4.73933
4.73931
4.73929
4.73928
4.73929
4.7393
4.7393
4.73931
4.73933
4.73933
4.73931
4.73928
4.73927
4.73927
4.73926
4.73925
4.73925
4.73925
4.73923
4.73921
4.7392
4.7392
4.73921
4.73922
4.73923
4.73922
4.73918
4.73909
4.73901
4.73903
4.7391
4.73926
4.73957
4.73999
4.73987
4.73857
4.73455
4.72711
4.71692
4.70511
4.69253
4.67963
4.66659
4.65346
4.64029
4.62706
4.61381
4.60054
4.58728
4.57401
4.56074
4.54746
4.53418
4.52093
4.5077
4.49448
4.48127
4.46808
4.4549
4.44173
4.42857
4.41543
4.40231
4.38922
4.37616
4.36312
4.3501
4.33711
4.32412
4.31117
4.29823
4.28534
4.27247
4.25962
4.24679
4.23398
4.2212
4.20843
4.19573
4.18298
4.17038
4.15761
4.14516
4.13234
4.12003
4.10722
4.095
4.08223
4.07004
4.05724
4.04514
4.03233
4.02039
4.00753
3.99567
3.98272
3.97089
3.95777
3.94611
3.93263
3.92115
3.90749
3.89647
3.88117
3.86851
3.84831
3.83653
3.80885
3.80257
1.24241
1.24255
1.24234
1.24189
1.2412
1.24027
1.23929
1.23845
1.2379
1.23791
1.23914
1.24346
1.25098
1.26034
1.27032
1.28024
1.29002
1.30025
1.31215
1.32692
1.34459
1.36366
1.38247
1.40048
1.41809
1.43582
1.4542
1.4737
1.49244
1.50374
1.49451
1.4429
1.3513
1.24228
1.1232
1.00586
0.923728
0.871987
0.797158
0.7389
0.724172
0.727466
0.762125
0.815026
0.875166
0.935289
0.990755
1.03972
1.08046
1.11077
1.13216
1.14827
1.15739
1.16055
1.15761
1.15137
1.1417
1.13124
1.12064
1.10906
1.09786
1.0872
1.07781
1.07443
1.07563
1.07146
1.06208
1.05522
1.05099
1.04819
1.04644
1.04621
1.0467
1.04644
1.04504
1.04494
1.04916
1.05095
1.05351
1.06019
1.06824
1.07448
1.07614
1.07382
1.0708
1.06578
1.05835
1.0513
1.04525
1.04192
1.04039
1.03997
1.04199
1.04487
1.04753
1.05192
1.05569
1.06339
1.07528
1.10917
1.24169
1.24232
1.24248
1.24229
1.24186
1.24118
1.24027
1.23927
1.23841
1.23781
1.23776
1.23878
1.24268
1.24981
1.2589
1.26869
1.27847
1.28809
1.29799
1.30928
1.32315
1.33986
1.35813
1.3763
1.39363
1.41036
1.42702
1.44395
1.46148
1.47816
1.48828
1.48079
1.43025
1.33215
1.21256
1.08953
0.965506
0.902258
0.861778
0.803834
0.74423
0.720108
0.72253
0.747567
0.799592
0.855541
0.917616
0.97847
1.03619
1.08442
1.12472
1.15268
1.17154
1.18213
1.18517
1.18194
1.1741
1.16225
1.14931
1.13684
1.12427
1.11235
1.10185
1.09299
1.08783
1.08369
1.07812
1.07012
1.06384
1.05879
1.05564
1.05452
1.05563
1.05759
1.05917
1.06043
1.06146
1.06409
1.06848
1.07051
1.07568
1.08166
1.08587
1.0875
1.0863
1.08318
1.07758
1.07063
1.06465
1.06176
1.06012
1.05995
1.06108
1.06354
1.06739
1.07163
1.07884
1.09108
1.11068
1.13531
1.24155
1.24222
1.2424
1.24224
1.24182
1.24117
1.24026
1.23926
1.23837
1.23772
1.2376
1.23841
1.24186
1.24855
1.25731
1.26688
1.27651
1.28595
1.29553
1.3062
1.31913
1.33477
1.35213
1.36956
1.3861
1.40186
1.41727
1.43257
1.44785
1.46187
1.47014
1.46378
1.41754
1.31976
1.19379
1.06352
0.934552
0.883222
0.845672
0.794463
0.73857
0.707402
0.707475
0.722017
0.76913
0.82846
0.889435
0.956195
1.02174
1.07665
1.12408
1.1598
1.18538
1.20215
1.20963
1.20989
1.20539
1.19634
1.18411
1.17041
1.1562
1.14299
1.13159
1.12224
1.11541
1.10954
1.10229
1.09454
1.08828
1.08356
1.08119
1.08004
1.08012
1.0817
1.08375
1.0854
1.08793
1.08991
1.09539
1.10005
1.10479
1.10994
1.11357
1.11481
1.11358
1.11076
1.10679
1.10224
1.09878
1.09715
1.09732
1.23986
1.24139
1.2421
1.24231
1.24218
1.24178
1.24115
1.24025
1.23925
1.23833
1.23763
1.23744
1.23805
1.24101
1.24719
1.25559
1.2649
1.27435
1.28361
1.29288
1.30294
1.31489
1.32936
1.34568
1.36227
1.37796
1.39264
1.40668
1.42024
1.43308
1.44404
1.45011
1.44431
1.4048
1.31584
1.1903
1.05074
0.917057
0.865255
0.829237
0.775496
0.718772
0.680758
0.675619
0.685356
0.726027
0.794065
0.856109
0.930214
1.00119
1.06221
1.11661
1.15918
1.18948
1.20994
1.22155
1.22583
1.22543
1.22147
1.2396
1.2412
1.24197
1.24221
1.2421
1.24173
1.24112
1.24024
1.23924
1.23829
1.23755
1.23727
1.23769
1.24014
1.24575
1.25372
1.26275
1.27198
1.28105
1.29002
1.29949
1.31046
1.32368
1.33882
1.35445
1.36924
1.38279
1.39537
1.40707
1.41747
1.42548
1.42934
1.4235
1.39087
1.31874
1.20542
1.05485
0.915593
0.849951
0.810089
0.756997
0.699044
0.654196
0.64217
0.648495
0.682288
0.754999
0.822501
0.902383
0.98163
1.05042
1.10751
1.15283
1.18649
1.21017
1.22516
1.23277
1.2393
1.24099
1.24182
1.24209
1.24202
1.24168
1.24109
1.24023
1.23923
1.23826
1.23748
1.2371
1.23735
1.23928
1.24424
1.25172
1.26041
1.26941
1.27827
1.28694
1.29586
1.30588
1.31781
1.33163
1.34617
1.36
1.37243
1.38352
1.39335
1.40149
1.40693
1.40863
1.40131
1.37475
1.3181
1.22344
1.09335
0.942299
0.853743
0.800604
0.747936
0.689895
0.638854
0.619511
0.623122
0.654891
0.725522
0.801912
0.884922
0.968537
1.03922
1.10043
1.15056
1.18675
1.21099
1.22676
1.23895
1.24074
1.24164
1.24195
1.24192
1.24161
1.24105
1.24022
1.23922
1.23823
1.23741
1.23693
1.23703
1.23845
1.2427
1.24959
1.25789
1.26662
1.27526
1.28365
1.29206
1.30118
1.31181
1.3242
1.33752
1.35033
1.36166
1.37132
1.37936
1.38546
1.38873
1.38823
1.37862
1.35515
1.31341
1.2414
1.13715
1.00709
0.89307
0.815578
0.750309
0.689316
0.639407
0.617806
0.622631
0.65473
0.722117
0.801925
0.886882
0.971931
1.04677
1.10874
1.15292
1.18848
1.21343
1.22948
1.23855
1.24045
1.24143
1.2418
1.24181
1.24153
1.24101
1.24021
1.23922
1.23821
1.23734
1.23677
1.23672
1.23768
1.24116
1.24737
1.25521
1.26363
1.27202
1.28013
1.28809
1.2964
1.30578
1.31668
1.32862
1.34032
1.35061
1.35899
1.3654
1.36964
1.37142
1.36895
1.35738
1.33523
1.30228
1.251
1.17528
1.07554
0.974087
0.884988
0.80499
0.739232
0.691517
0.668407
0.669934
0.700329
0.764666
0.84051
0.919334
0.997399
1.06619
1.1224
1.16463
1.19683
1.21925
1.23342
1.2381
1.24011
1.24119
1.24162
1.24168
1.24143
1.24095
1.24019
1.23922
1.2382
1.23728
1.23662
1.23643
1.237
1.23965
1.24507
1.25239
1.26045
1.26856
1.2764
1.28394
1.29154
1.29978
1.3092
1.31964
1.33012
1.3394
1.34668
1.35173
1.35447
1.35507
1.35103
1.33847
1.31774
1.28957
1.25041
1.19669
1.12824
1.0475
0.968906
0.900946
0.839204
0.788004
0.757862
0.751829
0.775624
0.834557
0.906105
0.973113
1.03646
1.094
1.14166
1.17839
1.20502
1.22369
1.23627
1.23757
1.23972
1.24091
1.24142
1.24152
1.24132
1.24089
1.24017
1.23922
1.23819
1.23723
1.23649
1.23615
1.23642
1.23825
1.24277
1.24943
1.25708
1.26489
1.27245
1.27963
1.28661
1.29385
1.30188
1.31079
1.31993
1.32816
1.33452
1.33855
1.34024
1.33984
1.33473
1.32211
1.30328
1.27883
1.24673
1.20527
1.15641
1.09994
1.04048
0.982042
0.928978
0.889888
0.866723
0.857381
0.868583
0.909321
0.971463
1.02878
1.07834
1.12262
1.15968
1.1888
1.2106
1.22645
1.23741
1.23696
1.23926
1.24059
1.24118
1.24134
1.24119
1.24081
1.24014
1.23922
1.2382
1.2372
1.23638
1.23589
1.23591
1.23702
1.24053
1.2464
1.25355
1.26103
1.26831
1.27516
1.28162
1.28803
1.29482
1.30225
1.30998
1.31711
1.32263
1.32591
1.32703
1.32594
1.3202
1.30809
1.29134
1.27034
1.24348
1.21043
1.17319
1.1329
1.09003
1.0477
1.00856
0.975828
0.955622
0.950054
0.952924
0.975846
1.02089
1.06681
1.10606
1.14056
1.16998
1.19359
1.21188
1.22543
1.23507
1.23626
1.23872
1.2402
1.24091
1.24113
1.24104
1.24071
1.24011
1.23923
1.23821
1.23719
1.23629
1.23566
1.23547
1.23602
1.23846
1.24336
1.2499
1.25699
1.26399
1.27054
1.27659
1.28231
1.28806
1.29415
1.30048
1.30646
1.31118
1.31393
1.31474
1.31333
1.30751
1.29625
1.28152
1.26367
1.24132
1.21444
1.18446
1.15326
1.12146
1.09056
1.06229
1.03842
1.02207
1.0152
1.01598
1.02953
1.06118
1.09593
1.12589
1.15275
1.17627
1.19545
1.21051
1.22209
1.23063
1.23545
1.23809
1.23975
1.24059
1.24088
1.24086
1.24058
1.24005
1.23923
1.23823
1.23719
1.23623
1.23547
1.23508
1.23524
1.23667
1.24044
1.24618
1.2528
1.25949
1.26578
1.2715
1.2767
1.28163
1.28657
1.29161
1.29644
1.30037
1.30268
1.30333
1.30192
1.29647
1.28634
1.27349
1.25839
1.23999
1.21818
1.19394
1.16859
1.14338
1.11926
1.09757
1.07969
1.06728
1.06171
1.06172
1.06916
1.08931
1.11497
1.13832
1.15944
1.17818
1.19403
1.20697
1.21714
1.22488
1.23453
1.23736
1.2392
1.2402
1.24059
1.24065
1.24043
1.23997
1.23923
1.23826
1.23721
1.2362
1.23532
1.23474
1.23461
1.23526
1.2378
1.24251
1.24852
1.25483
1.26087
1.26634
1.27118
1.27551
1.27956
1.28348
1.28722
1.29033
1.29226
1.29283
1.2916
1.28685
1.27806
1.26698
1.25418
1.23907
1.22153
1.20212
1.18163
1.16113
1.14162
1.12406
1.10947
1.09891
1.09322
1.09176
1.0951
1.10748
1.12691
1.14576
1.16291
1.1785
1.19195
1.20319
1.21228
1.21945
1.23347
1.23649
1.23855
1.23973
1.24026
1.24038
1.24024
1.23987
1.23921
1.23829
1.23725
1.2362
1.23523
1.23447
1.23409
1.23424
1.23561
1.23908
1.24424
1.25007
1.25583
1.2611
1.26571
1.26967
1.27309
1.27615
1.27891
1.28123
1.28272
1.28321
1.28223
1.27836
1.27112
1.26177
1.25087
1.23837
1.2243
1.20887
1.19255
1.17604
1.16015
1.14571
1.13349
1.1242
1.11841
1.11618
1.11682
1.12304
1.13615
1.15057
1.16445
1.17779
1.18962
1.19965
1.20795
1.21468
1.23229
1.23549
1.23778
1.23917
1.23985
1.24007
1.24001
1.23973
1.23917
1.23832
1.23731
1.23624
1.23519
1.23429
1.23367
1.23349
1.234
1.23612
1.24015
1.2453
1.25069
1.25576
1.26023
1.264
1.26708
1.26957
1.2716
1.27318
1.27419
1.27454
1.27371
1.27067
1.26514
1.25762
1.24843
1.23796
1.22654
1.21424
1.20129
1.18814
1.17535
1.1635
1.1532
1.14498
1.13928
1.13629
1.13547
1.13781
1.14552
1.15609
1.16673
1.17749
1.18766
1.19669
1.20441
1.21078
1.23096
1.23432
1.23685
1.23848
1.23936
1.2397
1.23974
1.23953
1.23908
1.23835
1.23738
1.23631
1.23521
1.23419
1.23337
1.23291
1.23292
1.23385
1.23653
1.24071
1.24555
1.25034
1.25469
1.25838
1.26135
1.2636
1.26519
1.26624
1.2668
1.26692
1.26608
1.26362
1.25961
1.25401
1.24665
1.23798
1.22857
1.2186
1.20824
1.19773
1.18743
1.17776
1.16914
1.16195
1.15652
1.15307
1.15157
1.15176
1.15522
1.16234
1.17024
1.17844
1.18684
1.19459
1.20159
1.20763
1.22951
1.23298
1.23575
1.23765
1.23875
1.23926
1.23939
1.23928
1.23895
1.23834
1.23745
1.23641
1.23529
1.23419
1.2332
1.23248
1.23216
1.23236
1.23368
1.23659
1.2406
1.24496
1.24911
1.25275
1.25573
1.25797
1.25947
1.26028
1.26058
1.26048
1.25955
1.25739
1.25434
1.25036
1.24494
1.23812
1.23049
1.22239
1.21399
1.2055
1.19714
1.1892
1.18198
1.17574
1.17073
1.16715
1.16508
1.16432
1.16529
1.16911
1.17475
1.1808
1.18726
1.19367
1.19961
1.20507
1.22797
1.23147
1.23445
1.23663
1.238
1.23871
1.23897
1.23896
1.23874
1.23827
1.23751
1.23652
1.23541
1.23426
1.23317
1.23224
1.23162
1.2314
1.23178
1.23331
1.23616
1.2398
1.24359
1.24712
1.25013
1.25248
1.2541
1.25497
1.25525
1.25511
1.25425
1.2523
1.24967
1.24664
1.24281
1.23783
1.23194
1.22552
1.21879
1.21191
1.20509
1.19853
1.19244
1.18704
1.1825
1.17899
1.17659
1.17534
1.17507
1.17641
1.17984
1.18415
1.18884
1.19382
1.19861
1.20311
1.22638
1.2298
1.23294
1.2354
1.23706
1.23803
1.23846
1.23856
1.23844
1.23812
1.23751
1.23663
1.23557
1.23441
1.23324
1.23217
1.23131
1.23077
1.23064
1.2311
1.23263
1.23522
1.23838
1.24161
1.24456
1.24701
1.24883
1.24996
1.25042
1.25042
1.24987
1.24833
1.24598
1.24337
1.24048
1.23693
1.23258
1.22771
1.22246
1.21698
1.21146
1.20604
1.2009
1.1962
1.1921
1.18873
1.18618
1.1845
1.18369
1.1837
1.18505
1.18779
1.19109
1.19471
1.19846
1.20201
1.22484
1.22801
1.23122
1.23393
1.2359
1.23716
1.23782
1.23806
1.23806
1.23787
1.23744
1.23671
1.23574
1.23462
1.23343
1.23226
1.23124
1.23043
1.22994
1.22983
1.23028
1.23164
1.23383
1.23648
1.23917
1.24161
1.2436
1.245
1.24578
1.24602
1.24585
1.24498
1.24316
1.24087
1.23847
1.2358
1.23264
1.22903
1.22504
1.22078
1.21639
1.21198
1.20768
1.20361
1.19991
1.1967
1.19408
1.19212
1.19084
1.19024
1.19035
1.19148
1.19358
1.19612
1.19891
1.20176
1.22347
1.22618
1.22932
1.2322
1.23448
1.23606
1.237
1.23744
1.23757
1.2375
1.23723
1.2367
1.23588
1.23485
1.23368
1.23248
1.23135
1.23037
1.22961
1.22913
1.22899
1.22933
1.23039
1.23214
1.23428
1.23648
1.23847
1.24007
1.24116
1.24173
1.24187
1.2416
1.2406
1.23885
1.23686
1.23476
1.23241
1.22975
1.22683
1.22362
1.22021
1.21671
1.21321
1.20978
1.20654
1.20357
1.20098
1.19886
1.19726
1.19619
1.19569
1.19576
1.19658
1.19815
1.20009
1.20223
1.2224
1.22446
1.2273
1.23025
1.23278
1.23469
1.23595
1.23666
1.23696
1.23701
1.23689
1.23656
1.23595
1.23505
1.23397
1.23279
1.23161
1.23052
1.22959
1.22885
1.22836
1.22815
1.22833
1.22903
1.23032
1.23196
1.2337
1.23529
1.23657
1.23745
1.2379
1.238
1.23772
1.23677
1.23531
1.23368
1.23192
1.22996
1.22785
1.22557
1.22306
1.22041
1.21767
1.21493
1.21223
1.20965
1.20727
1.20517
1.20342
1.20206
1.20112
1.20063
1.2006
1.20112
1.20222
1.20365
1.2217
1.22301
1.22531
1.22811
1.2308
1.23301
1.23461
1.23564
1.23618
1.23639
1.2364
1.23624
1.23586
1.23518
1.23424
1.23314
1.23197
1.23083
1.2298
1.22891
1.22818
1.22765
1.22736
1.22734
1.22771
1.22854
1.2297
1.231
1.23224
1.23326
1.23398
1.23436
1.23446
1.23422
1.23345
1.23233
1.23107
1.22967
1.2281
1.22648
1.22476
1.22288
1.22087
1.2188
1.2167
1.21464
1.21264
1.21078
1.2091
1.20766
1.2065
1.20567
1.20518
1.20505
1.20531
1.20601
1.22137
1.22199
1.22355
1.22593
1.22858
1.23101
1.23294
1.23431
1.23517
1.23561
1.23576
1.23574
1.23557
1.23515
1.23443
1.23347
1.23238
1.23124
1.23016
1.22918
1.22833
1.22762
1.22705
1.22667
1.2265
1.22658
1.22697
1.22768
1.22856
1.22946
1.23024
1.23082
1.23116
1.23126
1.2311
1.23056
1.22975
1.22882
1.22774
1.22653
1.22529
1.22401
1.22265
1.22118
1.21964
1.21809
1.21655
1.21505
1.21363
1.21233
1.21118
1.21023
1.20951
1.20903
1.20884
1.20891
1.22127
1.22147
1.22226
1.22394
1.22626
1.22872
1.23092
1.23264
1.23384
1.23458
1.23496
1.23508
1.23506
1.23488
1.23444
1.2337
1.23276
1.23169
1.23061
1.22958
1.22866
1.22785
1.22716
1.22659
1.22613
1.22584
1.22572
1.22579
1.22607
1.22655
1.22711
1.22764
1.22806
1.22833
1.22844
1.22836
1.22801
1.22747
1.22682
1.22603
1.22511
1.22416
1.2232
1.22219
1.22112
1.22001
1.21886
1.21773
1.21663
1.21558
1.2146
1.21371
1.21295
1.21235
1.21193
1.21171
1.22125
1.22129
1.22155
1.22244
1.22412
1.22631
1.22858
1.23058
1.23213
1.23322
1.23389
1.23423
1.23436
1.23434
1.23417
1.23374
1.23302