/*--------------------------------*- C++ -*----------------------------------*\
| =========                 |                                                 |
| \\      /  F ield         | OpenFOAM: The Open Source CFD Toolbox           |
|  \\    /   O peration     | Version:  2406                                  |
|   \\  /    A nd           | Website:  www.openfoam.com                      |
|    \\/     M anipulation  |                                                 |
\*---------------------------------------------------------------------------*/
FoamFile
{
    version     2.0;
    format      ascii;
    arch        "LSB;label=32;scalar=64";
    class       volVectorField;
    location    "0.095";
    object      U;
}
// * * * * * * * * * * * * * * * * * * * * * * * * * * * * * * * * * * * * * //

dimensions      [0 1 -1 0 0 0 0];

internalField   nonuniform List<vector> 
14020
(
(318.38 -2.15983e-05 -3.78689e-05)
(318.38 -1.8179e-05 -4.37495e-05)
(318.379 -9.68516e-06 -5.18918e-05)
(318.379 -7.58226e-07 -5.97334e-05)
(318.378 9.30826e-06 -6.75202e-05)
(318.377 1.53489e-05 -6.98182e-05)
(318.375 1.91831e-05 -7.29749e-05)
(318.373 2.50041e-05 -7.84614e-05)
(318.371 2.87202e-05 -8.24377e-05)
(318.368 2.91094e-05 -8.43587e-05)
(318.365 2.91374e-05 -8.51545e-05)
(318.363 2.83848e-05 -8.52209e-05)
(318.36 2.53188e-05 -8.43149e-05)
(318.359 1.98938e-05 -8.21044e-05)
(318.358 1.37907e-05 -7.78723e-05)
(318.357 6.52289e-06 -7.17781e-05)
(318.356 -6.49129e-07 -6.746e-05)
(318.354 -5.13569e-06 -6.27281e-05)
(318.352 -9.89944e-06 -5.44728e-05)
(318.349 -1.32575e-05 -4.75086e-05)
(318.346 -1.38906e-05 -4.42127e-05)
(318.343 -1.42667e-05 -3.9793e-05)
(318.341 -1.43453e-05 -3.47175e-05)
(318.34 -1.37182e-05 -3.01253e-05)
(318.34 -1.24789e-05 -2.6562e-05)
(318.338 -1.12644e-05 -2.4506e-05)
(318.335 -8.04826e-06 -2.2878e-05)
(318.331 -7.54113e-06 -2.27488e-05)
(318.328 -6.18972e-06 -2.14606e-05)
(318.327 -5.33142e-06 -2.20663e-05)
(318.328 -2.83801e-06 -2.24815e-05)
(318.331 -2.49316e-06 -2.10396e-05)
(318.334 -3.32746e-06 -2.04831e-05)
(318.334 -3.04834e-07 -1.93321e-05)
(318.332 1.75697e-06 -1.81132e-05)
(318.33 -2.26765e-06 -1.75373e-05)
(318.328 -4.20562e-06 -1.61577e-05)
(318.328 3.45e-06 -1.42653e-05)
(318.329 7.91979e-06 -1.03125e-05)
(318.331 1.61608e-06 -6.67193e-06)
(318.333 -1.35443e-06 -4.62428e-06)
(318.334 3.11696e-06 -2.71432e-06)
(318.333 2.88722e-06 2.30807e-07)
(318.333 2.07582e-06 2.32677e-06)
(318.332 3.52321e-06 5.133e-06)
(318.333 7.79911e-06 7.81017e-06)
(318.333 4.82624e-06 1.02696e-05)
(318.334 -1.1269e-06 1.25014e-05)
(318.335 6.01152e-08 1.43755e-05)
(318.337 5.60818e-06 1.5447e-05)
(318.338 9.18251e-06 1.59569e-05)
(318.34 5.49971e-06 1.6641e-05)
(318.341 3.67541e-06 1.67076e-05)
(318.342 2.88108e-06 1.75864e-05)
(318.341 2.49384e-06 1.86222e-05)
(318.342 -2.8105e-07 2.01265e-05)
(318.343 -4.9214e-06 2.17771e-05)
(318.345 -3.86149e-07 2.60141e-05)
(318.345 4.36376e-06 2.81632e-05)
(318.345 9.55207e-08 3.0457e-05)
(318.345 -1.65625e-06 3.52069e-05)
(318.346 -1.42342e-06 4.03428e-05)
(318.347 -1.9606e-06 4.41083e-05)
(318.347 3.12291e-06 4.87452e-05)
(318.348 4.5925e-06 5.20927e-05)
(318.35 2.95504e-06 5.38218e-05)
(318.351 2.29477e-06 5.52381e-05)
(318.352 8.0483e-06 5.69834e-05)
(318.353 1.20762e-05 5.82278e-05)
(318.353 -5.1663e-07 5.95125e-05)
(318.353 -3.70985e-06 6.02588e-05)
(318.352 6.57699e-06 5.822e-05)
(318.351 1.12753e-05 5.66676e-05)
(318.351 -3.06106e-07 5.60205e-05)
(318.351 -4.17852e-06 5.37135e-05)
(318.35 1.47716e-06 5.13356e-05)
(318.35 7.7444e-07 4.86822e-05)
(318.35 -1.5312e-06 4.6339e-05)
(318.351 -1.54855e-06 4.20467e-05)
(318.353 1.95136e-06 3.80191e-05)
(318.355 -1.45839e-06 3.06226e-05)
(318.358 1.15944e-06 2.5831e-05)
(318.361 5.99316e-06 2.17187e-05)
(318.362 -6.00384e-07 1.84795e-05)
(318.362 -4.18105e-06 1.12141e-05)
(318.362 2.37185e-06 4.50579e-06)
(318.362 6.67757e-06 8.70218e-07)
(318.363 -2.30639e-06 -7.1956e-06)
(318.363 -2.60369e-06 -1.04019e-05)
(318.363 6.29165e-07 -1.49875e-05)
(318.364 -1.40329e-06 -1.95945e-05)
(318.364 -8.93453e-06 -2.41571e-05)
(318.363 -1.16808e-05 -2.71372e-05)
(318.362 -5.40888e-06 -2.79173e-05)
(318.361 -1.71028e-06 -2.80082e-05)
(318.362 -5.59922e-06 -2.80023e-05)
(318.363 -1.76014e-05 -2.33508e-05)
(318.365 -1.43172e-05 -1.734e-05)
(318.366 -3.18287e-07 -1.26173e-05)
(318.366 -8.37616e-07 -9.73356e-06)
(318.366 -7.21444e-06 -6.77039e-06)
(318.365 -2.15133e-06 -3.10949e-06)
(318.364 6.4042e-06 5.43778e-07)
(318.364 -2.19438e-06 5.92653e-06)
(318.364 -1.42355e-05 9.7167e-06)
(318.364 1.19419e-06 1.26825e-05)
(318.365 2.31702e-05 1.33643e-05)
(318.367 3.64385e-06 1.41544e-05)
(318.369 -7.16682e-06 1.37589e-05)
(318.37 1.89833e-06 1.09665e-05)
(318.371 6.71148e-06 7.66201e-06)
(318.373 2.02322e-06 5.73235e-06)
(318.374 -2.60358e-06 3.1733e-06)
(318.375 -1.08415e-06 -6.64467e-07)
(318.375 4.21857e-06 -5.18353e-06)
(318.376 3.92224e-06 -1.06885e-05)
(318.376 -3.05158e-07 -1.79133e-05)
(318.374 -9.90274e-07 -2.59328e-05)
(318.372 3.20391e-06 -3.34692e-05)
(318.37 4.62962e-06 -3.69422e-05)
(318.369 8.23673e-06 -4.24841e-05)
(318.369 3.75512e-06 -4.71707e-05)
(318.369 -3.51638e-06 -5.14097e-05)
(318.37 3.09123e-06 -5.54735e-05)
(318.372 7.24044e-06 -5.73861e-05)
(318.372 4.23359e-06 -5.91108e-05)
(318.372 -9.60802e-06 -6.02893e-05)
(318.372 6.67704e-07 -6.14764e-05)
(318.373 2.66694e-05 -6.15951e-05)
(318.374 6.66814e-06 -5.88495e-05)
(318.375 -1.29267e-05 -5.60641e-05)
(318.377 -6.50597e-07 -5.26993e-05)
(318.379 1.02132e-05 -5.01179e-05)
(318.382 -9.19284e-06 -4.67609e-05)
(318.383 -4.61347e-06 -4.29719e-05)
(318.384 -2.61387e-06 -4.12843e-05)
(318.384 -8.79955e-06 -3.79749e-05)
(318.384 -1.11623e-05 -3.42437e-05)
(318.384 9.39129e-06 -3.11014e-05)
(318.383 1.03225e-05 -2.84577e-05)
(318.384 -2.41624e-05 -2.49693e-05)
(318.383 -1.48615e-05 -2.32875e-05)
(318.382 1.67316e-05 -2.20435e-05)
(318.38 1.25023e-05 -2.03986e-05)
(318.378 -6.44496e-06 -1.77067e-05)
(318.377 -3.60266e-06 -1.63929e-05)
(318.377 -6.36422e-07 -1.57609e-05)
(318.377 -5.69337e-06 -1.45541e-05)
(318.38 4.76745e-06 -1.36236e-05)
(318.387 -3.68183e-06 -1.19868e-05)
(318.392 -2.16987e-05 -1.11258e-05)
(318.392 8.40921e-06 -1.19619e-05)
(318.388 2.24637e-05 -1.24767e-05)
(318.379 2.23995e-06 -1.04125e-05)
(318.361 -2.82822e-05 -9.5699e-06)
(318.335 -1.19421e-05 -8.4358e-06)
(318.343 -1.64163e-06 -7.9029e-06)
(318.428 9.17959e-07 -7.73224e-06)
(318.693 3.56614e-07 -7.09386e-06)
(319.184 -3.62628e-06 -7.61358e-06)
(319.857 7.72453e-07 -4.93128e-06)
(320.638 -1.47551e-05 -7.05272e-06)
(321.473 -4.71622e-06 -8.85062e-06)
(322.33 -3.22948e-05 -6.47634e-07)
(323.198 -6.31846e-05 -5.06845e-06)
(324.073 -3.79138e-05 2.30919e-06)
(324.953 -2.36039e-05 -1.56048e-05)
(325.839 -4.43521e-05 4.54913e-06)
(326.729 -7.2893e-05 1.12215e-05)
(327.623 -1.1109e-05 -7.90297e-06)
(328.52 -6.84581e-05 -1.3496e-05)
(329.42 -0.000139644 1.78865e-05)
(330.322 -0.000119796 1.43222e-05)
(331.226 -0.000156313 1.71741e-06)
(332.131 -0.000126203 2.36355e-06)
(333.038 -8.15181e-05 -1.90276e-05)
(333.946 -8.12085e-05 -2.32148e-06)
(334.856 -0.000139811 2.5894e-05)
(335.767 -0.000165024 -1.20931e-05)
(336.679 -0.000154588 -2.41272e-05)
(337.591 -0.000137392 -1.13366e-05)
(338.505 -9.59047e-05 2.88705e-05)
(339.419 -9.95892e-05 3.35172e-05)
(340.333 -0.000285766 -5.38596e-06)
(341.248 -0.00021021 1.67119e-05)
(342.164 -0.000159955 4.802e-05)
(343.08 -6.29129e-05 1.25435e-05)
(343.997 -0.000369076 -1.57406e-05)
(344.915 -0.000279207 -4.00504e-05)
(345.832 -0.000764558 2.81066e-05)
(346.75 -0.000117422 7.1821e-05)
(347.668 -0.000448572 5.02483e-05)
(348.587 0.000218814 -6.20476e-05)
(349.507 -0.000761128 -9.92176e-05)
(350.428 -0.000395658 0.000115276)
(351.35 -0.000936229 0.000322624)
(352.273 -0.000269891 0.000181637)
(353.196 0.000287875 -0.000345122)
(354.12 -0.000965924 3.0064e-05)
(355.044 0.00162987 -2.18942e-05)
(355.967 -0.00387049 0.000636957)
(356.892 0.00497911 -0.000274127)
(357.814 -0.00896328 -0.000113721)
(358.742 0.0104161 -0.000995316)
(359.663 -0.0128628 0.000709004)
(360.595 0.0133824 6.50804e-05)
(361.512 -0.01413 0.00112881)
(362.446 0.0131223 -0.000321927)
(363.363 -0.0153459 0.000215247)
(364.299 0.0132577 -0.000740952)
(365.214 -0.0173534 0.000564826)
(366.151 0.0149076 -0.000816861)
(367.064 -0.0188302 -0.000341214)
(368.002 0.0181811 -0.00174622)
(368.911 -0.0201239 0.00027065)
(369.852 0.0218448 0.000289955)
(370.76 -0.0219353 0.00209439)
(371.704 0.0253728 0.000866209)
(372.61 -0.0256986 0.00227391)
(373.561 0.029175 0.00180571)
(374.463 -0.032319 0.00427003)
(375.418 0.0338196 0.00194954)
(376.31 -0.0400991 0.00284273)
(377.273 0.0406147 -0.00151522)
(378.151 -0.0533764 0.000746565)
(379.115 0.0577111 -0.00432826)
(379.976 -0.0912373 -0.000732559)
(380.988 0.0845689 -0.0114025)
(381.792 -0.152736 -0.00417211)
(383.067 0.133097 -0.0166694)
(383.367 -0.290112 0.000328138)
(318.38 -2.20947e-05 -3.8197e-05)
(318.38 -1.69944e-05 -4.33289e-05)
(318.379 -8.86403e-06 -5.05152e-05)
(318.379 -6.95292e-07 -5.76516e-05)
(318.378 1.20771e-05 -6.53348e-05)
(318.377 1.88043e-05 -6.80058e-05)
(318.375 2.05884e-05 -7.17055e-05)
(318.373 2.64472e-05 -7.81821e-05)
(318.371 2.9598e-05 -8.22447e-05)
(318.368 2.86522e-05 -8.38763e-05)
(318.365 2.86374e-05 -8.44757e-05)
(318.363 2.81468e-05 -8.43015e-05)
(318.36 2.43338e-05 -8.28937e-05)
(318.359 2.00468e-05 -8.04437e-05)
(318.358 1.4042e-05 -7.65158e-05)
(318.357 3.72211e-06 -7.07303e-05)
(318.356 -2.84793e-06 -6.68128e-05)
(318.354 -3.24761e-06 -6.2435e-05)
(318.352 -9.58343e-06 -5.40071e-05)
(318.349 -1.4828e-05 -4.67975e-05)
(318.346 -1.50212e-05 -4.3326e-05)
(318.343 -1.46003e-05 -3.86995e-05)
(318.341 -1.46066e-05 -3.3481e-05)
(318.34 -1.2935e-05 -2.91214e-05)
(318.34 -1.15965e-05 -2.5759e-05)
(318.338 -1.2136e-05 -2.38828e-05)
(318.335 -8.24277e-06 -2.22975e-05)
(318.331 -5.94907e-06 -2.248e-05)
(318.328 -6.21582e-06 -2.11615e-05)
(318.327 -6.63897e-06 -2.17913e-05)
(318.328 -2.91841e-06 -2.22451e-05)
(318.331 -5.5512e-07 -2.09951e-05)
(318.334 -2.38593e-06 -2.0424e-05)
(318.334 3.36915e-08 -1.92425e-05)
(318.332 3.88343e-07 -1.80068e-05)
(318.33 -4.66474e-06 -1.73598e-05)
(318.328 -3.28584e-06 -1.59095e-05)
(318.328 7.65369e-06 -1.43159e-05)
(318.329 1.29714e-05 -1.05466e-05)
(318.331 -2.14078e-06 -6.50404e-06)
(318.333 -8.6868e-06 -4.2764e-06)
(318.334 3.49739e-06 -2.57765e-06)
(318.333 7.17725e-06 1.83114e-07)
(318.333 4.70984e-06 2.30737e-06)
(318.332 4.56619e-06 5.15042e-06)
(318.333 5.98226e-06 7.93707e-06)
(318.333 1.7174e-06 1.04773e-05)
(318.334 -3.66719e-06 1.27084e-05)
(318.335 9.47896e-07 1.44147e-05)
(318.337 7.38825e-06 1.53556e-05)
(318.338 1.07168e-05 1.58002e-05)
(318.34 5.54421e-06 1.63935e-05)
(318.341 1.98533e-06 1.64478e-05)
(318.342 1.674e-07 1.73934e-05)
(318.341 1.07317e-06 1.84706e-05)
(318.342 4.09168e-07 1.99183e-05)
(318.343 -2.79138e-06 2.16175e-05)
(318.345 1.60535e-06 2.59438e-05)
(318.345 5.44035e-06 2.8069e-05)
(318.345 -8.00456e-07 3.03653e-05)
(318.345 -3.30969e-06 3.51582e-05)
(318.346 -1.18007e-06 4.01316e-05)
(318.347 -1.96508e-06 4.39531e-05)
(318.347 1.92256e-06 4.8533e-05)
(318.348 6.18322e-06 5.18124e-05)
(318.35 5.28593e-06 5.34642e-05)
(318.351 2.42791e-06 5.48995e-05)
(318.352 6.24496e-06 5.65653e-05)
(318.353 1.02776e-05 5.79637e-05)
(318.353 -2.48458e-06 5.93316e-05)
(318.353 -5.42336e-07 6.00282e-05)
(318.352 1.4798e-05 5.80091e-05)
(318.351 1.79428e-05 5.65551e-05)
(318.351 -9.35524e-06 5.63722e-05)
(318.351 -1.21185e-05 5.40407e-05)
(318.35 6.60201e-07 5.12947e-05)
(318.35 5.17099e-06 4.82786e-05)
(318.35 9.39045e-07 4.60671e-05)
(318.351 -8.24993e-07 4.19105e-05)
(318.353 2.73206e-07 3.79801e-05)
(318.355 -5.08642e-06 3.06921e-05)
(318.358 2.76774e-06 2.58078e-05)
(318.361 9.62976e-06 2.15631e-05)
(318.362 -2.09046e-06 1.85738e-05)
(318.362 -8.75741e-06 1.1426e-05)
(318.362 6.16924e-06 4.39076e-06)
(318.362 1.44628e-05 3.54672e-07)
(318.363 -3.59831e-06 -7.09405e-06)
(318.363 -7.00678e-06 -1.02144e-05)
(318.363 -2.41926e-06 -1.48163e-05)
(318.364 -2.20812e-06 -1.94546e-05)
(318.364 -6.61833e-06 -2.40269e-05)
(318.363 -8.31e-06 -2.72042e-05)
(318.362 -2.02825e-06 -2.7897e-05)
(318.361 3.74501e-06 -2.80082e-05)
(318.362 -7.62428e-06 -2.73041e-05)
(318.363 -2.67502e-05 -2.28655e-05)
(318.365 -2.11759e-05 -1.6994e-05)
(318.366 7.91877e-06 -1.26995e-05)
(318.366 6.10678e-06 -9.81562e-06)
(318.366 -4.30474e-06 -6.75596e-06)
(318.365 -6.93273e-06 -2.96079e-06)
(318.364 7.95362e-07 6.43498e-07)
(318.364 -6.55293e-06 5.99371e-06)
(318.364 -1.37583e-05 9.68751e-06)
(318.364 7.31043e-06 1.26806e-05)
(318.365 3.24316e-05 1.30987e-05)
(318.367 -6.90875e-06 1.44627e-05)
(318.369 -2.14145e-05 1.42205e-05)
(318.37 4.9049e-06 1.05041e-05)
(318.371 1.74441e-05 7.18178e-06)
(318.373 6.94561e-06 5.4867e-06)
(318.374 -2.59294e-06 3.06729e-06)
(318.375 -3.77241e-06 -6.20682e-07)
(318.375 2.24154e-06 -5.0707e-06)
(318.376 1.90822e-06 -1.05647e-05)
(318.376 -3.23598e-06 -1.77839e-05)
(318.374 -3.91241e-06 -2.57603e-05)
(318.372 5.91097e-06 -3.34448e-05)
(318.37 9.22714e-06 -3.68271e-05)
(318.369 1.44699e-05 -4.23743e-05)
(318.369 9.76811e-06 -4.6821e-05)
(318.369 -3.584e-06 -5.06963e-05)
(318.37 -4.28469e-06 -5.48626e-05)
(318.372 1.64429e-06 -5.69096e-05)
(318.372 1.06151e-06 -5.87547e-05)
(318.372 -7.01211e-06 -5.99477e-05)
(318.372 6.31936e-06 -6.15175e-05)
(318.373 3.44851e-05 -6.17142e-05)
(318.374 -2.13971e-06 -5.85334e-05)
(318.375 -2.97745e-05 -5.55411e-05)
(318.377 1.22641e-05 -5.27806e-05)
(318.379 3.1579e-05 -5.05962e-05)
(318.382 -2.11428e-05 -4.60679e-05)
(318.383 -2.00227e-05 -4.24718e-05)
(318.384 -6.84276e-06 -4.08576e-05)
(318.384 -3.22571e-07 -3.7776e-05)
(318.384 -3.42823e-06 -3.43119e-05)
(318.384 9.30909e-06 -3.08663e-05)
(318.383 -1.46765e-06 -2.82602e-05)
(318.384 -4.26895e-05 -2.43021e-05)
(318.383 -1.04195e-05 -2.32623e-05)
(318.382 4.0087e-05 -2.30934e-05)
(318.38 2.66876e-05 -2.08069e-05)
(318.378 -3.0916e-05 -1.67096e-05)
(318.377 -1.39182e-05 -1.59615e-05)
(318.377 -2.33867e-06 -1.5541e-05)
(318.377 1.60423e-06 -1.45102e-05)
(318.38 1.14229e-05 -1.38649e-05)
(318.387 -4.94785e-06 -1.19919e-05)
(318.392 -1.61906e-05 -1.11765e-05)
(318.392 2.20428e-05 -1.25111e-05)
(318.388 4.73925e-05 -1.36132e-05)
(318.379 -1.91693e-05 -9.97235e-06)
(318.361 -7.29716e-05 -7.85174e-06)
(318.335 -1.0361e-05 -8.13244e-06)
(318.343 1.9655e-05 -8.46674e-06)
(318.428 2.04477e-05 -8.35083e-06)
(318.693 1.30277e-05 -7.58124e-06)
(319.184 -2.82388e-06 -7.63513e-06)
(319.857 -1.15446e-05 -5.19953e-06)
(320.638 -4.80606e-05 -5.84084e-06)
(321.473 -3.4425e-05 -7.91358e-06)
(322.33 -5.74331e-05 -1.34542e-08)
(323.198 -7.24814e-05 -5.95253e-06)
(324.073 -2.45257e-05 2.57677e-06)
(324.953 7.6984e-05 -2.0357e-05)
(325.839 6.85607e-05 1.22906e-06)
(326.729 -3.87623e-06 8.57889e-06)
(327.623 -5.49966e-05 -5.67584e-06)
(328.52 -0.000182122 -7.27307e-06)
(329.42 -0.000210366 2.1245e-05)
(330.322 -0.00015196 1.59101e-05)
(331.226 -9.38517e-05 2.09814e-06)
(332.131 -3.08323e-05 -1.50607e-06)
(333.038 -2.53727e-06 -2.41987e-05)
(333.946 -6.03493e-05 -3.2518e-06)
(334.856 -0.000159714 2.43452e-05)
(335.767 -0.000184516 -1.20477e-05)
(336.679 -0.000161842 -2.31259e-05)
(337.591 -8.84614e-05 -1.56049e-05)
(338.505 1.16578e-05 2.84255e-05)
(339.419 2.56007e-05 3.15986e-05)
(340.333 -0.000183547 -7.74089e-06)
(341.248 -0.000209888 1.56285e-05)
(342.164 -0.000257782 4.8753e-05)
(343.08 -0.000202394 1.68023e-05)
(343.997 -0.000442074 -1.53021e-05)
(344.915 -0.000351752 -3.42255e-05)
(345.832 -0.000679378 3.18577e-05)
(346.75 9.81822e-07 3.98148e-05)
(347.668 -0.000213941 5.69755e-05)
(348.587 0.00033656 -6.38816e-05)
(349.507 -0.000576989 -0.000129157)
(350.428 -0.000358797 0.000142159)
(351.35 -0.000812091 0.000307435)
(352.273 -0.000267371 0.000139239)
(353.196 0.000285778 -0.000298036)
(354.12 -0.000774432 6.62681e-05)
(355.044 0.00158073 -5.57622e-05)
(355.967 -0.00341785 0.0005473)
(356.892 0.00467867 -0.00025924)
(357.814 -0.0082424 -4.21992e-05)
(358.743 0.00968127 -0.000923693)
(359.663 -0.0119616 0.000700471)
(360.595 0.0123549 9.42447e-05)
(361.512 -0.0130913 0.001083)
(362.447 0.0119183 -0.000287762)
(363.362 -0.0139764 0.000185518)
(364.299 0.0119909 -0.000667951)
(365.213 -0.0154344 0.000516487)
(366.152 0.0139423 -0.0007589)
(367.063 -0.0166866 -0.000415889)
(368.003 0.0171853 -0.00169949)
(368.911 -0.018012 0.00016647)
(369.853 0.020472 0.000377043)
(370.76 -0.0199755 0.00196964)
(371.705 0.0234522 0.000976725)
(372.61 -0.0237413 0.0021134)
(373.562 0.0268708 0.00195115)
(374.462 -0.0300107 0.00409285)
(375.42 0.0314815 0.00209936)
(376.311 -0.0371671 0.00255832)
(377.276 0.0369536 -0.00147749)
(378.153 -0.0528271 0.000340008)
(379.12 0.0508748 -0.00432093)
(379.977 -0.0914357 -0.000660617)
(380.995 0.0779909 -0.0113096)
(381.794 -0.154071 -0.00389079)
(383.089 0.121653 -0.0163711)
(383.347 -0.304073 0.00162899)
(318.38 -2.17701e-05 -3.76833e-05)
(318.38 -1.71395e-05 -4.19014e-05)
(318.379 -1.01359e-05 -4.89423e-05)
(318.379 -3.07692e-06 -5.60055e-05)
(318.378 1.26438e-05 -6.30857e-05)
(318.377 1.94484e-05 -6.6398e-05)
(318.375 2.02837e-05 -7.10371e-05)
(318.373 2.72827e-05 -7.70217e-05)
(318.371 2.9875e-05 -8.11559e-05)
(318.368 2.7512e-05 -8.26377e-05)
(318.365 2.76347e-05 -8.30525e-05)
(318.363 2.81713e-05 -8.26041e-05)
(318.36 2.4815e-05 -8.08484e-05)
(318.359 2.06791e-05 -7.90618e-05)
(318.358 1.52397e-05 -7.56582e-05)
(318.357 2.87389e-06 -6.88001e-05)
(318.356 -2.52931e-06 -6.50663e-05)
(318.354 2.87371e-08 -6.12977e-05)
(318.352 -8.04203e-06 -5.29386e-05)
(318.349 -1.58556e-05 -4.56207e-05)
(318.346 -1.48292e-05 -4.22199e-05)
(318.343 -1.33555e-05 -3.75858e-05)
(318.341 -1.42658e-05 -3.21247e-05)
(318.34 -1.2653e-05 -2.75178e-05)
(318.34 -1.20784e-05 -2.47812e-05)
(318.338 -1.38447e-05 -2.31732e-05)
(318.335 -8.07855e-06 -2.16973e-05)
(318.331 -5.64058e-06 -2.17651e-05)
(318.328 -7.18008e-06 -2.06547e-05)
(318.327 -7.41122e-06 -2.10073e-05)
(318.328 -1.0266e-06 -2.18251e-05)
(318.331 7.51457e-07 -2.02776e-05)
(318.334 -2.55771e-06 -1.97713e-05)
(318.334 -2.36354e-06 -1.86251e-05)
(318.332 -5.31637e-07 -1.72601e-05)
(318.33 -4.78895e-06 -1.62773e-05)
(318.328 -2.57541e-06 -1.48563e-05)
(318.328 1.21241e-05 -1.36267e-05)
(318.329 1.51049e-05 -9.35478e-06)
(318.331 -7.66743e-06 -5.60034e-06)
(318.333 -1.54084e-05 -3.1859e-06)
(318.334 7.53891e-06 -2.28086e-06)
(318.333 1.12825e-05 3.60743e-07)
(318.333 6.6965e-06 2.53257e-06)
(318.332 3.93432e-06 5.34915e-06)
(318.333 4.90114e-06 8.04584e-06)
(318.333 -2.61704e-07 1.06513e-05)
(318.334 -4.50382e-06 1.26574e-05)
(318.335 2.3721e-06 1.40763e-05)
(318.337 9.20488e-06 1.49092e-05)
(318.338 1.09146e-05 1.51387e-05)
(318.34 4.39957e-06 1.59513e-05)
(318.341 -5.25101e-07 1.60203e-05)
(318.342 -2.55017e-06 1.67937e-05)
(318.341 9.5967e-07 1.77309e-05)
(318.342 2.38399e-06 1.91997e-05)
(318.343 -1.32016e-06 2.10567e-05)
(318.345 2.59483e-06 2.51674e-05)
(318.345 5.5605e-06 2.73083e-05)
(318.345 -1.706e-06 2.98326e-05)
(318.345 -4.66248e-06 3.44941e-05)
(318.346 -3.05928e-07 3.95126e-05)
(318.347 -1.60634e-06 4.32487e-05)
(318.347 6.78668e-07 4.76329e-05)
(318.348 8.62756e-06 5.09539e-05)
(318.35 7.27353e-06 5.25723e-05)
(318.351 1.08683e-07 5.40746e-05)
(318.352 3.67624e-06 5.57819e-05)
(318.353 9.0617e-06 5.71976e-05)
(318.353 -1.80448e-07 5.83331e-05)
(318.353 -1.87427e-07 5.93146e-05)
(318.352 2.24445e-05 5.69164e-05)
(318.351 2.08102e-05 5.59122e-05)
(318.351 -1.86083e-05 5.61674e-05)
(318.351 -1.97709e-05 5.34482e-05)
(318.35 4.54023e-06 5.07409e-05)
(318.35 1.05597e-05 4.73208e-05)
(318.35 2.83965e-06 4.53218e-05)
(318.351 -3.38392e-06 4.14939e-05)
(318.353 -1.5743e-06 3.76417e-05)
(318.355 -6.91506e-06 3.04913e-05)
(318.358 3.31125e-06 2.53569e-05)
(318.361 1.28971e-05 2.07217e-05)
(318.362 -4.2839e-06 1.81769e-05)
(318.362 -1.14628e-05 1.11778e-05)
(318.362 1.09939e-05 4.20054e-06)
(318.362 2.211e-05 -3.31475e-07)
(318.363 -7.44147e-06 -6.8515e-06)
(318.363 -1.2075e-05 -9.84383e-06)
(318.363 -5.14126e-06 -1.44488e-05)
(318.364 7.78295e-07 -1.90641e-05)
(318.364 -4.09058e-06 -2.33574e-05)
(318.363 -6.78152e-06 -2.63418e-05)
(318.362 -8.88555e-07 -2.65469e-05)
(318.361 6.77923e-06 -2.63939e-05)
(318.362 -8.56126e-06 -2.60797e-05)
(318.363 -3.65354e-05 -2.15509e-05)
(318.365 -2.22047e-05 -1.61074e-05)
(318.366 1.73041e-05 -1.24426e-05)
(318.366 1.23307e-05 -9.46721e-06)
(318.366 -5.84162e-06 -6.25924e-06)
(318.365 -1.53524e-05 -2.50068e-06)
(318.364 -1.48816e-06 1.25258e-06)
(318.364 -4.27675e-06 6.09741e-06)
(318.364 -1.36092e-05 9.6504e-06)
(318.364 1.49568e-05 1.23077e-05)
(318.366 3.76105e-05 1.19079e-05)
(318.367 -1.69993e-05 1.43045e-05)
(318.369 -3.4085e-05 1.40107e-05)
(318.37 1.54736e-05 9.64379e-06)
(318.371 2.74961e-05 6.28794e-06)
(318.373 9.28515e-06 4.91688e-06)
(318.375 -5.49186e-06 2.87849e-06)
(318.375 -6.74342e-06 -6.12404e-07)
(318.375 1.72494e-06 -5.02335e-06)
(318.376 1.80342e-06 -1.06737e-05)
(318.376 -5.48155e-06 -1.76008e-05)
(318.374 -4.77417e-06 -2.52001e-05)
(318.372 9.40922e-06 -3.287e-05)
(318.37 1.19334e-05 -3.57529e-05)
(318.369 1.74727e-05 -4.07564e-05)
(318.369 1.60185e-05 -4.54492e-05)
(318.369 -9.13632e-06 -4.94259e-05)
(318.37 -1.27098e-05 -5.34083e-05)
(318.372 -1.80299e-06 -5.53353e-05)
(318.372 4.90964e-06 -5.70814e-05)
(318.372 -5.00865e-06 -5.83195e-05)
(318.372 9.81196e-06 -5.99233e-05)
(318.373 3.75332e-05 -5.97456e-05)
(318.374 -1.14362e-05 -5.6576e-05)
(318.375 -3.93617e-05 -5.37107e-05)
(318.377 2.91708e-05 -5.16605e-05)
(318.379 5.31192e-05 -4.94745e-05)
(318.382 -3.9764e-05 -4.37297e-05)
(318.383 -3.02956e-05 -4.04695e-05)
(318.384 1.34442e-07 -3.94061e-05)
(318.384 1.04854e-05 -3.64879e-05)
(318.384 -1.18423e-06 -3.30379e-05)
(318.384 6.12835e-06 -2.96556e-05)
(318.383 -8.76788e-06 -2.67967e-05)
(318.384 -5.30221e-05 -2.2571e-05)
(318.383 -3.7038e-06 -2.25858e-05)
(318.382 6.60956e-05 -2.2669e-05)
(318.38 1.92637e-05 -1.98778e-05)
(318.378 -5.6894e-05 -1.488e-05)
(318.377 -2.44672e-05 -1.49935e-05)
(318.377 2.97137e-06 -1.48001e-05)
(318.377 8.03055e-06 -1.4069e-05)
(318.38 1.20459e-05 -1.35524e-05)
(318.387 -5.18138e-06 -1.13116e-05)
(318.392 -1.34372e-05 -1.03557e-05)
(318.392 3.19452e-05 -1.23312e-05)
(318.388 5.34363e-05 -1.34165e-05)
(318.379 -3.95747e-05 -8.70611e-06)
(318.361 -0.000121399 -5.22642e-06)
(318.334 7.27055e-06 -7.99909e-06)
(318.342 4.36229e-05 -9.05771e-06)
(318.428 3.78817e-05 -8.81401e-06)
(318.693 1.77888e-05 -7.73595e-06)
(319.184 -7.26962e-06 -7.09429e-06)
(319.857 -2.546e-05 -6.09447e-06)
(320.639 -7.29262e-05 -4.20702e-06)
(321.473 -4.88832e-05 -6.19075e-06)
(322.33 -7.86276e-05 1.2716e-06)
(323.198 -5.6976e-05 -8.57985e-06)
(324.073 1.4475e-05 3.63e-06)
(324.953 0.000152605 -2.26213e-05)
(325.839 0.000132806 -2.11236e-06)
(326.729 1.49213e-05 8.77168e-06)
(327.623 -0.000117829 -2.58524e-06)
(328.52 -0.000274254 -1.66901e-06)
(329.42 -0.000264164 2.10434e-05)
(330.322 -0.000120993 1.48999e-05)
(331.226 -2.69785e-05 -1.39838e-06)
(332.131 3.65665e-05 -2.12962e-06)
(333.038 3.22009e-05 -2.90872e-05)
(333.946 -6.36272e-05 -4.62308e-06)
(334.856 -0.000180746 2.24959e-05)
(335.767 -0.000202313 -1.28826e-05)
(336.679 -0.000147354 -2.15339e-05)
(337.591 -3.66947e-05 -1.78404e-05)
(338.505 9.68923e-05 2.72387e-05)
(339.419 0.000102994 2.9802e-05)
(340.333 -0.00013411 -1.23682e-05)
(341.248 -0.000253622 1.40112e-05)
(342.164 -0.000351857 4.14906e-05)
(343.08 -0.00031456 2.31712e-05)
(343.997 -0.000507277 -1.68439e-05)
(344.915 -0.000350932 -2.33312e-05)
(345.832 -0.000575748 3.37259e-05)
(346.75 0.00010078 2.98284e-05)
(347.668 -3.64247e-05 4.95908e-05)
(348.587 0.000405423 -5.14001e-05)
(349.507 -0.000474691 -0.000155529)
(350.428 -0.000355831 0.000144599)
(351.35 -0.000738446 0.000278944)
(352.273 -0.000260012 0.000132766)
(353.196 0.00028332 -0.000290357)
(354.12 -0.000639869 5.16167e-05)
(355.044 0.00155828 -6.54253e-05)
(355.967 -0.00301113 0.000505903)
(356.892 0.00436145 -0.000243872)
(357.814 -0.00764458 -2.96522e-05)
(358.743 0.00888716 -0.000853448)
(359.663 -0.0111866 0.000622657)
(360.596 0.0113448 9.44082e-05)
(361.512 -0.0121503 0.00108444)
(362.448 0.010771 -0.000307038)
(363.362 -0.0126346 4.88454e-05)
(364.3 0.0107773 -0.000482818)
(365.213 -0.0137142 0.000422165)
(366.153 0.0130698 -0.000757984)
(367.063 -0.0148691 -0.000490017)
(368.004 0.0162395 -0.00148883)
(368.911 -0.0162328 0.000244273)
(369.855 0.0188942 0.000175418)
(370.76 -0.0182487 0.0020031)
(371.708 0.021428 0.000974258)
(372.61 -0.0221908 0.00233583)
(373.565 0.0245037 0.001585)
(374.462 -0.0279744 0.0037927)
(375.423 0.0292777 0.00135661)
(376.311 -0.0347058 0.00237177)
(377.283 0.0329748 -0.00173652)
(378.155 -0.052215 0.000914275)
(379.129 0.0446476 -0.00400497)
(379.978 -0.0900036 -0.000231034)
(381.01 0.0724507 -0.0102588)
(381.8 -0.152795 -0.00183772)
(383.115 0.116674 -0.0141445)
(383.354 -0.306721 0.00456079)
(318.38 -2.27506e-05 -3.673e-05)
(318.38 -1.7086e-05 -4.11036e-05)
(318.379 -1.24327e-05 -4.89855e-05)
(318.379 -5.78395e-06 -5.5955e-05)
(318.378 1.14123e-05 -6.20593e-05)
(318.377 1.91564e-05 -6.49417e-05)
(318.375 1.95244e-05 -6.93337e-05)
(318.373 2.66887e-05 -7.4887e-05)
(318.371 2.99034e-05 -7.85367e-05)
(318.368 2.75231e-05 -8.0238e-05)
(318.365 2.82002e-05 -8.09246e-05)
(318.363 2.83666e-05 -8.05027e-05)
(318.36 2.41819e-05 -7.87518e-05)
(318.359 2.12512e-05 -7.63687e-05)
(318.358 1.60672e-05 -7.23244e-05)
(318.357 3.4236e-06 -6.49663e-05)
(318.356 -1.61408e-06 -6.14244e-05)
(318.354 2.36628e-06 -5.84137e-05)
(318.352 -8.32048e-06 -5.01687e-05)
(318.349 -1.70607e-05 -4.303e-05)
(318.346 -1.53079e-05 -3.97901e-05)
(318.343 -1.39541e-05 -3.53457e-05)
(318.341 -1.5504e-05 -3.01588e-05)
(318.34 -1.34774e-05 -2.59683e-05)
(318.34 -1.26379e-05 -2.3064e-05)
(318.338 -1.48206e-05 -2.13091e-05)
(318.335 -7.98193e-06 -2.01598e-05)
(318.331 -5.92454e-06 -2.04296e-05)
(318.328 -7.67542e-06 -1.92041e-05)
(318.327 -6.71476e-06 -2.0105e-05)
(318.328 2.22553e-07 -2.05627e-05)
(318.331 1.59331e-06 -1.91064e-05)
(318.334 -2.68038e-06 -1.86021e-05)
(318.334 -3.85085e-06 -1.74269e-05)
(318.332 -1.75685e-08 -1.61404e-05)
(318.33 -3.79593e-06 -1.49421e-05)
(318.328 -3.22324e-06 -1.31294e-05)
(318.328 1.56742e-05 -1.2061e-05)
(318.329 1.72547e-05 -8.06065e-06)
(318.331 -1.2485e-05 -4.21807e-06)
(318.333 -1.92066e-05 -2.09913e-06)
(318.334 1.11624e-05 -1.4248e-06)
(318.333 1.42104e-05 9.90259e-07)
(318.333 7.39347e-06 3.19915e-06)
(318.332 3.04677e-06 5.75962e-06)
(318.333 5.26075e-06 8.09118e-06)
(318.333 -2.64595e-07 1.02036e-05)
(318.334 -5.26291e-06 1.18086e-05)
(318.335 3.23173e-06 1.29698e-05)
(318.337 9.65323e-06 1.36687e-05)
(318.338 1.12787e-05 1.40729e-05)
(318.34 3.53844e-06 1.47931e-05)
(318.341 -2.70983e-06 1.49593e-05)
(318.342 -4.89474e-06 1.58994e-05)
(318.341 1.96364e-06 1.671e-05)
(318.342 4.05083e-06 1.79802e-05)
(318.343 -1.27611e-06 1.97345e-05)
(318.345 2.28598e-06 2.37867e-05)
(318.345 6.60322e-06 2.60426e-05)
(318.345 -1.75514e-06 2.82421e-05)
(318.345 -5.45281e-06 3.2987e-05)
(318.346 4.27283e-07 3.7927e-05)
(318.347 -2.01695e-06 4.19509e-05)
(318.347 -1.45708e-06 4.62407e-05)
(318.348 1.11381e-05 4.92708e-05)
(318.35 7.77381e-06 5.10343e-05)
(318.351 -3.39744e-06 5.26161e-05)
(318.352 8.61399e-07 5.43214e-05)
(318.353 1.10005e-05 5.57832e-05)
(318.353 2.45088e-06 5.67927e-05)
(318.353 -8.43196e-07 5.76204e-05)
(318.352 2.6678e-05 5.51808e-05)
(318.351 2.28972e-05 5.44364e-05)
(318.351 -2.55966e-05 5.44629e-05)
(318.351 -2.53581e-05 5.20444e-05)
(318.35 8.44457e-06 4.92751e-05)
(318.35 1.4857e-05 4.57982e-05)
(318.35 3.38278e-06 4.4171e-05)
(318.351 -6.14279e-06 4.06309e-05)
(318.353 -2.85497e-06 3.66229e-05)
(318.355 -7.97257e-06 2.96884e-05)
(318.358 3.42809e-06 2.44961e-05)
(318.361 1.60575e-05 1.97276e-05)
(318.362 -6.24748e-06 1.76462e-05)
(318.362 -1.37573e-05 1.07333e-05)
(318.362 1.5623e-05 4.03396e-06)
(318.362 2.68893e-05 -5.33058e-07)
(318.363 -1.07642e-05 -6.27172e-06)
(318.363 -1.60072e-05 -9.03601e-06)
(318.363 -5.82523e-06 -1.33135e-05)
(318.364 4.30011e-06 -1.75911e-05)
(318.364 -3.4791e-06 -2.13635e-05)
(318.363 -6.37058e-06 -2.38727e-05)
(318.362 -6.77642e-07 -2.38465e-05)
(318.361 1.01023e-05 -2.34867e-05)
(318.362 -9.14166e-06 -2.31249e-05)
(318.363 -4.49319e-05 -1.88093e-05)
(318.365 -2.21371e-05 -1.40002e-05)
(318.366 2.50429e-05 -1.14878e-05)
(318.366 1.69506e-05 -8.5317e-06)
(318.366 -7.45439e-06 -5.30526e-06)
(318.365 -2.25104e-05 -1.61014e-06)
(318.364 -1.62183e-06 1.79354e-06)
(318.364 1.13307e-07 5.9379e-06)
(318.364 -1.65117e-05 8.81621e-06)
(318.364 1.65898e-05 1.09439e-05)
(318.366 4.32483e-05 9.76792e-06)
(318.368 -2.6844e-05 1.25616e-05)
(318.369 -4.19417e-05 1.21468e-05)
(318.37 2.55107e-05 7.36289e-06)
(318.371 3.50553e-05 4.71691e-06)
(318.373 9.50956e-06 4.04042e-06)
(318.375 -8.93204e-06 2.51049e-06)
(318.375 -8.56906e-06 -6.29733e-07)
(318.375 2.9421e-06 -5.02216e-06)
(318.376 2.54019e-06 -1.01917e-05)
(318.375 -7.61788e-06 -1.62566e-05)
(318.374 -6.66415e-06 -2.31823e-05)
(318.372 1.10693e-05 -3.05581e-05)
(318.37 1.30881e-05 -3.29602e-05)
(318.369 2.02849e-05 -3.81837e-05)
(318.369 1.91787e-05 -4.34625e-05)
(318.369 -1.47824e-05 -4.66263e-05)
(318.37 -1.91456e-05 -5.03983e-05)
(318.372 -2.37801e-06 -5.27201e-05)
(318.372 1.05697e-05 -5.39642e-05)
(318.372 -4.79245e-06 -5.49334e-05)
(318.372 7.64519e-06 -5.60425e-05)
(318.373 4.23032e-05 -5.63826e-05)
(318.374 -1.93907e-05 -5.18887e-05)
(318.375 -4.71683e-05 -4.92413e-05)
(318.377 4.59406e-05 -4.83042e-05)
(318.379 6.3771e-05 -4.64712e-05)
(318.382 -5.57855e-05 -3.93275e-05)
(318.383 -3.54052e-05 -3.67598e-05)
(318.384 8.35027e-06 -3.60549e-05)
(318.384 1.78539e-05 -3.31299e-05)
(318.384 -4.63717e-06 -3.02038e-05)
(318.384 5.00686e-06 -2.66678e-05)
(318.383 -1.40638e-05 -2.34166e-05)
(318.384 -6.22197e-05 -1.93286e-05)
(318.383 7.35764e-07 -1.97405e-05)
(318.382 8.66559e-05 -2.12253e-05)
(318.38 1.41435e-05 -1.71016e-05)
(318.378 -7.60945e-05 -1.22055e-05)
(318.377 -3.08032e-05 -1.3217e-05)
(318.377 1.05685e-05 -1.32224e-05)
(318.377 1.0396e-05 -1.26035e-05)
(318.38 1.07886e-05 -1.20649e-05)