/*--------------------------------*- C++ -*----------------------------------*\
| =========                 |                                                 |
| \\      /  F ield         | OpenFOAM: The Open Source CFD Toolbox           |
|  \\    /   O peration     | Version:  2406                                  |
|   \\  /    A nd           | Website:  www.openfoam.com                      |
|    \\/     M anipulation  |                                                 |
\*---------------------------------------------------------------------------*/
FoamFile
{
    version     2.0;
    format      ascii;
    arch        "LSB;label=32;scalar=64";
    class       volScalarField;
    location    "0.05";
    object      Ma;
}
// * * * * * * * * * * * * * * * * * * * * * * * * * * * * * * * * * * * * * //

dimensions      [0 0 0 0 0 0 0];

internalField   nonuniform List<scalar> 
13988
(
2.70111e-14
2.06009e-14
1.71812e-14
1.00402e-14
1.28764e-14
1.61609e-14
2.04654e-14
1.68642e-14
1.80665e-14
1.37709e-14
9.53707e-15
1.57509e-14
2.41855e-14
4.20337e-14
4.07384e-14
1.27825e-14
3.95682e-14
4.62976e-14
5.11795e-14
4.86822e-14
5.4559e-14
5.87297e-14
5.93539e-14
5.21375e-14
5.03125e-14
3.79251e-14
3.11915e-14
2.16477e-14
8.27827e-15
9.14093e-15
2.91842e-14
6.87027e-14
8.4421e-14
9.03326e-14
9.84622e-14
9.35471e-14
9.92423e-14
1.09466e-13
9.84667e-14
8.80306e-14
5.3414e-14
4.56459e-14
3.25139e-14
1.78983e-14
7.50875e-15
1.67148e-14
1.48226e-14
1.62604e-14
1.01176e-14
1.21121e-14
2.94777e-14
5.26989e-14
4.82277e-14
4.76369e-14
4.03531e-14
1.83357e-14
2.90221e-14
3.63529e-14
4.67987e-14
4.27035e-14
3.72827e-14
2.5002e-14
1.33845e-14
1.5864e-14
1.85436e-14
2.84588e-14
2.16127e-14
2.5841e-14
3.09554e-14
2.65704e-14
2.81973e-14
2.03136e-14
2.18902e-14
2.47081e-14
2.18629e-14
1.98589e-14
2.77268e-14
2.62567e-14
1.48262e-14
2.71291e-14
3.43402e-14
3.1399e-14
3.43776e-14
4.83156e-14
7.64469e-14
6.55908e-14
4.12319e-14
3.86889e-14
4.09286e-14
4.94378e-14
5.63343e-14
5.35398e-14
4.2947e-14
1.47948e-14
1.11195e-14
5.83034e-15
1.08564e-14
1.17865e-14
1.38594e-14
1.49595e-14
1.01374e-14
1.30763e-14
1.53927e-14
1.91546e-14
8.01482e-15
1.45297e-14
1.2366e-14
1.8896e-14
2.70309e-14
2.31819e-14
2.51225e-14
1.73842e-14
1.69744e-14
1.69068e-14
2.56707e-14
2.50006e-14
2.01706e-14
4.65665e-14
5.12313e-14
5.1665e-14
5.0916e-14
6.33023e-14
6.58261e-14
5.68939e-14
4.94298e-14
4.49379e-14
3.59045e-14
2.57122e-14
1.51716e-14
6.37108e-15
6.47814e-15
2.113e-14
5.94943e-14
8.24537e-14
9.90046e-14
1.04942e-13
1.04284e-13
1.02459e-13
1.00463e-13
9.03358e-14
6.7625e-14
4.01525e-14
4.16828e-14
2.98872e-14
1.18221e-14
1.41996e-14
1.01952e-14
1.48862e-14
1.81374e-14
1.70421e-14
1.7436e-14
2.51048e-14
4.32698e-14
5.37739e-14
4.49555e-14
2.93039e-14
1.60956e-14
2.79252e-14
2.92539e-14
3.52364e-14
3.86889e-14
3.81122e-14
2.73566e-14
9.40573e-15
1.23672e-14
1.8799e-14
2.27237e-14
1.24241e-14
2.69585e-14
3.57603e-14
3.67295e-14
3.62475e-14
1.92504e-14
2.46535e-14
2.28071e-14
2.12636e-14
2.23789e-14
3.46615e-14
4.10679e-14
3.17437e-14
3.32475e-14
3.50637e-14
3.40759e-14
3.40844e-14
4.67485e-14
6.289e-14
5.31591e-14
4.23559e-14
2.41765e-14
3.17082e-14
5.08135e-14
6.1212e-14
5.37917e-14
4.07152e-14
1.41921e-14
6.95751e-15
1.37179e-14
1.05349e-14
1.29825e-14
9.44914e-15
1.55121e-14
2.50303e-14
1.51441e-14
9.29326e-15
1.09741e-14
1.13334e-14
1.33739e-14
1.58427e-14
2.13864e-14
2.43958e-14
2.39671e-14
2.30569e-14
1.82311e-14
7.59322e-15
1.1791e-14
1.12642e-14
1.7878e-14
3.52479e-14
4.12049e-14
4.81585e-14
4.56806e-14
5.10828e-14
5.35293e-14
4.86511e-14
4.39609e-14
4.14871e-14
3.18747e-14
2.90386e-14
1.63591e-14
1.24599e-14
1.21011e-14
2.29931e-14
5.72419e-14
8.47708e-14
1.02072e-13
1.04291e-13
1.05639e-13
9.59197e-14
8.28353e-14
6.88185e-14
4.55108e-14
3.1174e-14
2.46621e-14
2.41602e-14
8.37728e-15
9.18271e-15
4.29613e-15
1.04533e-14
2.00431e-14
1.74023e-14
1.76739e-14
1.67264e-14
2.66054e-14
4.09264e-14
2.84681e-14
7.65313e-15
1.26416e-14
2.26883e-14
2.45615e-14
1.78247e-14
2.64609e-14
3.43589e-14
2.62331e-14
1.44709e-14
1.51625e-14
1.36233e-14
1.60679e-14
1.92758e-14
2.22886e-14
2.61977e-14
2.93002e-14
3.09325e-14
2.51696e-14
2.15645e-14
1.98429e-14
1.989e-14
2.62746e-14
3.73227e-14
4.3616e-14
4.19813e-14
3.7866e-14
3.96231e-14
3.76133e-14
3.93067e-14
4.06234e-14
3.07784e-14
2.01728e-14
2.2327e-14
1.73387e-14
2.95083e-14
4.70471e-14
5.68306e-14
5.50178e-14
4.2664e-14
2.35644e-14
1.89955e-14
1.36831e-14
1.5734e-14
1.39307e-14
8.85453e-15
6.49457e-15
1.91378e-14
1.09937e-14
4.86083e-15
1.05479e-14
1.33474e-14
1.38952e-14
1.30542e-14
1.71284e-14
1.60143e-14
1.3429e-14
1.08098e-14
5.79045e-15
5.57913e-15
1.04784e-14
1.34966e-14
2.55455e-14
3.12211e-14
3.24913e-14
3.27481e-14
3.51545e-14
3.84442e-14
3.24359e-14
2.9227e-14
2.58158e-14
2.30467e-14
2.60329e-14
2.03091e-14
1.28517e-14
2.06461e-14
2.68801e-14
6.18269e-14
9.00568e-14
1.00492e-13
9.99637e-14
9.74147e-14
8.50178e-14
7.04022e-14
4.99162e-14
2.8025e-14
1.79263e-14
1.44518e-14
1.37197e-14
9.20582e-15
5.73443e-15
6.2172e-15
1.3191e-14
1.52651e-14
1.4271e-14
8.02014e-15
8.64649e-15
1.91297e-14
2.39887e-14
1.59066e-14
1.23331e-14
2.90514e-14
3.16686e-14
3.15775e-14
2.41586e-14
1.75248e-14
2.399e-14
2.59359e-14
2.232e-14
2.03878e-14
2.3461e-14
2.94266e-14
3.16077e-14
3.36055e-14
3.2455e-14
3.43865e-14
3.84807e-14
3.60774e-14
3.0379e-14
2.65487e-14
2.51122e-14
2.98959e-14
3.24514e-14
3.94954e-14
4.3662e-14
3.92408e-14
4.17954e-14
4.49503e-14
4.87629e-14
3.03846e-14
2.07159e-14
1.75509e-14
1.4178e-14
1.66542e-14
3.68543e-14
5.36624e-14
6.28089e-14
6.47497e-14
5.12533e-14
3.5395e-14
2.48811e-14
1.75108e-14
1.89135e-14
1.02833e-14
1.16604e-14
3.01579e-14
2.6627e-14
2.31363e-14
2.529e-14
2.89535e-14
2.83247e-14
2.86806e-14
2.71089e-14
2.02166e-14
1.88791e-14
2.16495e-14
1.76761e-14
2.04287e-14
2.26993e-14
2.90534e-14
2.83361e-14
3.70667e-14
3.71315e-14
3.45544e-14
3.47909e-14
3.70709e-14
3.52752e-14
2.90067e-14
2.84736e-14
2.56697e-14
2.94907e-14
2.98102e-14
2.18301e-14
3.0121e-14
3.88239e-14
6.73883e-14
9.83488e-14
1.04252e-13
1.01402e-13
9.43739e-14
8.19381e-14
6.804e-14
4.70769e-14
2.97154e-14
2.70685e-14
2.49881e-14
2.90652e-14
2.3545e-14
2.15111e-14
2.13087e-14
2.65678e-14
2.54464e-14
1.995e-14
1.52816e-14
1.82625e-14
2.52965e-14
2.59822e-14
2.60351e-14
2.6177e-14
4.18643e-14
4.22087e-14
3.73552e-14
3.74365e-14
3.56622e-14
3.60605e-14
3.74322e-14
3.7407e-14
3.58221e-14
3.897e-14
4.47637e-14
4.69794e-14
4.67552e-14
4.30334e-14
4.39869e-14
4.19213e-14
4.36341e-14
3.99984e-14
4.11464e-14
4.37771e-14
3.79522e-14
3.34694e-14
3.82944e-14
3.87522e-14
4.15578e-14
4.93905e-14
5.13668e-14
5.26438e-14
3.90233e-14
3.27009e-14
3.1949e-14
3.56968e-14
3.64863e-14
5.21643e-14
6.82886e-14
6.84059e-14
6.78169e-14
5.82329e-14
4.33084e-14
3.1978e-14
3.27925e-14
2.76887e-14
1.87891e-14
2.14477e-14
2.56013e-14
2.55393e-14
2.79207e-14
3.45867e-14
2.76083e-14
2.79896e-14
2.8616e-14
2.51027e-14
2.40044e-14
2.22331e-14
2.61774e-14
2.59836e-14
3.26567e-14
2.8481e-14
3.28156e-14
3.51791e-14
2.8375e-14
2.64184e-14
2.69852e-14
2.8865e-14
2.85838e-14
3.0489e-14
2.76781e-14
2.63733e-14
2.39732e-14
2.6548e-14
2.33959e-14
1.78444e-14
2.13842e-14
4.05757e-14
6.87734e-14
1.00237e-13
1.0316e-13
9.49479e-14
8.66773e-14
6.88962e-14
5.46114e-14
3.96242e-14
2.90805e-14
2.68086e-14
2.24163e-14
2.46823e-14
2.28601e-14
2.38406e-14
2.62162e-14
2.84706e-14
2.91477e-14
2.41388e-14
1.92702e-14
2.41892e-14
2.56018e-14
2.52886e-14
1.94538e-14
2.20061e-14
3.49392e-14
4.12611e-14
4.64602e-14
5.20277e-14
4.88364e-14
4.45478e-14
4.28396e-14
4.35019e-14
3.92803e-14
4.40981e-14
4.90739e-14
5.72763e-14
4.64799e-14
4.27101e-14
4.19738e-14
3.92791e-14
4.13402e-14
3.74193e-14
3.65805e-14
3.66299e-14
3.69894e-14
4.11792e-14
3.91713e-14
3.47236e-14
4.38161e-14
5.2853e-14
5.32832e-14
4.60078e-14
3.93569e-14
2.92614e-14
3.58488e-14
3.36681e-14
3.72106e-14
5.94432e-14
7.61886e-14
7.39374e-14
7.37623e-14
5.65778e-14
4.35193e-14
3.6505e-14
3.48896e-14
3.02968e-14
3.0931e-14
3.20835e-14
2.91544e-14
3.13986e-14
3.45321e-14
3.60629e-14
3.59636e-14
3.868e-14
3.31899e-14
3.12673e-14
3.52593e-14
3.41503e-14
3.45455e-14
3.01005e-14
3.46822e-14
3.61719e-14
3.71416e-14
3.61677e-14
3.32896e-14
3.29502e-14
3.45649e-14
3.63501e-14
3.57479e-14
3.84578e-14
3.8435e-14
3.59748e-14
3.28687e-14
3.47675e-14
2.70772e-14
2.72262e-14
2.49428e-14
3.66557e-14
7.14109e-14
1.07539e-13
1.13157e-13
1.018e-13
8.14955e-14
6.12061e-14
4.41067e-14
3.53324e-14
3.48271e-14
3.31514e-14
3.14049e-14
2.99078e-14
2.90991e-14
2.75197e-14
3.1976e-14
3.04842e-14
2.9177e-14
2.69404e-14
2.43539e-14
2.52702e-14
2.92462e-14
3.09152e-14
2.43603e-14
2.70859e-14
2.87551e-14
3.83774e-14
5.16983e-14
6.26086e-14
6.13445e-14
5.86769e-14
6.01468e-14
5.3296e-14
5.15842e-14
5.21818e-14
4.93403e-14
5.6283e-14
4.96338e-14
4.02677e-14
4.04876e-14
4.01804e-14
4.2053e-14
4.17108e-14
4.12439e-14
3.91564e-14
4.25354e-14
4.52005e-14
4.60403e-14
4.24151e-14
4.45803e-14
5.45047e-14
6.04581e-14
5.1041e-14
5.11943e-14
4.24919e-14
4.76974e-14
4.524e-14
4.76376e-14
6.29546e-14
8.33335e-14
7.97389e-14
7.73266e-14
6.71372e-14
5.41712e-14
5.18514e-14
4.47743e-14
3.94589e-14
4.6169e-14
4.82304e-14
4.15319e-14
4.37109e-14
4.6971e-14
4.26972e-14
5.08994e-14
5.44678e-14
4.26958e-14
3.93416e-14
3.55747e-14
4.07039e-14
3.49275e-14
2.70085e-14
2.81464e-14
3.55687e-14
3.59895e-14
3.50872e-14
4.08692e-14
3.99836e-14
4.44012e-14
4.5181e-14
4.26061e-14
4.40443e-14
4.57936e-14
4.28393e-14
4.41722e-14
4.13323e-14
3.98194e-14
3.36103e-14
3.56945e-14
3.69214e-14
5.73915e-14
8.61562e-14
9.04228e-14
8.27883e-14
6.93478e-14
5.1181e-14
4.67415e-14
4.39021e-14
4.14e-14
4.46533e-14
4.09751e-14
3.49979e-14
3.38868e-14
3.56464e-14
3.26617e-14
3.0594e-14
3.17469e-14
2.70606e-14
2.29043e-14
2.77624e-14
3.37045e-14
3.95532e-14
3.52464e-14
3.35479e-14
3.71555e-14
3.41575e-14
4.43619e-14
5.04716e-14
5.75329e-14
6.56391e-14
6.98795e-14
6.16878e-14
6.17385e-14
5.65498e-14
5.01282e-14
5.20186e-14
5.48476e-14
4.60547e-14
4.83089e-14
4.81256e-14
5.33022e-14
4.89712e-14
4.90703e-14
4.56473e-14
4.78515e-14
4.51005e-14
5.15159e-14
4.90721e-14
5.0692e-14
5.68653e-14
5.47699e-14
5.97891e-14
6.04351e-14
6.03088e-14
5.71788e-14
5.6293e-14
4.90928e-14
5.98834e-14
6.83746e-14
7.70664e-14
7.01292e-14
6.75591e-14
6.6608e-14
6.25251e-14
5.09955e-14
4.68963e-14
4.66118e-14
5.57116e-14
3.15053e-14
2.80981e-14
3.27642e-14
3.17715e-14
4.08285e-14
4.80253e-14
4.30453e-14
3.96527e-14
3.09428e-14
3.21975e-14
2.41521e-14
2.11859e-14
1.91046e-14
1.64332e-14
1.57902e-14
2.58068e-14
2.47174e-14
1.98615e-14
2.66159e-14
2.76614e-14
2.93234e-14
2.52802e-14
2.79681e-14
3.06535e-14
2.66442e-14
1.9958e-14
2.84133e-14
2.42402e-14
2.78478e-14
2.81277e-14
3.20821e-14
3.95514e-14
4.37864e-14
4.28199e-14
4.18284e-14
3.38116e-14
3.04644e-14
2.81047e-14
2.25564e-14
2.58645e-14
2.655e-14
2.51928e-14
2.68983e-14
3.43158e-14
2.93329e-14
2.89699e-14
2.62133e-14
1.95883e-14
1.99257e-14
2.37072e-14
3.67579e-14
4.32942e-14
3.609e-14
2.25664e-14
1.89521e-14
1.64983e-14
2.88209e-14
3.75712e-14
4.61303e-14
5.0841e-14
4.86138e-14
4.78881e-14
4.47902e-14
4.26554e-14
4.22758e-14
4.68601e-14
4.94791e-14
4.5553e-14
4.32329e-14
4.4732e-14
4.66204e-14
4.82344e-14
4.28017e-14
4.51346e-14
4.52997e-14
4.55473e-14
4.15537e-14
4.36873e-14
4.7706e-14
4.78847e-14
4.761e-14
5.11346e-14
4.45836e-14
4.11787e-14
3.93685e-14
3.65158e-14
3.62361e-14
4.56014e-14
5.31844e-14
5.40658e-14
5.54491e-14
5.37507e-14
5.44039e-14
4.65162e-14
4.39184e-14
4.05035e-14
3.90589e-14
4.26763e-14
1.17399e-14
1.57216e-14
1.95552e-14
1.63444e-14
2.72194e-14
3.96358e-14
3.83998e-14
3.35694e-14
3.05079e-14
2.22146e-14
1.71138e-14
1.2703e-14
3.42416e-15
3.81184e-15
8.75299e-15
9.7818e-15
1.43846e-14
1.00566e-14
1.34721e-14
1.20636e-14
1.60644e-14
1.34186e-14
1.33274e-14
2.44767e-14
2.03305e-14
1.16775e-14
1.65467e-14
1.45963e-14
1.59676e-14
1.47032e-14
1.0894e-14
8.14409e-15
1.27772e-14
1.41911e-14
1.49692e-14
1.74052e-14
1.3204e-14
1.01552e-14
7.46514e-15
6.71811e-15
1.06325e-14
1.5719e-14
2.05196e-14
2.28072e-14
2.38855e-14
2.31886e-14
2.20478e-14
1.88629e-14
2.03023e-14
2.93847e-14
3.76985e-14
4.36945e-14
4.02309e-14
3.78866e-14
1.8711e-14
7.1317e-15
2.03056e-14
3.28016e-14
3.88301e-14
3.87056e-14
3.5754e-14
2.81558e-14
3.06525e-14
3.32506e-14
3.39503e-14
3.44542e-14
3.67199e-14
3.71224e-14
3.22774e-14
3.91086e-14
3.31165e-14
3.84958e-14
3.63954e-14
3.92087e-14
3.81081e-14
3.8538e-14
3.22054e-14
3.43535e-14
3.60777e-14
3.64684e-14
3.61946e-14
3.22906e-14
1.88999e-14
1.50247e-14
1.72357e-14
2.40981e-14
2.80658e-14
3.30437e-14
4.10128e-14
3.97522e-14
4.54209e-14
4.02739e-14
3.66512e-14
3.51335e-14
3.57112e-14
3.02588e-14
3.2145e-14
2.58242e-14
2.10813e-14
2.98695e-14
2.19123e-14
2.30327e-14
2.34323e-14
3.2483e-14
3.46294e-14
3.12242e-14
2.91748e-14
2.16782e-14
2.2903e-14
1.89448e-14
1.14795e-14
1.11129e-14
8.89472e-15
1.66272e-14
1.29794e-14
1.96034e-14
1.33551e-14
1.78395e-14
1.5802e-14
2.0388e-14
1.7939e-14
2.18415e-14
2.70331e-14
2.38448e-14
2.64333e-14
2.36645e-14
2.00051e-14
2.30311e-14
9.16875e-15
1.3531e-14
1.16237e-14
1.46921e-14
2.02149e-14
2.30359e-14
1.80114e-14
2.07794e-14
1.53045e-14
1.43487e-14
1.66762e-14
2.06441e-14
2.10452e-14
2.43336e-14
2.45712e-14
2.70012e-14
2.64238e-14
3.14287e-14
2.84587e-14
3.43834e-14
3.64945e-14
3.86048e-14
3.50335e-14
3.12096e-14
2.35023e-14
1.79163e-14
1.83059e-14
3.34002e-14
4.15765e-14
4.74811e-14
4.74453e-14
4.21034e-14
4.13565e-14
4.98339e-14
4.23354e-14
3.04925e-14
3.3124e-14
4.02599e-14
3.9924e-14
4.04655e-14
3.91428e-14
4.28791e-14
4.50686e-14
4.0169e-14
3.64252e-14
3.64379e-14
3.76303e-14
3.32612e-14
3.44014e-14
3.4998e-14
3.7553e-14
3.05146e-14
2.60861e-14
2.05732e-14
2.17925e-14
2.23573e-14
3.10651e-14
3.37345e-14
3.05132e-14
3.04148e-14
3.21471e-14
3.73142e-14
3.69178e-14
4.15698e-14
3.75039e-14
3.79993e-14
3.55034e-14
3.10227e-14
3.74316e-14
3.82372e-14
2.90631e-14
3.01493e-14
3.57739e-14
2.90247e-14
3.46585e-14
3.77024e-14
3.93834e-14
3.51199e-14
3.32701e-14
3.05061e-14
2.94344e-14
2.1504e-14
1.94687e-14
1.79856e-14
2.21923e-14
2.9907e-14
2.45927e-14
2.79028e-14
2.74518e-14
3.01433e-14
3.04256e-14
3.41019e-14
4.46936e-14
4.00101e-14
3.69399e-14
4.21762e-14
3.21245e-14
3.24563e-14
2.52088e-14
3.005e-14
3.59774e-14
3.58039e-14
3.3161e-14
3.49956e-14
3.88847e-14
3.73902e-14
3.80311e-14
3.68272e-14
4.26573e-14
3.90412e-14
4.13365e-14
3.63701e-14
3.83374e-14
4.05368e-14
4.147e-14
4.19888e-14
4.01646e-14
4.37826e-14
4.64746e-14
4.43983e-14
3.76446e-14
3.58366e-14
3.69515e-14
3.03169e-14
4.32891e-14
5.11273e-14
6.30521e-14
6.83752e-14
6.20647e-14
6.05196e-14
5.975e-14
6.57228e-14
6.15644e-14
5.08247e-14
4.73743e-14
5.42583e-14
4.95481e-14
4.91678e-14
4.85437e-14
5.92622e-14
5.47779e-14
5.38579e-14
4.48433e-14
5.04736e-14
4.74087e-14
4.7654e-14
4.11218e-14
4.37289e-14
4.91252e-14
3.65008e-14
4.15826e-14
3.82442e-14
3.43127e-14
3.06177e-14
3.75228e-14
3.97714e-14
3.6131e-14
4.13469e-14
4.22563e-14
4.78178e-14
4.59054e-14
5.14933e-14
5.42397e-14
4.94124e-14
4.93595e-14
5.32342e-14
3.57667e-14
3.89603e-14
2.25451e-14
2.89843e-14
3.52738e-14
3.26873e-14
2.77143e-14
3.54582e-14
4.19728e-14
3.76892e-14
3.11957e-14
3.09462e-14
2.59664e-14
2.10545e-14
1.22288e-14
1.81719e-14
2.25818e-14
1.72313e-14
3.40852e-14
3.45701e-14
3.59414e-14
4.1021e-14
3.37641e-14
3.89087e-14
3.9216e-14
4.32334e-14
3.74291e-14
4.67463e-14
4.21841e-14
4.14696e-14
3.57223e-14
4.19321e-14
4.97636e-14
5.04101e-14
4.58338e-14
3.5103e-14
2.90845e-14
2.87264e-14
3.86858e-14
4.7169e-14
4.40085e-14
5.1126e-14
5.35958e-14
4.62641e-14
4.40192e-14
5.0814e-14
5.57905e-14
5.19202e-14
4.901e-14
5.16053e-14
5.3194e-14
5.12958e-14
4.07344e-14
4.08368e-14
3.29808e-14
3.88148e-14
4.69889e-14
6.06756e-14
7.50649e-14
6.66786e-14
6.03654e-14
6.09665e-14
6.09698e-14
5.12629e-14
5.72039e-14
5.99729e-14
5.26866e-14
5.57075e-14
5.10197e-14
4.72876e-14
5.41259e-14
5.34004e-14
5.07186e-14
4.33198e-14
3.81698e-14
3.655e-14
3.97664e-14
4.05085e-14
4.5247e-14
4.30317e-14
3.83636e-14
3.54317e-14
4.53593e-14
5.00726e-14
4.28353e-14
3.4813e-14
3.59133e-14
3.83083e-14
3.62346e-14
3.56347e-14
4.0931e-14
4.20146e-14
4.1106e-14
4.3509e-14
4.20593e-14
4.61572e-14
4.73202e-14
4.48465e-14
3.23541e-14
3.24341e-14
2.11401e-14
2.94978e-14
1.97207e-14
2.7362e-14
1.81002e-14
2.30092e-14
2.34396e-14
2.71823e-14
2.53727e-14
2.55602e-14
1.8998e-14
1.42801e-14
1.79983e-14
1.95682e-14
1.70317e-14
2.10982e-14
1.91371e-14
2.23307e-14
2.99e-14
3.47648e-14
3.55468e-14
3.41664e-14
3.0709e-14
3.34198e-14
2.4684e-14
4.03525e-14
4.34762e-14
3.87822e-14
4.21185e-14
4.68698e-14
5.24131e-14
6.09578e-14
6.92785e-14
6.20865e-14
3.65176e-14
2.84669e-14
3.54726e-14
4.00516e-14
3.73876e-14
4.2723e-14
4.38756e-14
4.70139e-14
4.52617e-14
4.14429e-14
4.92599e-14
5.44383e-14
5.34148e-14
5.74089e-14
5.9903e-14
5.98381e-14
4.94067e-14
4.27178e-14
3.65682e-14
4.25842e-14
4.73558e-14
5.83955e-14
5.29165e-14
4.12359e-14
3.98439e-14
3.72113e-14
3.76652e-14
3.79552e-14
4.82232e-14
5.33191e-14
5.21306e-14
4.63511e-14
4.78967e-14
4.0019e-14
4.35926e-14
3.56206e-14
4.51843e-14
4.33392e-14
3.48199e-14
2.58411e-14
2.50858e-14
2.7593e-14
3.54396e-14
2.90975e-14
2.24155e-14
3.09602e-14
3.26041e-14
3.86879e-14
3.56637e-14
2.84661e-14
3.33736e-14
2.43395e-14
2.02221e-14
2.01378e-14
2.87487e-14
2.63554e-14
2.71592e-14
2.02711e-14
1.75138e-14
2.31423e-14
2.34286e-14
1.97568e-14
1.81667e-14
9.81748e-15
1.75521e-14
1.48736e-14
8.2619e-15
1.45303e-14
1.19327e-14
1.01736e-14
9.05058e-15
1.90659e-14
2.60847e-14
2.57219e-14
1.66483e-14
5.51746e-15
1.84792e-14
1.4841e-14
1.09807e-14
1.07609e-14
1.68401e-14
1.02643e-14
8.69906e-15
1.21967e-14
2.7827e-14
2.69356e-14
2.59869e-14
1.0793e-14
7.8203e-15
1.78285e-14
3.06848e-14
2.72758e-14
2.57204e-14
3.32938e-14
4.12074e-14
6.28217e-14
7.66108e-14
7.07929e-14
4.92037e-14
2.53519e-14
3.1249e-14
2.47804e-14
2.97517e-14
2.62608e-14
2.5699e-14
2.36491e-14
2.77861e-14
2.65012e-14
3.37991e-14
4.2361e-14
4.69878e-14
5.66264e-14
5.90529e-14
6.0665e-14
5.16071e-14
3.77997e-14
3.92534e-14
4.10932e-14
3.62868e-14
3.70278e-14
3.07921e-14
2.27529e-14
1.5674e-14
5.14001e-15
7.18849e-15
1.13181e-14
2.87263e-14
3.30716e-14
4.47388e-14
3.99667e-14
2.75203e-14
3.10246e-14
2.74186e-14
2.34732e-14
2.74701e-14
4.15604e-14
3.44941e-14
2.86408e-14
2.19086e-14
2.96868e-14
1.59377e-14
1.55354e-14
1.81627e-14
1.53138e-14
9.06848e-15
1.31409e-14
1.31302e-14
1.65048e-14
1.15007e-14
8.12916e-15
9.49247e-15
1.23835e-14
2.49194e-14
3.84269e-14
4.3465e-14
3.59713e-14
2.16304e-14
8.88545e-15
1.3822e-14
1.56028e-14
6.93928e-15
1.69039e-14
1.89619e-14
1.98031e-14
1.86891e-14
2.30612e-14
1.83078e-14
1.64655e-14
1.83645e-14
1.94225e-14
2.1846e-14
2.11359e-14
9.87466e-15
1.75407e-14
2.77506e-14
2.14478e-14
1.18695e-14
1.28079e-14
1.24714e-14
1.27321e-14
2.15053e-14
1.79154e-14
1.72347e-14
2.01069e-14
1.8998e-14
1.99955e-14
1.07895e-14
5.11075e-15
1.39792e-14
2.50235e-14
2.54804e-14
3.38867e-14
3.56915e-14
5.65411e-14
7.70797e-14
6.8566e-14
4.36744e-14
1.27128e-14
1.91237e-14
2.60223e-14
3.79005e-14
3.04143e-14
2.55104e-14
2.09134e-14
1.58881e-14
2.18277e-14
2.88955e-14
4.19915e-14
5.10938e-14
5.23566e-14
6.18124e-14
6.25752e-14
4.83479e-14
3.1354e-14
3.3588e-14
3.54035e-14
2.84843e-14
2.98892e-14
2.10857e-14
1.01029e-14
1.71904e-14
7.93774e-15
8.38407e-15
9.92216e-15
6.42601e-15
1.7191e-14
2.43424e-14
2.41609e-14
1.4457e-14
1.48335e-14
3.25636e-14
3.57096e-14
2.76258e-14
2.99733e-14
3.20099e-14
3.06184e-14
2.3844e-14
2.04994e-14
2.06226e-14
2.32864e-14
1.74897e-14
1.30238e-14
5.02293e-15
8.24192e-15
1.00234e-14
9.67321e-15
1.67882e-14
1.86086e-14
2.2425e-14
2.72266e-14
2.43648e-14
3.72114e-14
4.98379e-14
4.32484e-14
2.86353e-14
2.0316e-14
2.99478e-14
2.00879e-14
8.91698e-15
8.59947e-15
2.09879e-14
2.60281e-14
2.57487e-14
2.06504e-14
2.41944e-14
1.67722e-14
1.74353e-14
1.68071e-14
2.37185e-14
1.93922e-14
1.95886e-14
1.08475e-14
1.81677e-14
1.86714e-14
1.13768e-14
1.13034e-14
1.329e-14
1.16089e-14
1.60811e-14
2.04686e-14
1.90619e-14
1.79556e-14
1.33398e-14
1.77615e-14
1.5392e-14
1.6358e-14
2.19559e-14
2.46969e-14
3.06826e-14
3.57524e-14
5.22424e-14
7.03002e-14
7.99059e-14
6.96145e-14
3.92728e-14
1.41583e-14
1.47805e-14
2.27083e-14
2.89786e-14
2.77695e-14
2.45406e-14
2.0071e-14
1.37981e-14
2.32796e-14
3.18045e-14
3.00575e-14
3.44902e-14
3.90964e-14
3.92241e-14
4.06496e-14
2.9512e-14
2.2508e-14
3.273e-14
3.17677e-14
2.87993e-14
2.07127e-14
1.74366e-14
1.52388e-14
1.72127e-14
9.74852e-15
6.71068e-15
9.7315e-15
1.26795e-14
1.2088e-14
1.89795e-14
2.0493e-14
1.19328e-14
6.43956e-15
1.59119e-14
2.50594e-14
1.99812e-14
1.36981e-14
1.77778e-14
1.58927e-14
1.29403e-14
4.29922e-15
1.64334e-14
1.85277e-14
1.22573e-14
5.33508e-15
7.4102e-15
9.22553e-15
8.70088e-15
1.60358e-14
1.98902e-14
2.66854e-14
2.22895e-14
1.99886e-14
2.41229e-14
2.85589e-14
3.6812e-14
4.02e-14
3.40113e-14
2.86198e-14
1.9355e-14
1.35072e-14
7.55974e-15
8.09665e-15
1.79041e-14
1.47063e-14
1.83631e-14
1.6342e-14
1.35109e-14
1.50564e-14
1.16882e-14
1.59371e-14
1.38863e-14
1.02701e-14
1.3504e-14
1.09246e-14
1.06326e-14
1.72131e-14
1.00164e-14
1.0842e-14
1.82531e-14
1.74401e-14
2.05911e-14
2.11412e-14
2.29823e-14
2.19695e-14
1.51296e-14
1.20137e-14
1.91146e-14
3.3665e-14
3.31157e-14
4.25401e-14
4.67334e-14
5.54295e-14
7.42664e-14
9.0816e-14
8.94215e-14
7.21239e-14
4.00437e-14
1.50465e-14
7.07332e-15
1.71008e-14
1.90227e-14
2.37352e-14
3.09722e-14
3.07219e-14
2.33942e-14
2.36183e-14
2.32208e-14
2.14453e-14
2.00845e-14
1.97453e-14
1.998e-14
2.35028e-14
1.92145e-14
2.02092e-14
2.47867e-14
3.10162e-14
2.64458e-14
1.49815e-14
1.46339e-14
1.4881e-14
1.90237e-14
1.85836e-14
1.85548e-14
2.06848e-14
1.89124e-14
1.83818e-14
1.65365e-14
1.27239e-14
1.28316e-14
6.75507e-15
1.07738e-14
1.10292e-14
1.50947e-14
1.84777e-14
1.41404e-14
1.17723e-14
6.30314e-15
6.1409e-15
1.45428e-15
4.15683e-15
3.70331e-15
6.34042e-15
6.1816e-15
1.28775e-14
1.34763e-14
1.69435e-14
2.55433e-14
2.43797e-14
2.61994e-14
2.71544e-14
3.22171e-14
3.23989e-14
3.18699e-14
3.40026e-14
3.3511e-14
3.23831e-14
3.20611e-14
3.24965e-14
2.10855e-14
1.52884e-14
1.96968e-14
1.79154e-14
2.37468e-14
2.44393e-14
2.01874e-14
2.45086e-14
2.44098e-14
1.97384e-14
2.21895e-14
2.30135e-14
2.50111e-14
2.72888e-14
2.16183e-14
2.69692e-14
2.63815e-14
2.33749e-14
1.91515e-14
1.93906e-14
1.99206e-14
2.86218e-14
3.72364e-14
2.93801e-14
2.30856e-14
2.25221e-14
2.2613e-14
3.40908e-14
3.82596e-14
4.73573e-14
5.52958e-14
6.8197e-14
9.3145e-14
1.09772e-13
1.0036e-13
7.33174e-14
3.71388e-14
1.49601e-14
1.91849e-14
1.75596e-14
1.98145e-14
2.33688e-14
3.18284e-14
3.66347e-14
3.23979e-14
3.36069e-14
2.77814e-14
2.3592e-14
2.73014e-14
2.72121e-14
2.23153e-14
1.8032e-14
1.52078e-14
1.6555e-14
2.39243e-14
2.62714e-14
2.79289e-14
1.82218e-14
1.85632e-14
2.29321e-14
2.30337e-14
2.79187e-14
2.62593e-14
2.34972e-14
2.21675e-14
1.74156e-14
1.91488e-14
1.64774e-14
1.09046e-14
8.09736e-15
3.89161e-15
1.10695e-14
1.18447e-14
2.35486e-14
2.06962e-14
1.86195e-14
1.66288e-14
1.69543e-14
2.03055e-14
1.87515e-14
9.96117e-15
1.24186e-14
6.43941e-15
9.38539e-15
1.81381e-14
3.06699e-14
3.80452e-14
3.30736e-14
3.61555e-14
3.63849e-14
3.96089e-14
4.12952e-14
3.80989e-14
4.2167e-14
4.55538e-14
4.73992e-14
5.66998e-14
6.12487e-14
1.70122e-14
1.04757e-14
1.96684e-14
1.77694e-14
2.03062e-14
1.2325e-14
5.46545e-15
3.89176e-15
7.10882e-15
6.15594e-15
1.30615e-14
1.01484e-14
1.63157e-14
2.33369e-14
2.63079e-14
1.83679e-14
1.76197e-14
2.54632e-14
4.07777e-14
3.55301e-14
1.67871e-14
3.17265e-14
4.37851e-14
4.02879e-14
2.68543e-14
3.55474e-15
1.92208e-14
3.41395e-14
5.19953e-14
4.70198e-14
5.48119e-14
7.26535e-14
1.04794e-13
1.25498e-13
1.1541e-13
7.68957e-14
3.28975e-14
1.03317e-14
2.01185e-14
2.39856e-14
2.64721e-14
2.28194e-14
4.23324e-14
4.92016e-14
3.93262e-14
2.92171e-14
2.66198e-14
2.49304e-14
2.13229e-14
2.16634e-14
2.31577e-14
1.30235e-14
1.0755e-14
1.37031e-14
1.40733e-14
2.67547e-14
3.35373e-14
1.88197e-14
2.06383e-14
2.36849e-14
2.54938e-14
2.68345e-14
2.99515e-14
2.57067e-14
2.34623e-14
2.05441e-14
2.80469e-14
1.52524e-14
1.30726e-14
7.77686e-15
8.56549e-15
5.69163e-15
1.69356e-14
3.09679e-14
1.58188e-14
1.02674e-14
1.33323e-14
1.7195e-14
1.33e-14
1.03829e-14
5.04397e-15
6.49584e-15
1.03971e-14
2.37552e-14
2.45988e-14
1.85115e-14
1.91564e-14
2.09734e-14
2.14813e-14
2.5015e-14
2.77322e-14
3.12204e-14
3.28597e-14
3.48394e-14
3.60448e-14
4.52961e-14
5.98453e-14
7.28848e-14
2.28944e-14
2.84562e-14
3.39886e-14
2.90479e-14
2.93964e-14
3.1007e-14
3.22419e-14
3.24495e-14
3.18217e-14
2.80251e-14
3.00686e-14
3.69105e-14
4.46412e-14
3.88638e-14
3.36898e-14
3.76911e-14
3.28352e-14
4.09814e-14
4.61391e-14
2.73303e-14
2.21724e-14
2.19682e-14
2.83792e-14
3.16475e-14
3.32663e-14
3.04813e-14
2.8357e-14
3.34653e-14
2.88709e-14
3.22071e-14
4.38288e-14
4.82684e-14
6.79264e-14
8.1283e-14
7.02464e-14
6.09082e-14
4.49411e-14
4.78866e-14
5.02065e-14
4.60551e-14
4.96987e-14
3.87407e-14
4.27327e-14
5.41965e-14
4.44081e-14
3.36737e-14
2.72341e-14
2.42978e-14
2.74819e-14
2.9651e-14
3.3747e-14
2.81016e-14
3.43505e-14
3.92408e-14
4.01385e-14
3.59234e-14
3.37142e-14
4.19049e-14
4.524e-14
4.48986e-14
5.14623e-14
4.7323e-14
4.21141e-14
3.12295e-14
2.75004e-14
1.96238e-14
2.37194e-14
1.84598e-14
1.03144e-14
1.70522e-14
1.70887e-14
2.79204e-14
2.39713e-14
3.81157e-14
3.38306e-14
2.80037e-14
2.55655e-14
2.41288e-14
2.39488e-14
2.22492e-14
1.71174e-14
2.2349e-14
1.41981e-14
1.81568e-14
2.0427e-14
2.4429e-14
3.23954e-14
3.53554e-14
3.70101e-14
3.9157e-14
3.95723e-14
3.67482e-14
3.65857e-14
4.11575e-14
4.63123e-14
5.11452e-14
5.16897e-14
5.66433e-14
3.90506e-14
4.94584e-14
3.78473e-14
4.04145e-14
3.53463e-14
3.60416e-14
3.38024e-14
3.69527e-14
3.67862e-14
4.32356e-14
4.14257e-14
4.88184e-14
4.5116e-14
4.99058e-14
4.48559e-14
4.64614e-14
4.63383e-14
6.00125e-14
4.99237e-14
4.69423e-14
4.31214e-14
4.35329e-14
3.94348e-14
4.32069e-14
4.58511e-14
4.63079e-14
3.88542e-14
4.40063e-14
4.3493e-14
4.63099e-14
4.63236e-14
5.00672e-14
5.80262e-14
6.41246e-14
6.08794e-14
6.37256e-14
5.26257e-14
5.36374e-14
5.62586e-14
5.00729e-14
4.75022e-14
5.5209e-14
5.00806e-14
5.70384e-14
5.61669e-14
5.50508e-14
5.21829e-14
4.89496e-14
4.34838e-14
4.04634e-14
3.88783e-14
3.97747e-14
4.9328e-14
5.731e-14
5.43834e-14
5.62296e-14
5.46467e-14
5.43705e-14
4.52047e-14
5.15623e-14
5.10197e-14
4.82071e-14
4.63963e-14
4.77547e-14
4.22546e-14
4.42111e-14
3.94786e-14
3.82664e-14
3.02958e-14
3.13008e-14
3.65408e-14
3.79329e-14
4.00954e-14
3.91474e-14
5.07157e-14
4.20659e-14
4.01681e-14
3.63846e-14
3.61779e-14
3.9091e-14
4.21624e-14
4.31583e-14
4.41231e-14
4.33818e-14
4.16764e-14
3.87977e-14
4.61334e-14
5.43391e-14
5.69776e-14
5.72585e-14
5.17529e-14
4.56631e-14
5.36013e-14
5.61489e-14
5.78182e-14
5.97184e-14
6.0764e-14
5.39853e-14
3.43147e-14
3.2071e-14
2.62631e-14
2.54003e-14
2.86976e-14
3.01317e-14
3.13576e-14
3.3108e-14
3.73498e-14
4.16113e-14
4.22021e-14
4.22637e-14
3.58924e-14
3.86388e-14
4.1598e-14
4.327e-14
4.8838e-14
4.97324e-14
3.91446e-14
4.14145e-14
3.7578e-14
4.31514e-14
3.86715e-14
3.8666e-14
3.59543e-14
3.83831e-14
3.63418e-14
3.67428e-14
3.06274e-14
3.45558e-14
3.41675e-14
3.74614e-14
4.13417e-14
4.28156e-14
4.77679e-14
4.40045e-14
4.44774e-14
4.43496e-14
4.97865e-14
5.27065e-14
4.65902e-14
4.97378e-14
4.96329e-14
5.28597e-14
5.54471e-14
5.69148e-14
6.08952e-14
5.82367e-14
4.82363e-14
4.45271e-14
3.84896e-14
5.14016e-14
6.27849e-14
6.09103e-14
6.01913e-14
5.68467e-14
4.74893e-14
4.75855e-14
4.48872e-14
5.73395e-14
4.23913e-14
3.74413e-14
3.49666e-14
3.72673e-14
3.47491e-14
3.65963e-14
3.82907e-14
3.23289e-14
3.05572e-14
3.16524e-14
3.57175e-14
3.28251e-14
3.32871e-14
3.42819e-14
4.36287e-14
4.54987e-14
4.4276e-14
3.99324e-14
3.44804e-14
3.69708e-14
3.6187e-14
2.99906e-14
2.86611e-14
2.9598e-14
3.73068e-14
3.78717e-14
3.87323e-14
4.28074e-14
4.87352e-14
4.99336e-14
4.66499e-14
4.11199e-14
4.7911e-14
4.62477e-14
4.53972e-14
4.45274e-14
4.92249e-14
4.59981e-14
2.02725e-14
1.42056e-14
1.73756e-14
1.4296e-14
1.46687e-14
1.44044e-14
1.98193e-14
2.05425e-14
2.31804e-14
1.74628e-14
2.09044e-14
2.04877e-14
2.18228e-14
2.21134e-14
2.7657e-14
2.9974e-14
3.11382e-14
2.72985e-14
3.03143e-14
2.57239e-14
2.80844e-14
2.79607e-14
3.32172e-14
2.78423e-14
2.58493e-14
2.27486e-14
2.60554e-14
2.10215e-14
1.80262e-14
1.80338e-14
2.16332e-14
1.68412e-14
1.74823e-14
2.32843e-14
2.9433e-14
2.71207e-14
2.56488e-14
2.60133e-14
3.04811e-14
3.62881e-14
3.63936e-14
3.93991e-14
3.84633e-14
3.73489e-14
4.23078e-14
4.04567e-14
4.49248e-14
4.74673e-14
4.43206e-14
4.08017e-14
4.4035e-14
4.67532e-14
4.46172e-14
4.19995e-14
4.82802e-14
4.25692e-14
4.09692e-14
3.44225e-14
3.61976e-14
3.38073e-14
2.32012e-14
1.75197e-14
1.39099e-14
1.89111e-14
2.13067e-14
1.7711e-14
2.65844e-14
2.2487e-14
2.40809e-14
2.81805e-14
2.64034e-14
2.17274e-14
1.87352e-14
2.39238e-14
2.56796e-14
2.82764e-14
2.82928e-14
3.38479e-14
2.41446e-14
2.04087e-14
1.84947e-14
1.54041e-14
1.14846e-14
1.51045e-14
2.02734e-14
2.36775e-14
1.92864e-14
2.23212e-14
2.24138e-14
2.43316e-14
3.17053e-14
2.50736e-14
2.54014e-14
2.33964e-14
2.22306e-14
2.08437e-14
2.57392e-14
3.30676e-14
1.16667e-14
8.90997e-15
1.28134e-14
1.43844e-14
1.24457e-14
1.31445e-14
1.25567e-14
7.6227e-15
4.40147e-15
1.11709e-14
1.82912e-14
9.98855e-15
1.23655e-14
1.02764e-14
1.76187e-14
1.49094e-14
1.41816e-14
1.54919e-14
1.352e-14
1.25137e-14
1.60413e-14
1.36389e-14
1.99239e-14
1.47429e-14
1.71308e-14
1.31129e-14
1.52307e-14
1.61209e-14
1.67229e-14
1.44646e-14
2.21441e-14
1.36039e-14
1.76903e-14
1.33078e-14
3.36701e-15
1.05398e-14
1.23312e-14
1.17607e-14
1.43556e-14
1.84382e-14
1.76905e-14
1.70673e-14
1.75013e-14
1.22953e-14
1.74319e-14
1.47409e-14
1.33187e-14
1.76362e-14
2.43547e-14
2.316e-14
2.60161e-14
2.32002e-14
2.1783e-14
2.10339e-14
2.36934e-14
1.95951e-14
1.81156e-14
1.7394e-14
1.88782e-14
1.33397e-14
8.52169e-15
8.43362e-15
1.36508e-14
1.41191e-14
1.37219e-14
1.36864e-14
1.13662e-14
1.24333e-14
1.05557e-14
1.21243e-14
1.20288e-14
1.55554e-14
1.69321e-14
2.13379e-14
1.42909e-14
1.03131e-14
1.04948e-14
1.32685e-14
1.56606e-14
1.22475e-14
1.54537e-14
2.03298e-14
7.34033e-15
5.48413e-15
4.88847e-15
6.26861e-15
8.34571e-15
1.16725e-14
7.25083e-15