/*--------------------------------*- C++ -*----------------------------------*\
| =========                 |                                                 |
| \\      /  F ield         | OpenFOAM: The Open Source CFD Toolbox           |
|  \\    /   O peration     | Version:  2406                                  |
|   \\  /    A nd           | Website:  www.openfoam.com                      |
|    \\/     M anipulation  |                                                 |
\*---------------------------------------------------------------------------*/
FoamFile
{
    version     2.0;
    format      ascii;
    arch        "LSB;label=32;scalar=64";
    class       volVectorField;
    location    "0.05";
    object      U;
}
// * * * * * * * * * * * * * * * * * * * * * * * * * * * * * * * * * * * * * //

dimensions      [0 1 -1 0 0 0 0];

internalField   nonuniform List<vector> 
13988
(
(2.19902e-12 -4.64128e-12 7.73254e-12)
(-8.35838e-13 -6.01097e-12 3.64596e-12)
(8.53935e-13 -4.86119e-12 -3.24089e-12)
(7.99411e-13 -3.24307e-12 8.65485e-13)
(-1.30043e-12 -3.55544e-12 -2.29122e-12)
(-4.70658e-12 -2.11199e-12 -2.05755e-12)
(-4.63287e-12 -4.35276e-12 -3.0094e-12)
(8.58294e-13 -4.57077e-12 -3.45841e-12)
(-1.27288e-12 -4.70815e-12 -3.84217e-12)
(-2.83049e-12 -1.60428e-12 -3.43681e-12)
(-3.02461e-12 -1.16928e-12 -4.76265e-13)
(-4.50726e-12 -9.75958e-13 2.83424e-12)
(4.06997e-13 -1.32175e-12 8.19583e-12)
(3.09703e-12 -2.43375e-12 1.38981e-11)
(1.71252e-12 -1.77681e-12 1.37811e-11)
(3.53937e-12 -2.46657e-12 8.28479e-13)
(4.37463e-12 -3.65721e-12 -1.23449e-11)
(2.73425e-12 -2.02609e-12 -1.55426e-11)
(2.44482e-12 -2.56807e-12 -1.72274e-11)
(2.83932e-13 -1.508e-12 -1.66598e-11)
(3.28347e-12 -1.43559e-12 -1.84043e-11)
(5.99218e-12 -1.92651e-12 -1.91768e-11)
(5.33656e-12 -2.70644e-12 -1.95004e-11)
(5.42013e-12 -2.50029e-12 -1.68943e-11)
(5.27608e-12 -3.98211e-12 -1.59772e-11)
(1.90153e-12 -2.42924e-12 -1.26631e-11)
(-2.69162e-12 -2.43878e-12 -1.00853e-11)
(-1.32127e-12 -9.98223e-13 -7.25289e-12)
(1.20487e-12 3.12481e-13 -2.5582e-12)
(5.76969e-13 1.76516e-12 2.53372e-12)
(3.67214e-12 -1.30376e-12 9.24163e-12)
(3.52565e-12 -5.1399e-13 2.33403e-11)
(-3.93345e-13 6.61161e-15 2.90098e-11)
(1.84799e-12 -1.52651e-12 3.09514e-11)
(1.8935e-12 -1.51746e-12 3.37508e-11)
(1.95051e-12 -2.67259e-12 3.19781e-11)
(5.83683e-12 -3.16253e-12 3.34537e-11)
(5.5896e-12 -3.58446e-12 3.70288e-11)
(2.06473e-12 -2.3773e-12 3.36926e-11)
(-3.36835e-12 -1.92558e-12 3.00031e-11)
(-6.8688e-13 -3.47739e-13 1.83403e-11)
(6.59526e-12 -3.72642e-12 1.37366e-11)
(4.67277e-12 -4.44519e-12 9.12474e-12)
(1.41759e-12 -4.48173e-12 3.96729e-12)
(-4.83099e-13 -2.43695e-12 -6.97724e-13)
(-1.59984e-12 -5.50964e-12 -2.84623e-13)
(-1.37741e-12 -4.90284e-12 -1.16677e-13)
(-2.34274e-12 -5.02493e-12 6.98941e-13)
(-2.54375e-12 -1.88015e-12 1.44372e-12)
(-1.11078e-13 -1.8001e-12 3.75151e-12)
(-2.88972e-13 -3.09531e-12 9.64164e-12)
(-2.9477e-12 -4.01733e-12 1.74118e-11)
(-4.64562e-12 -4.03311e-12 1.53901e-11)
(-2.76727e-12 -4.72165e-12 1.54292e-11)
(-1.06546e-12 -4.63978e-12 1.30252e-11)
(-1.75878e-12 -5.54425e-12 2.42374e-12)
(-2.55908e-12 -5.95376e-12 -7.58168e-12)
(-1.32676e-13 -3.52966e-12 -1.19835e-11)
(1.33509e-12 -5.95306e-12 -1.48809e-11)
(2.0835e-12 -5.17167e-12 -1.35753e-11)
(2.85847e-12 -4.88951e-12 -1.1493e-11)
(1.45322e-12 -3.99517e-12 -7.46687e-12)
(8.61689e-13 -2.86671e-12 -3.49249e-12)
(1.24144e-12 -3.65272e-12 -3.85222e-12)
(3.76167e-12 -2.3987e-12 -4.55065e-12)
(6.64353e-12 -4.58556e-12 -5.52173e-12)
(4.3358e-12 -1.81841e-12 -5.74996e-12)
(1.22913e-12 -3.61573e-13 -8.78771e-12)
(3.06456e-12 1.11704e-13 -1.01867e-11)
(3.00107e-12 -4.90467e-13 -8.61008e-12)
(2.9189e-12 -2.63314e-12 -8.85723e-12)
(1.95467e-12 -3.18351e-12 -5.89743e-12)
(2.39279e-12 -2.1587e-12 -6.79767e-12)
(3.93761e-12 -1.9884e-12 -7.2556e-12)
(2.46189e-12 -8.75353e-13 -7.04453e-12)
(-1.10586e-12 -2.46999e-12 -6.2653e-12)
(-3.55679e-12 -1.53798e-12 -8.70518e-12)
(-1.79673e-12 -8.54289e-13 -8.80143e-12)
(-2.36254e-12 -2.35823e-13 -4.50822e-12)
(-2.8717e-12 3.16496e-12 -8.28613e-12)
(-1.417e-13 3.14082e-12 -1.1375e-11)
(1.25384e-12 2.738e-12 -1.0362e-11)
(7.6482e-13 -4.06618e-13 -1.17826e-11)
(-2.1611e-12 -5.10761e-13 -1.64552e-11)
(-2.24221e-12 4.20654e-14 -2.61762e-11)
(-9.87e-13 -7.29017e-13 -2.25078e-11)
(-3.17121e-12 1.99555e-12 -1.36656e-11)
(-3.47355e-12 -2.41019e-14 -1.28342e-11)
(-3.10895e-12 -1.21279e-12 -1.36641e-11)
(-1.82916e-12 2.06601e-13 -1.689e-11)
(8.27728e-13 -4.95617e-13 -1.9336e-11)
(-2.28172e-12 -1.47835e-12 -1.81977e-11)
(-3.16755e-12 -3.05151e-12 -1.40887e-11)
(5.21804e-13 -2.86208e-12 -4.16985e-12)
(-4.40154e-13 -1.39013e-12 3.53223e-12)
(-1.52112e-12 9.64718e-13 -8.77629e-13)
(-8.38071e-13 -1.33733e-12 -3.38071e-12)
(-1.50837e-12 -1.05219e-12 -3.60902e-12)
(-2.52134e-12 -1.66159e-12 -3.68347e-12)
(-2.99865e-12 -6.02659e-13 -4.13222e-12)
(-2.84638e-12 1.92001e-12 -5.90648e-13)
(1.84738e-12 -3.68296e-12 -1.79381e-12)
(8.39321e-13 -5.19897e-12 -4.99613e-13)
(-1.00092e-12 -5.49068e-12 -3.49045e-12)
(-1.17397e-12 -1.3145e-12 -2.11675e-12)
(-2.06897e-12 -1.40612e-14 -4.54452e-12)
(-3.01302e-12 -1.24114e-12 -2.72794e-12)
(-1.87825e-12 -4.95316e-12 -3.7562e-12)
(-4.30169e-13 -7.62219e-12 -5.29273e-12)
(-2.83979e-12 -4.37509e-12 -6.02194e-12)
(-4.52589e-12 -4.81364e-12 -5.55752e-12)
(-2.59158e-12 -3.08759e-12 -4.40945e-12)
(-2.20455e-12 -5.07403e-12 -1.85037e-12)
(6.6544e-13 -3.77273e-12 4.36839e-12)
(1.53807e-12 -2.96697e-12 8.16461e-12)
(1.94758e-12 -3.35111e-12 7.66788e-12)
(3.75619e-12 -5.14266e-12 -2.73774e-12)
(3.8547e-12 -3.75393e-12 -1.50716e-11)
(2.34825e-12 -5.4855e-12 -1.65644e-11)
(1.75276e-12 -1.02998e-12 -1.76386e-11)
(1.20296e-12 -1.61485e-12 -1.73817e-11)
(3.47164e-12 -4.65053e-12 -2.09664e-11)
(6.81973e-12 -3.68301e-12 -2.12529e-11)
(5.61542e-12 -3.26767e-12 -1.84414e-11)
(4.59399e-12 -3.47399e-12 -1.5981e-11)
(3.30622e-12 -1.87649e-12 -1.49683e-11)
(6.46251e-13 -1.32052e-12 -1.22512e-11)
(-1.41814e-12 2.16661e-13 -8.71912e-12)
(-5.56505e-13 -9.3284e-13 -5.09954e-12)
(5.61502e-13 1.87725e-12 -9.77043e-13)
(7.13329e-13 -2.10619e-12 1.07549e-13)
(3.28578e-12 -1.89655e-12 6.19176e-12)
(3.31256e-12 -1.79806e-12 2.00956e-11)
(1.12773e-12 -4.98553e-14 2.83139e-11)
(2.41126e-12 -3.82959e-12 3.3722e-11)
(3.17741e-12 -1.30316e-12 3.59009e-11)
(3.60197e-12 -3.92386e-12 3.54405e-11)
(4.90109e-12 -3.06082e-12 3.47341e-11)
(4.40806e-12 -6.07119e-13 3.42376e-11)
(1.13186e-12 1.8977e-12 3.09664e-11)
(-2.42814e-12 -8.49859e-13 2.30975e-11)
(2.62098e-12 -3.77298e-12 1.30118e-11)
(6.48728e-12 -5.88828e-12 1.13334e-11)
(3.83355e-12 -3.84288e-12 8.71968e-12)
(5.3087e-13 -3.0713e-12 2.60611e-12)
(3.37635e-13 -1.35235e-12 -4.67658e-12)
(-2.51868e-13 -3.25104e-12 -1.28194e-12)
(-5.88612e-13 -5.08006e-12 1.35602e-13)
(-2.97411e-12 -4.41233e-12 3.2463e-12)
(-3.98754e-12 -1.80559e-12 3.89116e-12)
(-1.08671e-12 -2.94552e-12 5.10377e-12)
(-5.70206e-13 7.15783e-13 8.57896e-12)
(-2.41513e-12 4.41755e-13 1.46662e-11)
(-3.30005e-12 -1.06886e-12 1.81517e-11)
(-2.99763e-12 -2.82484e-12 1.48904e-11)
(4.47091e-13 -3.01897e-13 1.00563e-11)
(-9.22343e-14 -5.52363e-12 -2.79892e-13)
(-3.74027e-12 -5.29163e-12 -7.07878e-12)
(-3.04624e-13 -4.69831e-12 -8.88293e-12)
(1.96735e-12 -6.99784e-12 -9.685e-12)
(1.3801e-12 -7.55627e-12 -1.08527e-11)
(2.08823e-12 -5.37977e-12 -1.17579e-11)
(2.2236e-14 -5.71922e-12 -7.46175e-12)
(1.28403e-12 -1.96608e-12 -2.22133e-12)
(1.13364e-12 -3.47143e-12 -2.17442e-12)
(3.68498e-12 -4.45092e-12 -2.88947e-12)
(5.93413e-12 -4.36742e-12 -2.58787e-12)
(2.6225e-12 -1.66764e-12 -2.92778e-12)
(1.42269e-12 -3.23815e-12 -8.56296e-12)
(2.56901e-12 -2.30541e-12 -1.17948e-11)
(3.42761e-12 -8.17319e-13 -1.21208e-11)
(3.84468e-12 -3.64132e-12 -1.12754e-11)
(2.55021e-12 -2.50511e-12 -5.56667e-12)
(2.6063e-12 -4.48335e-12 -6.70002e-12)
(2.99359e-12 -2.41631e-13 -7.23974e-12)
(2.71243e-12 -1.44646e-12 -6.62951e-12)
(-4.77165e-14 -1.19569e-12 -7.59716e-12)
(-4.39929e-12 -1.86395e-12 -1.09117e-11)
(-3.30817e-12 -1.17704e-12 -1.36698e-11)
(-4.02771e-12 -3.06646e-13 -1.01338e-11)
(-2.88081e-12 2.33493e-12 -1.08075e-11)
(5.55472e-13 -2.35576e-14 -1.20373e-11)
(2.42729e-12 1.23526e-12 -1.13895e-11)
(1.39591e-12 4.37571e-13 -1.16219e-11)
(-2.42041e-12 2.19839e-12 -1.57295e-11)
(-1.81041e-12 4.48074e-13 -2.15324e-11)
(-3.1069e-12 1.65838e-12 -1.79262e-11)
(-3.59984e-12 2.48925e-12 -1.38826e-11)
(-2.49434e-13 2.29521e-12 -7.98137e-12)
(-1.19943e-12 -3.18183e-13 -1.08261e-11)
(-3.0764e-12 1.43197e-13 -1.71891e-11)
(-1.37064e-12 -7.99207e-13 -2.09765e-11)
(-8.56065e-13 -3.27485e-13 -1.84635e-11)
(-1.25344e-12 -3.61332e-12 -1.34595e-11)
(-4.47758e-13 -1.65844e-12 -4.5648e-12)
(-2.08671e-12 8.80028e-13 -7.67002e-13)
(-1.27183e-12 2.95433e-12 -3.44664e-12)
(-4.0576e-13 1.74247e-12 -3.14751e-12)
(-1.11268e-12 3.37361e-12 -2.69939e-12)
(-1.88158e-12 1.16211e-12 -2.37788e-12)
(-3.63837e-12 1.22141e-12 -3.69992e-12)
(1.56439e-12 -2.40291e-12 -8.11007e-12)
(1.69918e-12 -1.16058e-12 -4.78042e-12)
(-1.70005e-12 -1.12785e-12 -2.45721e-12)
(-2.6311e-12 -1.96023e-12 -1.85967e-12)
(-1.47292e-12 -2.01017e-12 -2.99328e-12)
(-1.9977e-12 -3.06839e-12 -2.77824e-12)
(-5.25108e-13 -3.93388e-12 -3.72721e-12)
(9.64136e-14 -4.28907e-12 -5.96767e-12)
(-2.54252e-12 -2.77342e-12 -7.49232e-12)
(-3.32729e-12 -4.38407e-12 -6.12791e-12)
(-2.83503e-12 -3.69256e-12 -6.41209e-12)
(-3.50459e-12 -4.3126e-12 -2.89383e-12)
(-1.47456e-12 -2.00899e-12 7.74092e-13)
(2.80259e-12 -2.60944e-12 1.32518e-12)
(3.39989e-12 -1.67502e-12 7.87697e-13)
(3.10652e-12 -2.52748e-12 -4.65946e-12)
(5.02354e-12 -2.21888e-12 -1.0797e-11)
(8.4434e-13 -2.04784e-12 -1.39863e-11)
(1.94199e-13 -2.58578e-13 -1.65472e-11)
(3.55659e-12 -1.17024e-12 -1.52457e-11)
(4.59231e-12 -3.00323e-12 -1.66758e-11)
(4.14096e-12 -2.27395e-12 -1.77792e-11)
(5.3211e-12 -9.28588e-13 -1.58231e-11)
(4.60222e-12 1.22403e-13 -1.43892e-11)
(3.0693e-12 2.01667e-12 -1.37765e-11)
(1.18883e-12 1.41255e-12 -1.07975e-11)
(-1.88743e-12 1.67803e-12 -9.65467e-12)
(-2.16984e-12 9.52479e-13 -5.09821e-12)
(1.34147e-12 3.20127e-12 -2.50762e-12)
(4.1549e-12 -9.25378e-14 -1.51902e-13)
(2.95589e-12 -9.44661e-13 7.26708e-12)
(2.53191e-12 -7.41652e-13 1.94943e-11)
(1.66013e-12 -3.05697e-12 2.89242e-11)
(2.40688e-12 -4.02972e-12 3.47629e-11)
(2.77165e-12 -1.69985e-12 3.56933e-11)
(3.37823e-12 -2.43454e-12 3.60646e-11)
(3.69019e-12 -2.60411e-12 3.26533e-11)
(3.34968e-12 -1.62859e-12 2.82228e-11)
(8.24702e-13 -1.18729e-12 2.36062e-11)
(1.27808e-12 -1.30034e-12 1.55338e-11)
(3.5161e-12 -4.76849e-12 8.92608e-12)
(5.00824e-12 -2.40202e-12 6.40169e-12)
(2.85729e-12 -1.63596e-12 7.6223e-12)
(1.00566e-12 -2.62416e-13 2.68482e-12)
(6.73204e-13 -7.6292e-14 -3.08218e-12)
(1.19279e-12 -4.00668e-13 -7.72364e-13)
(-9.97419e-14 -2.19671e-12 2.84077e-12)
(-3.95947e-12 -1.29184e-12 5.48632e-12)
(-3.11875e-12 -1.43233e-12 4.89782e-12)
(-2.31476e-12 -8.76539e-13 5.54667e-12)
(-2.73624e-12 1.32915e-13 5.05349e-12)
(-1.54009e-12 1.70793e-13 9.01106e-12)
(-2.63394e-12 2.59484e-12 1.35703e-11)
(-3.36235e-12 9.18307e-13 9.14151e-12)
(8.91644e-13 9.70771e-13 2.27597e-12)
(1.17495e-12 3.86699e-13 -4.16466e-12)
(-2.52541e-12 -1.47748e-12 -7.22739e-12)
(5.86595e-13 -3.15883e-12 -7.80556e-12)
(2.609e-12 -2.82699e-12 -4.76716e-12)
(2.43547e-13 -3.95203e-12 -8.18638e-12)
(1.64796e-12 -2.54022e-12 -1.14131e-11)
(-7.90529e-13 -1.99422e-12 -8.75644e-12)
(-1.79156e-13 -1.29318e-12 -4.7987e-12)
(3.58847e-12 -4.40571e-13 -3.75251e-12)
(3.78727e-12 -1.37216e-12 -2.38609e-12)
(4.70412e-12 1.12506e-12 -2.6641e-12)
(4.15264e-12 1.74085e-12 -4.85877e-12)
(1.95621e-12 -3.27987e-14 -7.40571e-12)
(1.66817e-12 8.34748e-14 -8.84691e-12)
(3.69633e-12 -2.06736e-13 -9.36419e-12)
(4.11764e-12 5.04891e-13 -9.78752e-12)
(2.62456e-12 8.24956e-13 -8.20072e-12)
(8.04744e-13 1.98053e-14 -7.36708e-12)
(1.66234e-12 1.3473e-12 -6.4749e-12)
(3.80366e-12 7.57278e-13 -5.62873e-12)
(2.41234e-13 1.90665e-12 -8.82273e-12)
(-3.50427e-12 1.4924e-12 -1.22479e-11)
(-2.93043e-12 1.13378e-12 -1.46562e-11)
(-4.71183e-12 2.56544e-12 -1.33929e-11)
(-2.74889e-12 3.71869e-14 -1.27195e-11)
(9.04624e-13 -9.9838e-13 -1.35502e-11)
(8.82655e-13 -5.53952e-13 -1.28843e-11)
(-4.86347e-13 1.78263e-12 -1.33813e-11)
(-1.33353e-12 1.32159e-12 -1.3834e-11)
(-6.53396e-13 5.42201e-13 -1.05433e-11)
(-2.34803e-12 2.31965e-12 -6.09655e-12)
(-2.92021e-12 6.51801e-13 -7.06557e-12)
(-1.33578e-12 8.49574e-13 -5.74455e-12)
(-1.50707e-12 2.85907e-12 -9.61214e-12)
(-2.01835e-12 1.35366e-12 -1.59847e-11)
(2.34935e-13 1.10537e-12 -1.94979e-11)
(-8.96797e-13 1.52906e-12 -1.88244e-11)
(-2.82246e-12 5.33919e-13 -1.4378e-11)
(-2.02242e-12 3.1169e-12 -7.19556e-12)
(-3.67756e-12 3.65547e-12 -3.96597e-12)
(-2.32182e-12 2.5859e-12 -3.16779e-12)
(-1.60412e-12 4.63922e-12 -2.26772e-12)
(-7.8486e-13 4.70464e-12 -4.12575e-13)
(-3.27866e-13 2.92207e-12 7.83417e-13)
(-1.53994e-12 1.53059e-12 -5.17204e-13)
(-4.27925e-13 3.76511e-12 -5.37565e-12)
(-1.27936e-13 3.60912e-12 -1.11011e-12)
(-2.62615e-13 6.27734e-13 -1.52562e-12)
(-1.02013e-12 -3.11035e-13 -3.4645e-12)
(-1.55761e-12 1.17935e-12 -4.15013e-12)
(-7.24884e-13 -8.9066e-14 -4.71911e-12)
(-1.06716e-12 1.08748e-12 -4.21962e-12)
(-2.47722e-12 6.69501e-13 -5.29764e-12)
(-3.82056e-12 -3.13889e-13 -3.94889e-12)
(-2.9379e-12 1.23024e-13 -3.55704e-12)
(-3.04804e-12 7.69558e-13 -1.97937e-12)
(-1.15375e-12 4.88176e-13 -1.54613e-12)
(1.10665e-12 7.91646e-13 -1.35086e-12)
(1.7983e-12 2.6171e-12 -1.69838e-12)
(3.25835e-12 2.01173e-12 -2.61721e-12)
(2.78031e-12 2.13057e-12 -8.05001e-12)
(1.26845e-12 3.57066e-12 -1.00382e-11)
(1.23871e-12 1.60064e-12 -1.09811e-11)
(2.36044e-12 1.70327e-12 -1.08714e-11)
(3.69611e-12 1.73814e-12 -1.137e-11)
(4.96277e-12 1.99697e-12 -1.20804e-11)
(4.29752e-12 1.46339e-12 -1.01807e-11)
(2.16927e-12 3.24202e-12 -9.25587e-12)
(1.95791e-12 3.79241e-12 -7.7779e-12)
(7.20965e-13 4.50294e-12 -6.47574e-12)
(1.84196e-13 3.50556e-12 -8.22909e-12)
(-9.88214e-13 3.42427e-12 -6.00094e-12)
(5.27736e-13 3.2679e-12 -2.9239e-12)
(4.05431e-12 5.816e-12 -2.82918e-13)
(3.56097e-12 4.15703e-12 7.4414e-12)
(4.77439e-12 3.07227e-12 2.04751e-11)
(4.77291e-12 -1.86053e-12 3.05224e-11)
(1.45685e-12 -8.59185e-13 3.4494e-11)
(2.17614e-12 -1.18648e-12 3.42644e-11)
(4.38155e-12 -9.7636e-13 3.31756e-11)
(3.92759e-12 -2.88917e-12 2.88079e-11)
(1.77536e-12 -1.49973e-12 2.40828e-11)
(-2.69096e-12 4.36202e-13 1.69364e-11)
(4.76036e-13 2.51075e-12 9.28596e-12)
(3.6432e-12 2.1502e-13 4.96327e-12)
(3.45971e-12 2.25471e-12 2.75925e-12)
(2.27128e-12 2.22526e-12 3.48146e-12)
(1.62368e-13 1.92997e-12 2.50158e-12)
(1.28421e-12 1.13126e-12 9.77133e-13)
(3.92958e-13 4.01678e-13 2.06141e-12)
(-7.38968e-13 2.37384e-12 3.79068e-12)
(-2.26577e-12 1.15079e-12 4.58945e-12)
(-3.67537e-12 -4.53717e-13 3.21545e-12)
(-2.52652e-12 7.61184e-13 7.96317e-13)
(-2.10179e-12 8.40264e-14 2.09885e-12)
(-3.56431e-12 1.9364e-12 5.17358e-12)
(-3.18626e-12 2.06157e-12 7.3186e-12)
(-9.32097e-13 3.32145e-12 4.24052e-12)
(-2.2575e-13 2.25618e-12 -3.58092e-12)
(2.8282e-13 3.57413e-12 -9.31795e-12)
(-4.23866e-13 1.52244e-12 -1.0768e-11)
(9.80844e-15 -1.2048e-12 -1.0785e-11)
(1.61745e-12 1.45328e-12 -8.01264e-12)
(8.21121e-13 2.28808e-12 -5.51022e-12)
(4.38152e-13 2.39447e-12 -7.87693e-12)
(6.43277e-15 4.15909e-12 -7.88338e-12)
(2.12679e-13 2.90972e-12 -7.09408e-12)
(9.46935e-13 3.51997e-12 -5.98372e-12)
(2.1376e-12 4.85691e-12 -6.0703e-12)
(2.93504e-12 5.97784e-12 -7.6106e-12)
(3.35769e-12 7.19128e-12 -7.41644e-12)
(2.77679e-12 7.43012e-12 -8.39418e-12)
(2.82657e-12 6.29043e-12 -8.7661e-12)
(3.57625e-12 5.60905e-12 -9.76728e-12)
(3.43228e-12 6.80002e-12 -1.08104e-11)
(3.58631e-12 6.85277e-12 -9.69024e-12)
(3.02961e-12 6.27769e-12 -7.77234e-12)
(2.46661e-12 4.88457e-12 -7.30075e-12)
(2.29055e-12 5.87125e-12 -5.89587e-12)
(-5.65915e-13 6.16399e-12 -8.20019e-12)
(-3.80798e-12 3.09399e-12 -1.00151e-11)
(-4.05145e-12 3.20307e-12 -1.25521e-11)
(-2.81705e-12 3.6629e-12 -1.42758e-11)
(-8.20783e-13 4.36787e-13 -1.34536e-11)
(6.15644e-13 1.54527e-12 -1.42669e-11)
(3.3303e-13 1.3036e-12 -1.53891e-11)
(4.59889e-14 2.44672e-12 -1.65784e-11)
(-1.03788e-12 2.133e-12 -1.01691e-11)
(-3.38974e-12 5.39161e-12 -3.18195e-12)
(-2.80875e-12 4.95875e-12 1.97531e-12)
(-1.14362e-12 4.71864e-12 4.09271e-13)
(-1.32585e-12 3.98693e-12 -3.88644e-12)
(-2.03766e-12 5.4107e-12 -1.12688e-11)
(-3.2527e-12 4.33601e-12 -1.76273e-11)
(-2.38827e-12 6.09792e-12 -2.05677e-11)
(-8.6239e-13 6.30688e-12 -2.13222e-11)
(-2.07736e-12 6.67872e-12 -1.61657e-11)
(-1.10666e-12 7.05099e-12 -9.84993e-12)
(-1.38026e-12 5.93837e-12 -5.99548e-12)
(-2.71416e-12 4.06732e-12 -3.50779e-12)
(-2.95505e-12 5.54515e-12 -1.66354e-12)
(-2.88418e-13 3.51365e-12 2.45552e-13)
(9.04676e-13 1.81102e-12 3.45831e-12)
(-1.3953e-12 8.82045e-12 -5.26016e-12)
(7.73748e-13 8.75265e-12 -2.55517e-12)
(3.53331e-13 7.44345e-12 -2.77319e-12)
(-1.56029e-12 7.61684e-12 -3.88425e-12)
(-1.30809e-12 8.29963e-12 -5.33037e-12)
(-2.27648e-13 7.57421e-12 -6.11015e-12)
(-7.40376e-13 7.32954e-12 -6.54831e-12)
(-1.7259e-12 7.33952e-12 -5.47238e-12)
(-2.96642e-12 5.8165e-12 -2.37476e-12)
(-3.63243e-12 5.07966e-12 -1.75994e-12)
(-4.10995e-12 6.11938e-12 -1.00858e-12)
(-1.42803e-12 5.76969e-12 -1.25407e-12)
(1.55388e-12 6.6464e-12 -1.64316e-12)
(2.23273e-12 7.32507e-12 -1.48754e-12)
(2.59662e-12 9.591e-12 -9.81191e-13)
(2.48439e-12 8.06678e-12 -4.85651e-12)
(1.09958e-12 8.82704e-12 -9.11831e-12)
(1.59359e-12 8.77596e-12 -9.1258e-12)
(3.29508e-12 7.91665e-12 -8.21507e-12)
(3.58896e-12 7.42223e-12 -8.65937e-12)
(4.02903e-12 8.10816e-12 -8.96274e-12)
(4.08011e-12 9.1443e-12 -6.83351e-12)
(1.99219e-12 8.69855e-12 -4.44285e-12)
(2.28228e-12 8.36885e-12 -4.52839e-12)
(1.29727e-12 8.24226e-12 -2.8645e-12)
(9.89215e-14 8.45244e-12 -5.5913e-12)
(-9.7475e-13 8.56784e-12 -5.53131e-12)
(-2.95235e-13 7.00763e-12 -2.66253e-12)
(3.75192e-12 9.64632e-12 1.581e-13)
(4.61263e-12 9.15906e-12 8.53545e-12)
(5.64152e-12 5.40109e-12 2.18022e-11)
(6.05688e-12 3.80956e-12 3.30329e-11)
(2.79876e-12 5.88081e-12 3.52309e-11)
(2.53953e-12 4.80445e-12 3.44219e-11)
(4.30289e-12 6.18698e-12 3.15452e-11)
(4.17532e-12 3.36388e-12 2.7644e-11)
(4.68052e-13 5.24941e-12 2.27812e-11)
(-2.80687e-12 7.27365e-12 1.41762e-11)
(5.47928e-13 8.20618e-12 6.05356e-12)
(3.27451e-12 8.02336e-12 3.38221e-12)
(2.90165e-12 7.90476e-12 1.68536e-12)
(2.82636e-12 9.1681e-12 2.78046e-12)
(1.67214e-12 7.40362e-12 2.80426e-12)
(1.54066e-12 6.3942e-12 3.37503e-12)
(-1.62656e-13 6.5057e-12 3.35802e-12)
(-6.84204e-13 8.09428e-12 4.16875e-12)
(-1.70131e-12 7.14729e-12 4.74309e-12)
(-3.55024e-12 4.75932e-12 3.42795e-12)
(-2.69189e-12 4.50937e-12 4.96532e-16)
(-3.27507e-12 4.87373e-12 2.21604e-12)
(-3.41665e-12 6.25961e-12 4.972e-12)
(-3.33431e-12 5.79082e-12 5.92271e-12)
(-1.64545e-12 8.41781e-12 2.54711e-12)
(9.88496e-14 7.50463e-12 -4.95992e-12)
(-2.40616e-13 8.53195e-12 -1.15819e-11)
(-1.49286e-13 8.60994e-12 -1.1673e-11)
(-3.10965e-13 6.38261e-12 -1.11342e-11)
(8.06272e-13 7.80227e-12 -1.01979e-11)
(7.73052e-13 9.20318e-12 -8.0566e-12)
(4.45578e-13 9.01034e-12 -8.49672e-12)
(-7.52843e-13 9.56028e-12 -8.57437e-12)
(3.21704e-13 1.04054e-11 -7.54223e-12)
(1.15054e-12 1.06914e-11 -5.99372e-12)
(1.91552e-12 1.09669e-11 -7.44442e-12)
(2.89618e-12 1.21521e-11 -8.97749e-12)
(3.13955e-12 1.31496e-11 -8.82595e-12)
(3.05807e-12 1.29226e-11 -9.04643e-12)
(3.08373e-12 1.20003e-11 -8.07452e-12)
(3.33305e-12 1.20102e-11 -8.55339e-12)
(3.03608e-12 1.17374e-11 -7.78286e-12)
(3.33829e-12 1.20412e-11 -8.29033e-12)
(2.32825e-12 1.10226e-11 -7.87625e-12)
(1.83015e-12 1.1372e-11 -8.20262e-12)
(2.7235e-12 1.16115e-11 -9.17042e-12)
(1.1763e-12 1.01361e-11 -8.12343e-12)
(-1.72142e-12 7.93984e-12 -8.14228e-12)
(-3.19989e-12 7.80395e-12 -1.01023e-11)
(-2.50979e-12 6.93556e-12 -1.10888e-11)
(-1.22655e-12 5.63919e-12 -1.3064e-11)
(-1.08359e-12 6.50514e-12 -1.56402e-11)
(-2.92413e-13 6.79919e-12 -1.62884e-11)
(-2.27795e-13 6.86205e-12 -1.67384e-11)
(-2.38211e-12 8.46131e-12 -1.01284e-11)
(-2.90083e-12 1.08029e-11 -1.08569e-12)
(-1.86173e-12 9.79545e-12 4.59757e-12)
(-2.45426e-12 1.15588e-11 3.29647e-12)
(-1.50002e-12 1.19517e-11 -3.48336e-12)
(-2.21857e-12 1.2588e-11 -1.25698e-11)
(-3.02079e-12 1.23725e-11 -1.97119e-11)
(-9.99223e-13 1.23147e-11 -2.00001e-11)
(-7.70779e-13 1.14191e-11 -2.03025e-11)
(-2.40394e-12 1.18847e-11 -1.5921e-11)
(-8.9431e-13 1.13051e-11 -9.63921e-12)
(-1.27619e-12 9.78618e-12 -4.83479e-12)
(-3.09071e-12 1.03769e-11 -3.12604e-12)
(-2.55494e-12 9.0467e-12 -1.47526e-12)
(1.15711e-12 6.3513e-12 1.28733e-13)
(1.52088e-12 6.20937e-12 3.66874e-12)
(-1.94279e-12 6.87131e-12 -5.14005e-12)
(-1.95177e-14 8.57587e-12 -1.86775e-12)
(-5.63227e-14 8.93174e-12 -3.50589e-12)
(-1.3565e-12 1.01711e-11 -5.99922e-12)
(-1.11084e-12 7.21748e-12 -6.05768e-12)
(1.85096e-13 6.6787e-12 -6.92e-12)
(-5.59276e-13 5.58414e-12 -8.07575e-12)
(-1.07632e-12 5.85216e-12 -6.24637e-12)
(-1.6513e-12 6.73109e-12 -4.47426e-12)
(-3.15588e-12 5.99242e-12 -3.53719e-12)
(-2.88474e-12 8.00355e-12 -2.92466e-12)
(-1.22427e-12 8.72536e-12 -1.45174e-12)
(5.55122e-13 1.10568e-11 -1.84204e-12)
(-2.90519e-13 9.4975e-12 -2.3487e-12)
(9.62192e-13 1.08178e-11 -3.03835e-12)
(2.51791e-12 1.09191e-11 -4.53837e-12)
(4.52266e-13 8.1811e-12 -5.28737e-12)
(1.43187e-12 8.03178e-12 -3.98364e-12)
(3.70434e-12 6.87342e-12 -5.00381e-12)
(3.45352e-12 7.64703e-12 -5.29151e-12)
(2.76662e-12 7.96696e-12 -5.03679e-12)
(3.39859e-12 9.17503e-12 -3.74915e-12)
(3.3153e-12 8.6479e-12 -2.16795e-12)
(2.31991e-12 8.34359e-12 -2.67404e-12)
(7.02983e-13 7.8303e-12 -2.46346e-12)
(2.39687e-13 8.50224e-12 -3.30071e-12)
(5.48227e-13 6.81924e-12 -4.22425e-12)
(4.52894e-13 6.08102e-12 -6.50814e-13)
(3.06655e-12 6.53107e-12 1.3961e-12)
(5.867e-12 9.04593e-12 8.84284e-12)
(7.02718e-12 4.83325e-12 2.20425e-11)
(3.82912e-12 7.65962e-12 3.33664e-11)
(1.27104e-12 8.3425e-12 3.44336e-11)
(1.06707e-12 7.57099e-12 3.17218e-11)
(4.6803e-12 5.12453e-12 2.89681e-11)
(5.49237e-12 5.79154e-12 2.22912e-11)
(-6.96599e-13 6.03865e-12 1.77563e-11)
(-3.04133e-12 6.21385e-12 1.17291e-11)
(5.8491e-13 7.62551e-12 6.43337e-12)
(3.34085e-12 7.5328e-12 4.1204e-12)
(2.37073e-12 6.58771e-12 3.21375e-12)
(2.12288e-12 7.45393e-12 3.44729e-12)
(2.08559e-12 6.5502e-12 3.80327e-12)
(2.04786e-12 6.15547e-12 5.0044e-12)
(-2.64837e-13 7.3434e-12 5.2131e-12)
(-5.19788e-13 8.34394e-12 5.08344e-12)
(7.86009e-13 8.68667e-12 4.9259e-12)
(-1.69842e-12 6.4902e-12 4.87959e-12)
(-2.74773e-12 5.57227e-12 2.29283e-12)
(-3.11268e-12 6.9563e-12 3.32056e-12)
(-3.21121e-12 5.92908e-12 5.65208e-12)
(-4.70781e-12 5.97174e-12 4.20765e-12)
(-2.09332e-12 5.9157e-12 2.30634e-12)
(-1.52516e-14 6.39838e-12 -4.03176e-12)
(-1.1905e-12 6.05476e-12 -1.03004e-11)
(7.14296e-13 9.12371e-12 -1.08314e-11)
(1.21321e-12 9.28498e-12 -1.29326e-11)
(-7.34705e-14 1.12213e-11 -1.39203e-11)
(-4.5761e-13 1.07638e-11 -1.2869e-11)
(-1.30062e-12 9.86581e-12 -1.16342e-11)
(-2.30971e-12 9.40222e-12 -1.10912e-11)
(-1.51895e-12 1.09536e-11 -1.00605e-11)
(1.05963e-12 1.0037e-11 -8.96466e-12)
(2.26887e-12 1.11868e-11 -9.96896e-12)
(2.3025e-12 1.21061e-11 -1.15138e-11)
(2.96138e-12 1.38301e-11 -1.36898e-11)
(3.34872e-12 1.11386e-11 -1.09485e-11)
(3.30055e-12 1.08743e-11 -9.28964e-12)
(3.1815e-12 1.03046e-11 -9.57973e-12)
(2.78742e-12 1.02607e-11 -8.31662e-12)
(4.06932e-12 1.08522e-11 -8.21667e-12)
(2.90385e-12 9.73683e-12 -7.88245e-12)
(1.45796e-12 9.64437e-12 -7.931e-12)
(3.40427e-12 8.95238e-12 -8.16902e-12)
(1.44211e-12 9.95715e-12 -7.76975e-12)
(-2.25648e-12 1.16632e-11 -7.69108e-12)
(-3.36737e-12 1.04084e-11 -7.84508e-12)
(-1.39415e-12 8.06209e-12 -8.68687e-12)
(5.13838e-13 9.07844e-12 -1.20026e-11)
(2.45417e-13 9.28694e-12 -1.5608e-11)
(-6.36684e-13 1.08202e-11 -1.4759e-11)
(-2.21524e-12 9.49033e-12 -1.24507e-11)
(-2.78845e-12 1.14005e-11 -6.72262e-12)
(-2.81515e-12 9.60084e-12 -1.01182e-12)
(-3.63302e-12 1.14848e-11 2.58506e-12)
(-3.26873e-12 1.10188e-11 1.33335e-12)
(-2.03435e-12 1.15848e-11 -5.01838e-12)
(-2.60728e-12 1.40496e-11 -1.45991e-11)
(-1.23471e-12 1.47939e-11 -2.15681e-11)
(-1.68798e-13 1.34452e-11 -2.15603e-11)
(6.96022e-13 1.32469e-11 -2.16016e-11)
(-2.23265e-12 1.15759e-11 -1.5462e-11)
(-6.17308e-13 1.10814e-11 -1.00251e-11)
(-2.5103e-12 1.04881e-11 -6.40982e-12)
(-2.18546e-12 1.12596e-11 -3.49461e-12)
(6.59337e-13 1.02184e-11 -1.88629e-12)
(1.56356e-12 1.03977e-11 1.56088e-12)
(-2.61211e-13 9.98099e-12 4.67795e-12)
(-2.22503e-12 9.04394e-12 -3.69365e-12)
(-9.10303e-13 1.07182e-11 8.53234e-13)
(-1.67408e-12 1.16832e-11 -1.23976e-12)
(-5.12528e-13 1.14351e-11 -4.75125e-12)
(1.76333e-12 9.89409e-12 -7.19393e-12)
(1.27645e-12 9.72355e-12 -8.9736e-12)
(6.83483e-13 7.80961e-12 -8.28518e-12)
(-2.0704e-12 7.89929e-12 -6.98422e-12)
(-2.53409e-12 1.04824e-11 -5.52514e-12)
(-4.01722e-12 9.99502e-12 -4.65836e-12)
(-3.60776e-12 1.06997e-11 -3.6668e-12)
(-3.02826e-12 9.55464e-12 -2.5586e-12)
(-2.28707e-13 1.16264e-11 -2.61467e-12)
(1.11891e-12 1.21104e-11 -2.57228e-12)
(-2.13453e-13 1.24294e-11 -2.89649e-12)
(3.61113e-12 1.16476e-11 -2.4056e-12)
(2.45877e-12 1.10848e-11 -1.40222e-12)
(2.05521e-12 1.11349e-11 -1.3806e-13)
(3.53169e-12 1.10975e-11 -2.3401e-12)
(2.29765e-12 1.17214e-11 -3.65862e-12)
(2.64442e-12 1.15651e-11 -3.19101e-12)
(3.56614e-12 1.24839e-11 -2.47203e-12)
(3.19311e-12 1.27236e-11 -1.54414e-12)
(2.88361e-12 1.16002e-11 -3.15765e-12)
(1.12767e-12 1.09344e-11 -2.60057e-12)
(1.34726e-12 1.16643e-11 -2.21175e-12)
(2.20293e-12 9.01525e-12 -6.81284e-13)
(1.53854e-12 8.78156e-12 2.83984e-12)
(1.97074e-12 7.76022e-12 3.06164e-12)
(4.82532e-12 8.3863e-12 8.06701e-12)
(6.05742e-12 8.23136e-12 2.23121e-11)
(3.08148e-12 1.18362e-11 3.48747e-11)
(1.6073e-12 1.14814e-11 3.71198e-11)
(1.64736e-12 1.04119e-11 3.33589e-11)
(4.20849e-12 8.60901e-12 2.63167e-11)
(3.70998e-12 1.02778e-11 1.79735e-11)
(8.09559e-13 9.94366e-12 1.14118e-11)
(-1.47132e-12 8.5201e-12 8.52541e-12)
(3.27321e-13 9.79261e-12 6.87387e-12)
(3.48525e-12 8.93664e-12 6.14727e-12)
(2.63383e-12 9.2593e-12 4.87968e-12)
(2.74318e-12 9.03747e-12 4.05476e-12)
(2.91242e-12 8.57198e-12 4.24801e-12)
(9.34498e-13 8.04824e-12 4.87827e-12)
(-7.64931e-13 9.63756e-12 5.22402e-12)
(-9.96401e-13 9.01053e-12 5.25078e-12)
(1.10298e-13 8.77226e-12 4.85566e-12)
(-8.43365e-13 8.34441e-12 3.92156e-12)
(-2.87496e-12 7.31422e-12 2.87866e-12)
(-3.29426e-12 6.37063e-12 4.89723e-12)
(-2.60011e-12 7.30522e-12 6.39478e-12)
(-3.35793e-12 7.85277e-12 6.31958e-12)
(-1.93746e-12 6.76208e-12 4.53951e-12)
(-8.4649e-14 9.30801e-12 3.29119e-14)
(-3.24113e-12 8.07952e-12 -4.67676e-12)
(-1.66758e-12 9.3305e-12 -9.17109e-12)
(2.38704e-14 1.16787e-11 -1.33891e-11)
(-1.29394e-12 1.28746e-11 -1.71908e-11)
(2.30584e-13 1.50228e-11 -1.47889e-11)
(-1.13624e-12 1.45597e-11 -1.39053e-11)
(-2.81517e-12 1.5424e-11 -1.34699e-11)
(3.30998e-14 1.35269e-11 -1.23489e-11)
(2.2606e-12 1.34192e-11 -1.13615e-11)
(1.82234e-12 1.36742e-11 -1.1458e-11)
(1.67789e-12 1.16533e-11 -1.22028e-11)
(4.1203e-12 1.1881e-11 -1.46967e-11)
(5.40938e-12 1.16544e-11 -1.1219e-11)
(3.49031e-12 9.93473e-12 -8.97913e-12)
(3.55717e-12 1.12447e-11 -7.38286e-12)
(2.04099e-12 1.15478e-11 -7.29094e-12)
(2.64406e-12 1.22402e-11 -7.21455e-12)
(2.86483e-12 1.23911e-11 -6.61305e-12)
(2.47479e-12 1.24793e-11 -6.24868e-12)
(2.32101e-12 1.15414e-11 -6.51855e-12)
(-3.40085e-13 1.28809e-11 -6.90289e-12)
(-1.51137e-12 1.37703e-11 -7.02807e-12)
(-7.6187e-13 1.41063e-11 -7.12594e-12)
(-8.35733e-13 1.24134e-11 -7.59513e-12)
(-2.3502e-12 1.17714e-11 -9.52012e-12)
(-3.33987e-12 1.33667e-11 -1.26901e-11)
(-2.39263e-12 1.54503e-11 -1.36843e-11)
(-1.17835e-12 1.47526e-11 -9.41585e-12)
(-3.76922e-13 1.67002e-11 -5.52236e-12)
(-2.4542e-12 1.43586e-11 -1.02708e-12)
(-2.96326e-12 1.60623e-11 1.38417e-12)
(-1.00244e-12 1.54455e-11 -1.46738e-12)
(-2.80627e-12 1.48254e-11 -6.35246e-12)
(-5.07747e-12 1.47788e-11 -1.49629e-11)
(-1.36091e-12 1.57992e-11 -2.38476e-11)
(7.15404e-13 1.62007e-11 -2.209e-11)
(8.44441e-13 1.59999e-11 -2.12011e-11)
(-1.10351e-12 1.66108e-11 -1.59753e-11)
(-1.31085e-12 1.46377e-11 -1.14281e-11)
(-2.12926e-12 1.57364e-11 -8.08489e-12)
(-2.76531e-12 1.42422e-11 -5.12657e-12)
(-4.61132e-13 1.33861e-11 -2.11869e-12)
(1.8056e-12 1.57448e-11 7.69517e-13)
(7.21888e-13 1.58965e-11 4.63826e-12)
(-1.82842e-12 1.41264e-11 -9.05429e-13)
(-2.27881e-12 1.48029e-11 1.15684e-12)
(-1.40367e-12 1.60498e-11 -1.0036e-12)
(-4.58878e-13 1.39529e-11 -4.51857e-12)
(9.00687e-13 1.52231e-11 -8.56886e-12)
(2.45657e-12 1.42029e-11 -1.19427e-11)
(1.68052e-12 1.12558e-11 -9.26176e-12)
(-3.17785e-12 1.06623e-11 -7.6822e-12)
(-3.10529e-12 9.90122e-12 -6.46466e-12)
(-2.8887e-12 1.248e-11 -5.61992e-12)
(-1.64836e-12 1.12144e-11 -3.94974e-12)
(-1.21196e-12 9.04988e-12 -1.66832e-12)
(-2.15245e-12 9.1649e-12 -2.22181e-12)
(-1.88032e-12 1.19036e-11 -2.04631e-12)
(1.35714e-12 1.22571e-11 -9.46715e-13)
(3.62423e-12 1.14476e-11 1.10352e-12)
(4.85597e-13 1.40344e-11 2.64822e-13)
(1.08278e-12 1.36894e-11 -4.90497e-13)
(3.36693e-12 1.47672e-11 -1.85312e-12)
(3.60311e-12 1.46543e-11 -3.65492e-12)
(2.46122e-12 1.4158e-11 -2.80847e-12)
(2.2058e-12 1.4756e-11 -2.55112e-12)
(3.45453e-12 1.50979e-11 -2.79129e-12)
(3.71679e-12 1.36177e-11 -4.1823e-12)
(4.89255e-13 1.48044e-11 -3.32183e-12)
(1.80794e-12 1.39149e-11 -2.20714e-12)
(4.09894e-12 1.3045e-11 -5.41974e-13)
(2.86679e-12 1.11218e-11 1.22672e-12)
(3.15269e-12 1.16732e-11 2.06719e-12)
(4.12831e-12 1.05094e-11 5.78876e-12)
(4.25499e-12 1.14029e-11 1.55204e-11)
(1.91983e-12 1.55849e-11 2.51019e-11)
(1.41537e-12 1.65389e-11 2.62702e-11)
(1.53497e-12 1.56335e-11 2.37217e-11)
(3.55125e-12 1.57855e-11 1.74983e-11)
(2.54165e-12 1.30764e-11 1.14857e-11)
(1.23702e-12 1.39836e-11 7.80768e-12)
(-8.40179e-13 1.3422e-11 6.83948e-12)
(1.03715e-12 1.2657e-11 6.41491e-12)
(3.172e-12 1.29271e-11 7.63676e-12)
(1.38303e-12 1.30006e-11 5.23124e-12)
(2.73229e-12 1.10008e-11 4.02207e-12)
(3.56531e-12 1.02466e-11 4.23285e-12)
(1.0103e-12 1.12398e-11 4.76632e-12)
(-1.01785e-12 9.74266e-12 5.48066e-12)
(8.81481e-14 8.74949e-12 5.82959e-12)
(9.66889e-13 9.81126e-12 4.67315e-12)
(6.80629e-13 8.78059e-12 2.98728e-12)
(-8.3966e-13 6.96749e-12 3.56476e-12)
(-2.98673e-12 6.7661e-12 6.02734e-12)