/*--------------------------------*- C++ -*----------------------------------*\
| =========                 |                                                 |
| \\      /  F ield         | OpenFOAM: The Open Source CFD Toolbox           |
|  \\    /   O peration     | Version:  2406                                  |
|   \\  /    A nd           | Website:  www.openfoam.com                      |
|    \\/     M anipulation  |                                                 |
\*---------------------------------------------------------------------------*/
FoamFile
{
    version     2.0;
    format      ascii;
    arch        "LSB;label=32;scalar=64";
    class       volScalarField;
    location    "0.01";
    object      Ma;
}
// * * * * * * * * * * * * * * * * * * * * * * * * * * * * * * * * * * * * * //

dimensions      [0 0 0 0 0 0 0];

internalField   nonuniform List<scalar> 
81000
(
0.00120518
0.00120497
0.00120466
0.00120415
0.00120349
0.00120276
0.00120203
0.00120137
0.00120082
0.00120039
0.00120006
0.00119982
0.00119964
0.00119952
0.00119943
0.00119938
0.00119937
0.00119938
0.00119943
0.00119957
0.00119983
0.00120021
0.0012007
0.00120125
0.00120181
0.00120236
0.00120286
0.00120331
0.00120368
0.00120399
0.00120424
0.00120445
0.00120463
0.0012048
0.00120495
0.0012051
0.00120523
0.00120535
0.00120546
0.00120556
0.00120566
0.00120576
0.00120585
0.00120591
0.00120592
0.00120584
0.00120566
0.00120536
0.00120495
0.00120441
0.00120374
0.00120293
0.00120197
0.00120086
0.00119958
0.00119813
0.00119652
0.00119474
0.00119281
0.00119072
0.0011885
0.00118615
0.0011837
0.00118116
0.00117855
0.0011759
0.00117322
0.00117055
0.00116791
0.00116533
0.00116284
0.00116039
0.00115792
0.00115544
0.00115294
0.00115046
0.001148
0.00114559
0.00114325
0.00114103
0.00113898
0.00113717
0.00113568
0.00113454
0.00113377
0.00113333
0.00113312
0.00113306
0.00113305
0.00113307
0.00113315
0.00113335
0.00113376
0.00113444
0.00113546
0.00113677
0.00113822
0.00113954
0.00114048
0.00114096
0.00340076
0.00339999
0.00339915
0.00339806
0.00339693
0.00339589
0.00339501
0.0033943
0.00339377
0.00339338
0.0033931
0.00339291
0.00339279
0.00339272
0.00339271
0.00339275
0.00339286
0.00339303
0.00339327
0.00339358
0.00339394
0.00339435
0.00339477
0.00339519
0.0033956
0.00339596
0.00339628
0.00339654
0.00339675
0.00339693
0.0033971
0.00339726
0.00339744
0.00339764
0.00339788
0.00339814
0.00339844
0.00339879
0.00339916
0.00339957
0.00339999
0.00340042
0.00340085
0.00340127
0.00340167
0.00340207
0.00340245
0.00340281
0.00340317
0.0034035
0.00340381
0.00340407
0.00340427
0.00340439
0.00340444
0.00340445
0.00340445
0.0034044
0.0034043
0.00340409
0.00340374
0.00340323
0.00340253
0.00340166
0.00340062
0.00339942
0.00339807
0.00339655
0.00339481
0.00339283
0.00339058
0.00338805
0.0033852
0.00338206
0.0033786
0.00337489
0.00337095
0.00336687
0.00336271
0.00335859
0.00335457
0.00335079
0.00334731
0.00334424
0.00334162
0.00333953
0.00333799
0.00333699
0.00333646
0.00333627
0.00333624
0.00333637
0.00333687
0.00333801
0.00333992
0.00334249
0.00334532
0.00334788
0.00334967
0.00335081
0.00406454
0.00406301
0.0040612
0.00405892
0.00405672
0.00405489
0.00405353
0.00405257
0.0040519
0.00405139
0.00405099
0.00405066
0.00405039
0.00405019
0.00405008
0.00405004
0.00405004
0.00405006
0.00405012
0.00405024
0.00405041
0.00405062
0.00405087
0.00405112
0.00405136
0.00405158
0.00405177
0.00405192
0.00405203
0.00405211
0.00405217
0.00405226
0.00405241
0.00405265
0.00405299
0.00405343
0.00405399
0.00405468
0.0040555
0.00405647
0.00405759
0.0040589
0.0040604
0.00406214
0.00406412
0.00406637
0.00406891
0.00407175
0.00407491
0.00407842
0.00408229
0.00408649
0.004091
0.00409576
0.00410072
0.00410581
0.00411097
0.00411614
0.00412128
0.00412637
0.00413137
0.00413627
0.00414106
0.00414575
0.00415032
0.00415474
0.00415891
0.00416274
0.0041661
0.00416889
0.00417094
0.00417205
0.00417196
0.00417055
0.00416779
0.00416358
0.00415795
0.00415096
0.00414285
0.00413388
0.00412442
0.00411477
0.00410527
0.00409617
0.00408783
0.00408055
0.00407477
0.00407075
0.00406856
0.00406779
0.00406774
0.00406804
0.00406902
0.00407096
0.00407395
0.00407776
0.00408197
0.00408592
0.00408891
0.00409098
0.00668022
0.00668807
0.00668803
0.00668783
0.00668746
0.00668692
0.00668644
0.00668604
0.00668586
0.00668578
0.00668579
0.00668582
0.00668589
0.00668594
0.00668601
0.00668606
0.00668613
0.00668617
0.00668623
0.00668625
0.00668629
0.0066863
0.00668632
0.00668633
0.00668633
0.00668631
0.00668625
0.00668615
0.00668602
0.00668583
0.00668563
0.00668538
0.00668513
0.00668486
0.0066846
0.00668435
0.00668413
0.00668394
0.00668382
0.00668377
0.00668382
0.00668398
0.00668424
0.00668462
0.0066851
0.00668572
0.0066865
0.0066875
0.00668874
0.00669024
0.00669197
0.00669392
0.00669605
0.00669836
0.00670081
0.00670339
0.00670606
0.0067088
0.00671157
0.00671433
0.00671706
0.00671977
0.00672244
0.0067251
0.00672775
0.00673045
0.0067332
0.00673604
0.00673895
0.00674194
0.00674498
0.00674803
0.00675106
0.00675403
0.00675693
0.00675973
0.00676239
0.00676486
0.00676714
0.00676922
0.0067711
0.00677281
0.00677441
0.00677596
0.00677753
0.00677919
0.00678097
0.00678289
0.00678493
0.00678706
0.00678935
0.00679186
0.00679469
0.00679788
0.0068014
0.00680511
0.0068087
0.00681171
0.00681372
0.00681551
0.0134826
0.013478
0.0134775
0.0134769
0.0134764
0.0134761
0.0134759
0.0134757
0.0134756
0.0134756
0.0134755
0.0134755
0.0134756
0.0134757
0.0134759
0.0134761
0.0134764
0.0134766
0.0134767
0.0134768
0.0134769
0.0134769
0.0134769
0.013477
0.013477
0.0134769
0.0134769
0.0134768
0.0134767
0.0134766
0.0134765
0.0134764
0.0134764
0.0134763
0.0134764
0.0134764
0.0134766
0.0134769
0.0134773
0.0134778
0.0134785
0.0134792
0.0134802
0.0134812
0.0134825
0.0134839
0.0134856
0.0134874
0.0134896
0.013492
0.0134946
0.0134976
0.0135009
0.0135046
0.0135085
0.0135128
0.0135174
0.0135222
0.0135274
0.0135327
0.0135382
0.0135439
0.0135497
0.0135555
0.0135613
0.0135672
0.0135729
0.0135785
0.013584
0.0135893
0.0135945
0.0135995
0.0136043
0.013609
0.0136136
0.0136179
0.0136221
0.013626
0.0136297
0.0136332
0.0136365
0.0136396
0.0136424
0.013645
0.0136473
0.0136494
0.0136513
0.0136529
0.0136543
0.0136555
0.0136566
0.0136574
0.013658
0.0136585
0.0136588
0.013659
0.0136591
0.0136591
0.013659
0.0136319
0.0256548
0.0257172
0.0257166
0.0257164
0.0257163
0.0257162
0.0257161
0.0257161
0.025716
0.025716
0.0257159
0.0257159
0.0257159
0.0257159
0.0257159
0.0257159
0.0257159
0.0257159
0.0257159
0.025716
0.0257161
0.0257162
0.0257163
0.0257164
0.0257166
0.0257168
0.0257171
0.0257174
0.0257177
0.0257181
0.0257185
0.025719
0.0257196
0.0257202
0.0257208
0.0257215
0.0257223
0.0257231
0.0257239
0.0257248
0.0257256
0.0257265
0.0257274
0.0257283
0.0257291
0.02573
0.0257308
0.0257318
0.0257327
0.0257337
0.0257348
0.025736
0.0257373
0.0257387
0.0257402
0.0257417
0.0257433
0.0257449
0.0257465
0.025748
0.0257496
0.0257511
0.0257526
0.0257541
0.0257554
0.0257567
0.0257578
0.0257587
0.0257596
0.0257603
0.0257609
0.0257615
0.025762
0.0257624
0.0257628
0.0257631
0.0257635
0.0257638
0.0257642
0.0257646
0.025765
0.0257654
0.0257659
0.0257663
0.0257666
0.025767
0.0257673
0.0257676
0.0257678
0.0257681
0.0257682
0.0257684
0.0257685
0.0257686
0.0257686
0.0257687
0.0257687
0.0257687
0.0257686
0.0257338
0.0417315
0.0418497
0.0418499
0.0418499
0.0418499
0.0418499
0.0418499
0.0418499
0.0418499
0.0418499
0.0418499
0.0418498
0.0418498
0.0418498
0.0418498
0.0418497
0.0418496
0.0418496
0.0418495
0.0418494
0.0418493
0.0418492
0.0418491
0.041849
0.041849
0.0418489
0.0418489
0.0418489
0.0418491
0.0418492
0.0418495
0.0418498
0.0418501
0.0418506
0.041851
0.0418516
0.0418522
0.0418529
0.0418537
0.0418545
0.0418553
0.0418561
0.041857
0.0418578
0.0418586
0.0418593
0.0418598
0.0418603
0.0418607
0.041861
0.0418612
0.0418615
0.0418617
0.041862
0.0418623
0.0418628
0.0418634
0.0418641
0.0418647
0.0418652
0.0418654
0.0418655
0.0418654
0.0418651
0.0418647
0.0418642
0.0418636
0.0418629
0.0418622
0.0418615
0.0418609
0.0418604
0.04186
0.0418597
0.0418595
0.0418596
0.0418598
0.0418601
0.0418605
0.0418611
0.0418617
0.0418624
0.0418631
0.0418637
0.0418643
0.0418649
0.0418654
0.0418658
0.0418662
0.0418666
0.0418668
0.0418671
0.0418672
0.0418673
0.0418674
0.0418675
0.0418675
0.0418675
0.0418672
0.0417803
0.0560485
0.0562458
0.0562461
0.0562457
0.0562455
0.0562453
0.0562451
0.0562448
0.0562446
0.0562443
0.056244
0.0562436
0.0562433
0.0562429
0.0562424
0.056242
0.0562415
0.0562411
0.0562406
0.0562401
0.0562395
0.056239
0.0562385
0.0562379
0.0562374
0.0562369
0.0562363
0.0562358
0.0562354
0.0562349
0.0562345
0.0562342
0.0562338
0.0562335
0.0562333
0.0562331
0.0562329
0.0562327
0.0562325
0.0562323
0.0562321
0.0562318
0.0562316
0.0562314
0.0562311
0.0562309
0.0562307
0.0562305
0.0562304
0.0562303
0.0562304
0.0562306
0.0562308
0.0562311
0.0562314
0.0562316
0.0562317
0.0562318
0.0562318
0.0562319
0.056232
0.0562322
0.0562324
0.0562327
0.0562331
0.0562336
0.0562343
0.0562351
0.056236
0.0562371
0.0562382
0.0562395
0.0562408
0.0562422
0.0562436
0.0562451
0.0562465
0.0562479
0.0562493
0.0562506
0.0562518
0.0562529
0.056254
0.056255
0.0562558
0.0562567
0.0562574
0.0562581
0.0562588
0.0562594
0.0562599
0.0562604
0.0562608
0.0562611
0.0562615
0.0562617
0.0562619
0.0562626
0.0562626
0.0560648
0.0622973
0.0625223
0.0625227
0.0625217
0.0625212
0.0625205
0.0625197
0.0625189
0.062518
0.0625171
0.0625162
0.0625152
0.0625141
0.0625131
0.062512
0.062511
0.0625099
0.0625088
0.0625078
0.0625067
0.0625057
0.0625047
0.0625038
0.0625028
0.062502
0.0625011
0.0625004
0.0624996
0.0624989
0.0624983
0.0624976
0.062497
0.0624965
0.062496
0.0624955
0.062495
0.0624946
0.0624942
0.0624937
0.0624933
0.0624928
0.0624923
0.0624919
0.0624914
0.0624909
0.0624905
0.0624901
0.0624897
0.0624894
0.0624891
0.0624889
0.0624887
0.0624886
0.0624884
0.0624884
0.0624882
0.0624881
0.0624881
0.062488
0.062488
0.062488
0.0624881
0.0624882
0.0624884
0.0624888
0.0624893
0.06249
0.0624909
0.0624921
0.0624934
0.062495
0.0624968
0.0624988
0.0625008
0.062503
0.0625052
0.0625073
0.0625094
0.0625115
0.0625135
0.0625153
0.0625171
0.0625187
0.0625202
0.0625216
0.062523
0.0625242
0.0625253
0.0625264
0.0625274
0.0625283
0.0625291
0.0625298
0.0625304
0.0625309
0.0625313
0.0625316
0.0625319
0.0625317
0.062302
0.0609679
0.0609608
0.0609605
0.0609601
0.0609595
0.0609586
0.0609576
0.0609565
0.0609552
0.0609539
0.0609525
0.0609511
0.0609495
0.060948
0.0609465
0.060945
0.0609435
0.060942
0.0609407
0.0609394
0.0609381
0.060937
0.060936
0.060935
0.0609342
0.0609334
0.0609328
0.0609322
0.0609318
0.0609315
0.0609312
0.0609311
0.060931
0.060931
0.060931
0.0609311
0.0609311
0.0609312
0.0609313
0.0609314
0.0609315
0.0609316
0.0609317
0.0609319
0.0609321
0.0609323
0.0609325
0.0609327
0.0609329
0.0609331
0.0609333
0.0609335
0.0609338
0.060934
0.0609343
0.0609347
0.0609351
0.0609355
0.0609361
0.0609368
0.0609376
0.0609385
0.0609395
0.0609407
0.0609419
0.0609433
0.0609447
0.0609462
0.0609477
0.0609492
0.0609507
0.0609521
0.0609535
0.0609549
0.0609561
0.0609573
0.0609585
0.0609596
0.0609606
0.0609617
0.0609628
0.0609638
0.060965
0.0609663
0.0609676
0.0609689
0.0609702
0.0609716
0.0609729
0.0609743
0.0609757
0.0609772
0.0609788
0.0609805
0.0609821
0.0609835
0.0609847
0.0609857
0.0609865
0.0609957
0.00122034
0.00122011
0.00121998
0.00121966
0.00121917
0.00121854
0.00121791
0.00121733
0.00121687
0.00121653
0.00121631
0.00121619
0.00121615
0.00121614
0.00121615
0.00121619
0.0012163
0.0012165
0.0012168
0.0012172
0.00121772
0.00121831
0.00121898
0.00121966
0.00122033
0.00122097
0.00122157
0.00122209
0.00122253
0.0012229
0.00122319
0.00122344
0.00122366
0.00122387
0.00122406
0.00122424
0.0012244
0.00122456
0.0012247
0.00122484
0.00122497
0.00122511
0.00122524
0.00122536
0.00122542
0.00122541
0.0012253
0.00122508
0.00122476
0.00122432
0.00122376
0.00122308
0.00122227
0.00122131
0.00122021
0.00121895
0.00121752
0.00121594
0.0012142
0.0012123
0.00121026
0.00120809
0.0012058
0.00120341
0.00120093
0.00119839
0.0011958
0.00119317
0.00119053
0.00118791
0.0011853
0.00118268
0.00117998
0.0011772
0.00117437
0.00117147
0.00116854
0.00116559
0.00116265
0.00115978
0.00115702
0.00115445
0.00115214
0.00115016
0.00114853
0.00114728
0.00114639
0.00114581
0.0011455
0.00114537
0.00114534
0.00114536
0.00114551
0.00114589
0.00114661
0.00114766
0.00114892
0.00115011
0.00115095
0.00115151
0.00341187
0.00341396
0.00341387
0.00341357
0.00341304
0.00341235
0.00341164
0.00341102
0.00341057
0.00341027
0.0034101
0.00341003
0.00341005
0.00341013
0.00341028
0.0034105
0.00341081
0.00341119
0.00341164
0.00341216
0.00341271
0.00341329
0.00341388
0.00341444
0.00341498
0.00341546
0.00341589
0.00341625
0.00341654
0.00341679
0.00341701
0.00341722
0.00341743
0.00341764
0.00341787
0.00341812
0.0034184
0.00341869
0.00341901
0.00341935
0.00341969
0.00342003
0.00342034
0.00342063
0.00342088
0.00342108
0.00342124
0.00342134
0.00342139
0.00342137
0.00342129
0.00342112
0.00342088
0.00342055
0.00342015
0.00341965
0.00341907
0.00341839
0.00341762
0.00341672
0.00341571
0.00341458
0.00341334
0.00341199
0.00341056
0.00340903
0.00340742
0.00340569
0.00340381
0.00340177
0.00339956
0.00339716
0.00339458
0.0033918
0.00338885
0.00338572
0.00338248
0.00337913
0.0033758
0.0033725
0.00336936
0.00336643
0.00336381
0.00336153
0.00335969
0.00335829
0.00335737
0.00335686
0.00335668
0.00335667
0.00335685
0.00335739
0.00335853
0.00336039
0.00336299
0.00336602
0.00336903
0.00337137
0.00337275
0.00337411
0.00400811
0.00401128
0.00401114
0.0040107
0.00400993
0.00400897
0.00400798
0.00400713
0.00400649
0.00400605
0.0040058
0.00400568
0.00400565
0.00400565
0.00400568
0.00400576
0.00400593
0.0040062
0.00400655
0.00400697
0.00400743
0.00400789
0.00400835
0.00400877
0.00400914
0.00400947
0.00400974
0.00400995
0.0040101
0.0040102
0.00401026
0.00401031
0.0040104
0.00401054
0.00401075
0.00401104
0.00401141
0.00401186
0.0040124
0.004013
0.00401368
0.00401445
0.0040153
0.00401624
0.00401728
0.00401843
0.0040197
0.00402111
0.00402264
0.00402425
0.00402591
0.00402759
0.00402931
0.00403104
0.00403282
0.00403464
0.00403654
0.00403855
0.00404072
0.00404307
0.00404564
0.00404848
0.00405159
0.00405498
0.00405862
0.00406243
0.00406629
0.00407008
0.0040737
0.00407707
0.00408011
0.00408273
0.00408484
0.00408629
0.00408693
0.00408668
0.00408552
0.00408354
0.00408069
0.00407716
0.00407301
0.00406876
0.00406473
0.00406163
0.00405955
0.00405859
0.00405833
0.00405857
0.00405935
0.0040611
0.00406381
0.00406768
0.00407244
0.00407825
0.00408474
0.00409185
0.00409886
0.00410517
0.0041097
0.00411352
0.00657855
0.00657643
0.00657591
0.00657516
0.00657425
0.0065734
0.00657261
0.006572
0.00657149
0.00657117
0.00657096
0.00657087
0.00657084
0.00657085
0.00657085
0.00657093
0.00657098
0.00657115
0.00657122
0.00657141
0.00657148
0.00657162
0.00657166
0.00657173
0.00657174
0.00657176
0.00657176
0.00657174
0.00657167
0.00657156
0.0065714
0.00657122
0.00657099
0.00657075
0.0065705
0.00657026
0.00657004
0.00656987
0.00656974
0.00656969
0.00656972
0.00656985
0.00657009
0.00657045
0.00657093
0.00657153
0.0065723
0.00657324
0.0065744
0.00657577
0.00657736
0.00657915
0.00658114
0.00658333
0.00658575
0.0065884
0.0065913
0.00659446
0.00659791
0.00660165
0.0066057
0.00661004
0.00661468
0.00661958
0.0066247
0.00663002
0.00663548
0.00664102
0.0066466
0.00665215
0.00665762
0.00666294
0.00666807
0.00667296
0.00667759
0.0066819
0.0066859
0.00668959
0.006693
0.0066961
0.00669893
0.00670149
0.00670384
0.00670602
0.00670809
0.0067101
0.00671209
0.00671412
0.00671619
0.00671828
0.00672046
0.00672282
0.0067254
0.00672823
0.00673124
0.00673426
0.00673701
0.00673913
0.00674039
0.00674312
0.0134274
0.0134347
0.0134346
0.0134345
0.0134343
0.013434
0.0134336
0.0134332
0.0134328
0.0134326
0.0134324
0.0134323
0.0134323
0.0134323
0.0134323
0.0134324
0.0134324
0.0134325
0.0134325
0.0134325
0.0134326
0.0134326
0.0134326
0.0134326
0.0134327
0.0134327
0.0134327
0.0134328
0.0134328
0.0134328
0.0134329
0.013433
0.0134331
0.0134333
0.0134335
0.0134338
0.0134341
0.0134345
0.013435
0.0134356
0.0134363
0.0134371
0.013438
0.0134391
0.0134403
0.0134417
0.0134432
0.0134448
0.0134467
0.0134486
0.0134508
0.013453
0.0134553
0.0134577
0.0134601
0.0134626
0.013465
0.0134675
0.0134699
0.0134723
0.0134747
0.013477
0.0134793
0.0134815
0.0134838
0.0134861
0.0134885
0.013491
0.0134936
0.0134963
0.0134993
0.0135023
0.0135054
0.0135086
0.0135118
0.0135151
0.0135184
0.0135216
0.0135248
0.0135279
0.0135308
0.0135336
0.0135361
0.0135385
0.0135407
0.0135426
0.0135444
0.013546
0.0135475
0.0135489
0.01355
0.0135509
0.0135517
0.0135524
0.0135528
0.0135531
0.0135533
0.0135533
0.0135534
0.01353
0.0255858
0.0256548
0.0256545
0.0256542
0.0256541
0.025654
0.025654
0.0256539
0.0256539
0.0256539
0.0256539
0.0256538
0.0256538
0.0256538
0.0256539
0.0256539
0.0256539
0.0256539
0.0256539
0.0256539
0.0256539
0.0256539
0.0256539
0.0256539
0.0256539
0.0256539
0.0256539
0.025654
0.025654
0.025654
0.0256541
0.0256541
0.0256542
0.0256542
0.0256542
0.0256543
0.0256543
0.0256543
0.0256543
0.0256543
0.0256543
0.0256543
0.0256544
0.0256544
0.0256546
0.0256548
0.0256551
0.0256554
0.0256559
0.0256565
0.0256573
0.0256583
0.0256593
0.0256605
0.0256618
0.0256631
0.0256644
0.0256658
0.0256672
0.0256686
0.0256699
0.0256713
0.0256726
0.025674
0.0256753
0.0256767
0.0256781
0.0256796
0.0256812
0.0256829
0.0256846
0.0256865
0.0256885
0.0256906
0.0256928
0.025695
0.0256973
0.0256996
0.0257018
0.025704
0.0257061
0.025708
0.0257099
0.0257116
0.0257131
0.0257144
0.0257156
0.0257166
0.0257174
0.0257181
0.0257187
0.0257191
0.0257194
0.0257196
0.0257198
0.0257198
0.0257198
0.0257199
0.0257198
0.0256822
0.0416803
0.0418077
0.0418079
0.0418079
0.0418079
0.0418079
0.0418079
0.0418079
0.0418079
0.0418079
0.0418078
0.0418078
0.0418078
0.0418077
0.0418076
0.0418076
0.0418075
0.0418073
0.0418072
0.041807
0.0418068
0.0418066
0.0418064
0.0418062
0.041806
0.0418058
0.0418055
0.0418053
0.0418051
0.041805
0.0418048
0.0418046
0.0418045
0.0418043
0.0418042
0.041804
0.0418038
0.0418036
0.0418034
0.0418032
0.041803
0.0418027
0.0418024
0.0418021
0.0418019
0.0418016
0.0418013
0.041801
0.0418008
0.0418006
0.0418004
0.0418003
0.0418004
0.0418006
0.0418011
0.0418017
0.0418024
0.0418031
0.0418038
0.0418045
0.0418052
0.041806
0.0418067
0.0418075
0.0418084
0.0418094
0.0418104
0.0418115
0.0418126
0.0418137
0.0418149
0.0418161
0.0418174
0.0418187
0.04182
0.0418214
0.0418228
0.0418242
0.0418255
0.0418268
0.0418281
0.0418292
0.0418303
0.0418313
0.0418321
0.0418329
0.0418335
0.0418341
0.0418345
0.0418349
0.0418352
0.0418354
0.0418356
0.0418358
0.0418359
0.041836
0.041836
0.0418361
0.0418359
0.0417403
0.0560148
0.056208
0.0562084
0.056208
0.0562078
0.0562076
0.0562074
0.0562072
0.0562069
0.0562066
0.0562063
0.0562059
0.0562056
0.0562052
0.0562047
0.0562043
0.0562038
0.0562033
0.0562028
0.0562023
0.0562017
0.0562012
0.0562006
0.0562
0.0561995
0.0561989
0.0561984
0.0561978
0.0561973
0.0561968
0.0561964
0.056196
0.0561956
0.0561953
0.056195
0.0561947
0.0561945
0.0561943
0.0561941
0.056194
0.0561938
0.0561936
0.0561934
0.0561933
0.0561931
0.0561929
0.0561928
0.0561927
0.0561926
0.0561926
0.0561928
0.056193
0.0561933
0.0561936
0.0561939
0.0561942
0.0561943
0.0561945
0.0561946
0.0561948
0.0561951
0.0561954
0.0561958
0.0561963
0.0561969
0.0561978
0.0561988
0.0562
0.0562014
0.0562031
0.0562049
0.0562068
0.0562088
0.0562109
0.056213
0.0562152
0.0562174
0.0562195
0.0562216
0.0562236
0.0562255
0.0562273
0.0562289
0.0562305
0.0562319
0.0562331
0.0562342
0.0562353
0.0562361
0.0562369
0.0562376
0.0562382
0.0562386
0.056239
0.0562394
0.0562397
0.0562399
0.0562406
0.0562398
0.056058
0.0623004
0.062541
0.0625416
0.0625407
0.0625401
0.0625394
0.0625386
0.0625378
0.062537
0.0625361
0.0625352
0.0625342
0.0625332
0.0625321
0.0625311
0.06253
0.0625289
0.0625278
0.0625267
0.0625256
0.0625246
0.0625235
0.0625225
0.0625216
0.0625207
0.0625198
0.062519
0.0625182
0.0625175
0.0625168
0.0625161
0.0625156
0.062515
0.0625146
0.0625142
0.0625138
0.0625135
0.0625133
0.0625131
0.0625129
0.0625127
0.0625126
0.0625125
0.0625125
0.0625125
0.0625125
0.0625125
0.0625126
0.0625127
0.0625127
0.0625128
0.0625128
0.0625128
0.0625129
0.062513
0.062513
0.0625131
0.0625131
0.0625132
0.0625132
0.0625133
0.0625133
0.0625134
0.0625136
0.0625139
0.0625143
0.0625149
0.0625157
0.0625168
0.062518
0.0625195
0.0625212
0.0625231
0.0625252
0.0625274
0.0625296
0.062532
0.0625343
0.0625366
0.0625388
0.062541
0.0625431
0.0625451
0.062547
0.0625488
0.0625504
0.0625519
0.0625533
0.0625546
0.0625557
0.0625567
0.0625576
0.0625584
0.062559
0.0625595
0.0625599
0.0625603
0.0625606
0.0625598
0.0623231
0.0610116
0.0610356
0.0610355
0.0610353
0.0610349
0.0610343
0.0610336
0.0610327
0.0610316
0.0610304
0.0610291
0.0610277
0.0610262
0.0610247
0.0610231
0.0610216
0.0610201
0.0610187
0.0610174
0.0610161
0.0610149
0.0610138
0.0610127
0.0610118
0.061011
0.0610102
0.0610096
0.061009
0.0610085
0.0610081
0.0610078
0.0610075
0.0610073
0.0610071
0.061007
0.0610069
0.0610069
0.0610068
0.0610068
0.0610068
0.0610067
0.0610067
0.0610067
0.0610067
0.0610068
0.0610069
0.0610069
0.061007
0.0610071
0.0610073
0.0610074
0.0610076
0.0610079
0.0610082
0.0610085
0.061009
0.0610095
0.0610101
0.0610109
0.0610117
0.0610127
0.0610138
0.061015
0.0610162
0.0610176
0.061019
0.0610204
0.0610219
0.0610233
0.0610248
0.0610263
0.0610277
0.061029
0.0610304
0.0610317
0.061033
0.0610342
0.0610354
0.0610367
0.0610379
0.0610392
0.0610405
0.0610419
0.0610433
0.0610447
0.0610462
0.0610477
0.0610492
0.0610506
0.061052
0.0610535
0.0610547
0.0610562
0.0610573
0.0610586
0.0610594
0.0610603
0.0610607
0.061061
0.0610466
0.00123305
0.00123265
0.0012324
0.00123204
0.00123158
0.00123106
0.00123052
0.00123003
0.00122966
0.00122943
0.00122933
0.00122931
0.00122932
0.00122938
0.00122954
0.00122982
0.00123023
0.00123078
0.00123145
0.00123223
0.00123309
0.00123401
0.00123495
0.00123589
0.00123679
0.00123763
0.0012384
0.00123908
0.00123967
0.00124017
0.00124058
0.00124093
0.00124123
0.00124151
0.00124178
0.00124203
0.00124226
0.00124248
0.0012427
0.00124291
0.00124312
0.00124333
0.00124353
0.00124371
0.00124385
0.00124393
0.00124393
0.00124384
0.00124366
0.00124338
0.00124301
0.00124252
0.00124193
0.0012412
0.00124034
0.00123934
0.00123819
0.00123687
0.00123539
0.00123376
0.00123196
0.00123001
0.00122793
0.00122571
0.00122337
0.00122092
0.00121837
0.00121574
0.00121304
0.00121028
0.00120747
0.00120455
0.00120147
0.0011982
0.00119476
0.00119117
0.00118743
0.00118358
0.00117967
0.00117574
0.00117187
0.00116816
0.00116468
0.00116153
0.00115878
0.00115647
0.00115463
0.00115326
0.00115234
0.00115181
0.00115157
0.0011515
0.00115151
0.0011516
0.00115191
0.0011525
0.00115333
0.0011542
0.00115484
0.00115543
0.00341586
0.00341479
0.0034147
0.00341441
0.00341394
0.00341337
0.00341279
0.00341229
0.00341192
0.00341169
0.00341159
0.00341163
0.00341178
0.00341205
0.00341244
0.00341296
0.00341358
0.00341431
0.00341513
0.003416
0.00341691
0.00341783
0.00341874
0.00341961
0.00342043
0.00342118
0.00342185
0.00342243
0.00342293
0.00342336
0.00342372
0.00342405
0.00342434
0.00342461
0.00342487
0.00342512
0.00342535
0.00342559
0.00342582
0.00342604
0.00342625
0.00342643
0.00342658
0.00342669
0.00342675
0.00342673
0.00342663
0.00342644
0.00342614
0.00342574
0.00342523
0.00342461
0.00342387
0.00342301
0.00342203
0.00342093
0.00341973
0.00341843
0.00341705
0.00341559
0.00341407
0.00341247
0.00341081
0.00340906
0.00340724
0.00340534
0.00340336
0.00340131
0.00339915
0.00339689
0.00339451
0.00339201
0.00338938
0.00338663
0.00338379
0.00338088
0.00337796
0.00337511
0.00337239
0.00336988
0.00336765
0.00336579
0.00336432
0.00336327
0.00336263
0.00336232
0.00336222
0.00336225
0.00336243
0.00336287
0.00336366
0.00336492
0.00336674
0.00336918
0.00337219
0.00337558
0.00337897
0.00338189
0.00338389
0.00338616
0.00393869
0.00395848
0.0039585
0.00395841
0.00395813
0.00395767
0.00395713
0.00395666
0.00395636
0.00395622
0.00395619
0.00395622
0.00395635
0.00395664
0.00395711
0.00395774
0.0039585
0.00395933
0.0039602
0.00396108
0.00396194
0.00396276
0.00396352
0.0039642
0.00396479
0.00396528
0.00396566
0.00396595
0.00396615
0.00396627
0.0039663
0.0039663
0.00396629
0.00396628
0.00396629
0.00396633
0.00396642
0.00396654
0.00396667
0.00396677
0.0039668
0.00396675
0.00396658
0.00396626
0.00396575
0.00396503
0.00396407
0.00396284
0.00396137
0.00395968
0.0039578
0.00395578
0.00395367
0.00395157
0.00394955
0.00394771
0.00394614
0.00394495
0.00394422
0.00394403
0.00394444
0.00394546
0.00394711
0.00394931
0.00395203
0.00395515
0.00395864
0.00396239
0.00396634
0.00397038
0.0039745
0.00397864
0.00398282
0.00398697
0.00399116
0.00399531
0.00399951
0.00400368
0.0040079
0.00401209
0.00401638
0.00402067
0.00402515
0.00402978
0.00403475
0.00403998
0.00404563
0.00405161
0.00405807
0.00406497
0.00407255
0.00408069
0.00408951
0.00409863
0.00410778
0.0041162
0.00412321
0.00412801
0.00413048
0.00413365
0.0065038
0.00650054
0.00649944
0.00649853
0.00649776
0.00649706
0.00649645
0.00649586
0.00649533
0.00649487
0.00649457
0.00649439
0.00649433
0.00649432
0.00649434
0.00649438
0.00649453
0.00649464
0.0064949
0.00649504
0.00649528
0.0064954
0.00649556
0.00649563
0.00649571
0.00649573
0.00649576
0.00649577
0.00649577
0.00649575
0.00649571
0.00649564
0.00649553
0.00649538
0.00649521
0.00649503
0.00649487
0.00649473
0.00649465
0.00649463
0.00649469
0.00649483
0.00649507
0.00649543
0.00649589
0.00649649
0.00649722
0.00649811
0.00649916
0.00650038
0.00650172
0.0065032
0.00650479
0.00650651
0.00650839
0.00651046
0.00651277
0.00651534
0.0065182
0.00652141
0.00652499
0.00652898
0.0065334
0.00653829
0.00654366
0.00654951
0.00655578
0.00656242
0.00656932
0.00657641
0.0065836
0.00659078
0.00659787
0.00660478
0.00661145
0.0066178
0.00662381
0.00662944
0.00663467
0.00663949
0.00664393
0.00664798
0.00665171
0.00665512
0.00665829
0.00666123
0.006664
0.00666661
0.00666908
0.00667139
0.00667365
0.00667592
0.0066782
0.00668037
0.00668228
0.00668375
0.00668467
0.00668508
0.00668516
0.00667607
0.0133808
0.0133761
0.013376
0.0133757
0.0133753
0.0133749
0.0133745
0.013374
0.0133736
0.0133733
0.0133731
0.0133729
0.0133728
0.0133727
0.0133726
0.0133726
0.0133725
0.0133725
0.0133725
0.0133725
0.0133725
0.0133725
0.0133725
0.0133725
0.0133726
0.0133726
0.0133727
0.0133728
0.0133729
0.0133731
0.0133733
0.0133735
0.0133738
0.0133741
0.0133744
0.0133748
0.0133753
0.0133758
0.0133763
0.013377
0.0133777
0.0133785
0.0133795
0.0133805
0.0133816
0.0133829
0.0133842
0.0133856
0.0133871
0.0133887
0.0133902
0.0133917
0.013393
0.0133941
0.0133951
0.0133958
0.0133964
0.0133968
0.0133971
0.0133973
0.0133975
0.0133978
0.0133983
0.013399
0.0134
0.0134014
0.0134032
0.0134054
0.013408
0.0134109
0.0134142
0.0134177
0.0134214
0.0134252
0.0134291
0.0134331
0.013437
0.0134408
0.0134444
0.0134479
0.013451
0.013454
0.0134566
0.013459
0.0134611
0.0134629
0.0134645
0.013466
0.0134673
0.0134685
0.0134694
0.0134702
0.0134709
0.0134714
0.0134718
0.0134727
0.0134735
0.0134743
0.0134752
0.0134802
0.0256366
0.025699
0.0256987
0.0256984
0.0256983
0.0256982
0.0256981
0.025698
0.025698
0.0256979
0.0256979
0.0256979
0.0256979
0.0256979
0.0256979
0.0256978
0.0256978
0.0256978
0.0256978
0.0256977
0.0256977
0.0256976
0.0256976
0.0256975
0.0256974
0.0256973
0.0256972
0.025697
0.0256969
0.0256967
0.0256965
0.0256963
0.0256961
0.0256958
0.0256955
0.0256951
0.0256947
0.0256943
0.0256938
0.0256934
0.0256929
0.0256924
0.025692
0.0256916
0.0256913
0.0256911
0.0256911
0.0256911
0.0256913
0.0256917
0.0256922
0.0256929
0.0256937
0.0256948
0.025696
0.0256973
0.0256987
0.0257001
0.0257015
0.0257029
0.0257043
0.0257057
0.0257071
0.0257086
0.0257101
0.0257117
0.0257134
0.0257153
0.0257173
0.0257196
0.0257221
0.0257248
0.0257276
0.0257307
0.0257339
0.0257371
0.0257405
0.0257438
0.0257471
0.0257502
0.0257533
0.0257562
0.0257589
0.0257613
0.0257636
0.0257656
0.0257673
0.0257688
0.02577
0.025771
0.0257718
0.0257724
0.0257728
0.0257731
0.0257733
0.0257734
0.0257734
0.0257734
0.0257734
0.0257459
0.0417518
0.041876
0.0418762
0.0418762
0.0418762
0.0418761
0.0418761
0.0418761
0.0418761
0.0418761
0.0418761
0.041876
0.041876
0.0418759
0.0418758
0.0418757
0.0418755
0.0418754
0.0418752
0.041875
0.0418747
0.0418745
0.0418742
0.0418739
0.0418736
0.0418732
0.0418729
0.0418725
0.0418722
0.0418718
0.0418715
0.0418711
0.0418708
0.0418704
0.0418699
0.0418695
0.0418689
0.0418684
0.0418678
0.0418671
0.0418664
0.0418656
0.0418648
0.0418641
0.0418633
0.0418626
0.0418619
0.0418613
0.0418607
0.0418603
0.04186
0.0418598
0.0418597
0.0418599
0.0418605
0.0418613
0.0418621
0.0418629
0.0418637
0.0418647
0.0418658
0.041867
0.0418683
0.0418697
0.0418712
0.0418729
0.0418747
0.0418766
0.0418786
0.0418806
0.0418825
0.0418845
0.0418863
0.0418882
0.04189
0.0418917
0.0418934
0.0418951
0.0418967
0.0418982
0.0418997
0.041901
0.0419022
0.0419034
0.0419044
0.0419053
0.041906
0.0419067
0.0419072
0.0419077
0.0419081
0.0419083
0.0419085
0.0419087
0.0419088
0.0419089
0.0419089
0.0419091
0.0419091
0.0418162
0.0560822
0.0562757
0.0562759
0.0562754
0.0562753
0.0562751
0.0562749
0.0562747
0.0562744
0.0562741
0.0562738
0.0562734
0.056273
0.0562726
0.0562722
0.0562717
0.0562713
0.0562707
0.0562702
0.0562697
0.0562691
0.0562685
0.056268
0.0562674
0.0562668
0.0562663
0.0562657
0.0562652
0.0562648
0.0562644
0.056264
0.0562637
0.0562634
0.0562632
0.0562631
0.056263
0.0562629
0.0562629
0.0562628
0.0562628
0.0562628
0.0562628
0.0562628
0.0562628
0.0562628
0.0562627
0.0562627
0.0562627
0.0562627
0.0562628
0.0562631
0.0562634
0.0562637
0.0562641
0.0562645
0.0562648
0.0562651
0.0562654
0.0562657
0.056266
0.0562663
0.0562666
0.056267
0.0562674
0.0562679
0.0562685
0.0562692
0.05627
0.0562708
0.0562718
0.0562729
0.0562741
0.0562753
0.0562767
0.0562781
0.0562796
0.0562811
0.0562826
0.0562842
0.0562857
0.0562872
0.0562886
0.05629
0.0562914
0.0562926
0.0562938
0.0562949
0.0562959
0.0562968
0.0562976
0.0562983
0.0562989
0.0562994
0.0562999
0.0563003
0.0563006
0.0563009
0.0563015
0.0563005
0.0561282
0.0623895
0.0626726
0.0626737
0.0626728
0.0626721
0.0626716
0.0626709
0.0626702
0.0626694
0.0626686
0.0626677
0.0626667
0.0626658
0.0626648
0.0626637
0.0626626
0.0626616
0.0626605
0.0626594
0.0626583