/*--------------------------------*- C++ -*----------------------------------*\
| =========                 |                                                 |
| \\      /  F ield         | OpenFOAM: The Open Source CFD Toolbox           |
|  \\    /   O peration     | Version:  2406                                  |
|   \\  /    A nd           | Website:  www.openfoam.com                      |
|    \\/     M anipulation  |                                                 |
\*---------------------------------------------------------------------------*/
FoamFile
{
    version     2.0;
    format      ascii;
    arch        "LSB;label=32;scalar=64";
    class       volVectorField;
    location    "0.01";
    object      U;
}
// * * * * * * * * * * * * * * * * * * * * * * * * * * * * * * * * * * * * * //

dimensions      [0 1 -1 0 0 0 0];

internalField   nonuniform List<vector> 
81000
(
(0.0956969 0.402993 0)
(0.0956816 0.402893 0)
(0.0956784 0.402784 0)
(0.0956739 0.402606 0)
(0.0956689 0.402373 0)
(0.0956642 0.402115 0)
(0.0956609 0.401858 0)
(0.0956598 0.401627 0)
(0.0956612 0.401433 0)
(0.0956645 0.40128 0)
(0.095669 0.401162 0)
(0.0956738 0.401075 0)
(0.095679 0.401011 0)
(0.0956842 0.400965 0)
(0.0956893 0.400934 0)
(0.0956938 0.400917 0)
(0.0956979 0.400909 0)
(0.0957047 0.400911 0)
(0.0957141 0.400927 0)
(0.0957296 0.400973 0)
(0.095752 0.401059 0)
(0.095782 0.401189 0)
(0.0958196 0.401352 0)
(0.0958666 0.401535 0)
(0.0959243 0.40172 0)
(0.0959961 0.401896 0)
(0.0960848 0.402052 0)
(0.0961956 0.402183 0)
(0.0963285 0.402284 0)
(0.0964817 0.402356 0)
(0.0966492 0.402403 0)
(0.0968276 0.402434 0)
(0.0970126 0.402455 0)
(0.0972019 0.402468 0)
(0.0973925 0.402478 0)
(0.097583 0.402483 0)
(0.0977713 0.402484 0)
(0.0979563 0.402481 0)
(0.098137 0.402475 0)
(0.0983128 0.402468 0)
(0.0984833 0.402462 0)
(0.0986486 0.402456 0)
(0.0988085 0.402448 0)
(0.0989633 0.402432 0)
(0.0991121 0.402398 0)
(0.0992531 0.402336 0)
(0.0993834 0.402239 0)
(0.0995019 0.402105 0)
(0.0996089 0.401932 0)
(0.0997052 0.401718 0)
(0.0997915 0.40146 0)
(0.0998683 0.401154 0)
(0.0999365 0.400797 0)
(0.0999971 0.400386 0)
(0.100051 0.39992 0)
(0.1001 0.399396 0)
(0.100144 0.398814 0)
(0.100183 0.398174 0)
(0.100219 0.397479 0)
(0.10025 0.396732 0)
(0.100278 0.395937 0)
(0.100302 0.395099 0)
(0.100323 0.394224 0)
(0.100342 0.393319 0)
(0.10036 0.392389 0)
(0.100378 0.391443 0)
(0.100401 0.390487 0)
(0.100436 0.389529 0)
(0.100498 0.388575 0)
(0.100604 0.387633 0)
(0.10076 0.386707 0)
(0.100931 0.385793 0)
(0.101063 0.384882 0)
(0.101152 0.383976 0)
(0.10121 0.383075 0)
(0.101249 0.382181 0)
(0.101275 0.3813 0)
(0.101294 0.380437 0)
(0.101306 0.379601 0)
(0.101314 0.378808 0)
(0.10132 0.378078 0)
(0.101323 0.377435 0)
(0.101325 0.376902 0)
(0.101326 0.376497 0)
(0.101326 0.376223 0)
(0.101327 0.376065 0)
(0.101328 0.375993 0)
(0.101329 0.37597 0)
(0.10133 0.375966 0)
(0.10133 0.375973 0)
(0.101331 0.376001 0)
(0.101332 0.376072 0)
(0.101333 0.376216 0)
(0.101338 0.376459 0)
(0.101344 0.376819 0)
(0.101353 0.377283 0)
(0.101363 0.377796 0)
(0.10137 0.378266 0)
(0.101375 0.378597 0)
(0.10139 0.378788 0)
(0.103829 1.16419 0)
(0.103809 1.16381 0)
(0.103812 1.16352 0)
(0.103819 1.16315 0)
(0.103832 1.16276 0)
(0.103854 1.16239 0)
(0.103885 1.16209 0)
(0.10392 1.16184 0)
(0.103956 1.16165 0)
(0.10399 1.16152 0)
(0.10402 1.16142 0)
(0.104048 1.16135 0)
(0.104075 1.1613 0)
(0.104102 1.16128 0)
(0.104131 1.16127 0)
(0.104162 1.16129 0)
(0.104196 1.16132 0)
(0.104235 1.16137 0)
(0.104279 1.16145 0)
(0.10433 1.16155 0)
(0.104389 1.16168 0)
(0.104455 1.16181 0)
(0.104531 1.16195 0)
(0.10462 1.16209 0)
(0.104724 1.16222 0)
(0.104847 1.16233 0)
(0.104989 1.16243 0)
(0.10515 1.1625 0)
(0.105326 1.16256 0)
(0.105514 1.16261 0)
(0.105711 1.16265 0)
(0.105914 1.16268 0)
(0.10612 1.16273 0)
(0.106327 1.16278 0)
(0.106533 1.16284 0)
(0.106736 1.16291 0)
(0.106934 1.163 0)
(0.107125 1.1631 0)
(0.107308 1.16321 0)
(0.107482 1.16334 0)
(0.107647 1.16347 0)
(0.107804 1.1636 0)
(0.107953 1.16373 0)
(0.108093 1.16387 0)
(0.108224 1.164 0)
(0.108344 1.16412 0)
(0.108452 1.16424 0)
(0.108548 1.16436 0)
(0.108631 1.16447 0)
(0.108699 1.16458 0)
(0.108753 1.16468 0)
(0.108792 1.16477 0)
(0.108817 1.16483 0)
(0.108833 1.16488 0)
(0.108841 1.16489 0)
(0.108844 1.1649 0)
(0.108847 1.16489 0)
(0.108849 1.16488 0)
(0.108848 1.16484 0)
(0.108843 1.16477 0)
(0.108832 1.16465 0)
(0.108811 1.16448 0)
(0.108778 1.16424 0)
(0.108728 1.16394 0)
(0.108655 1.16359 0)
(0.108548 1.16319 0)
(0.108396 1.16273 0)
(0.108233 1.16223 0)
(0.108133 1.16163 0)
(0.108088 1.16095 0)
(0.108064 1.16018 0)
(0.108046 1.15931 0)
(0.108027 1.15833 0)
(0.108004 1.15724 0)
(0.107979 1.15605 0)
(0.107951 1.15477 0)
(0.107922 1.15342 0)
(0.10789 1.15201 0)
(0.107856 1.15058 0)
(0.107821 1.14916 0)
(0.107784 1.14777 0)
(0.107746 1.14647 0)
(0.107708 1.14528 0)
(0.107667 1.14422 0)
(0.107621 1.14332 0)
(0.10757 1.1426 0)
(0.107517 1.14207 0)
(0.10747 1.14173 0)
(0.107433 1.14155 0)
(0.107411 1.14149 0)
(0.10739 1.14148 0)
(0.107372 1.14153 0)
(0.107338 1.1417 0)
(0.107289 1.1421 0)
(0.107234 1.14277 0)
(0.107182 1.14366 0)
(0.107142 1.14464 0)
(0.107119 1.14552 0)
(0.10711 1.14614 0)
(0.107131 1.14664 0)
(0.558365 1.28055 0)
(0.55819 1.27982 0)
(0.558185 1.27914 0)
(0.558174 1.27829 0)
(0.558155 1.27748 0)
(0.558126 1.2768 0)
(0.558093 1.27631 0)
(0.558075 1.27596 0)
(0.558069 1.27571 0)
(0.558063 1.27552 0)
(0.55806 1.27537 0)
(0.558056 1.27525 0)
(0.558055 1.27515 0)
(0.558054 1.27507 0)
(0.558055 1.27503 0)
(0.558056 1.27502 0)
(0.558058 1.27502 0)
(0.558059 1.27502 0)
(0.558062 1.27505 0)
(0.558067 1.27509 0)
(0.558075 1.27515 0)
(0.558087 1.27523 0)
(0.558105 1.27531 0)
(0.558127 1.27539 0)
(0.558155 1.27547 0)
(0.55819 1.27554 0)
(0.558232 1.27559 0)
(0.558285 1.27563 0)
(0.558346 1.27564 0)
(0.558416 1.27564 0)
(0.558492 1.27563 0)
(0.558579 1.27563 0)
(0.558674 1.27564 0)
(0.558779 1.27569 0)
(0.558891 1.27576 0)
(0.559014 1.27588 0)
(0.559148 1.27603 0)
(0.559298 1.27622 0)
(0.55947 1.27645 0)
(0.559666 1.27673 0)
(0.559888 1.27705 0)
(0.560131 1.27744 0)
(0.560392 1.27789 0)
(0.560672 1.27842 0)
(0.560971 1.27903 0)
(0.561289 1.27974 0)
(0.561626 1.28054 0)
(0.561985 1.28145 0)
(0.56237 1.28246 0)
(0.562783 1.2836 0)
(0.563226 1.28486 0)
(0.563703 1.28622 0)
(0.564216 1.28769 0)
(0.564769 1.28923 0)
(0.565366 1.29083 0)
(0.56601 1.29246 0)
(0.566703 1.29409 0)
(0.56745 1.29571 0)
(0.568254 1.29728 0)
(0.569121 1.29881 0)
(0.570054 1.30028 0)
(0.571053 1.30168 0)
(0.572103 1.30301 0)
(0.57317 1.3043 0)
(0.574211 1.30556 0)
(0.575208 1.30678 0)
(0.576164 1.30793 0)
(0.577097 1.30895 0)
(0.578019 1.30981 0)
(0.578943 1.31045 0)
(0.579876 1.31081 0)
(0.58082 1.3108 0)
(0.581735 1.31036 0)
(0.582592 1.30945 0)
(0.583396 1.30805 0)
(0.584159 1.30613 0)
(0.584877 1.30369 0)
(0.585544 1.30075 0)
(0.586148 1.29742 0)
(0.58668 1.2938 0)
(0.587132 1.29002 0)
(0.587505 1.2862 0)
(0.5878 1.28248 0)
(0.588036 1.27893 0)
(0.588226 1.27568 0)
(0.58839 1.27285 0)
(0.588536 1.2706 0)
(0.588665 1.26901 0)
(0.588767 1.26813 0)
(0.588835 1.26781 0)
(0.588881 1.26777 0)
(0.588914 1.26787 0)
(0.588974 1.26821 0)
(0.589056 1.26891 0)
(0.589155 1.26999 0)
(0.58926 1.27139 0)
(0.589353 1.27294 0)
(0.589411 1.27441 0)
(0.589431 1.27553 0)
(0.589614 1.27646 0)
(1.74008 1.49795 0)
(1.73917 1.50253 0)
(1.73916 1.50251 0)
(1.73915 1.50241 0)
(1.73914 1.50224 0)
(1.73911 1.50199 0)
(1.73908 1.50177 0)
(1.73905 1.5016 0)
(1.73902 1.50153 0)
(1.739 1.50151 0)
(1.73899 1.50153 0)
(1.73899 1.50155 0)
(1.73899 1.50159 0)
(1.73899 1.50162 0)
(1.73899 1.50166 0)
(1.73899 1.50168 0)
(1.73899 1.50172 0)
(1.73899 1.50174 0)
(1.73899 1.50177 0)
(1.739 1.50178 0)
(1.739 1.5018 0)
(1.739 1.50181 0)
(1.739 1.50182 0)
(1.739 1.50182 0)
(1.73901 1.50182 0)
(1.73901 1.5018 0)
(1.73901 1.50177 0)
(1.73902 1.50171 0)
(1.73903 1.50163 0)
(1.73904 1.50152 0)
(1.73906 1.50139 0)
(1.73908 1.50124 0)
(1.73911 1.50107 0)
(1.73916 1.50087 0)
(1.73922 1.50067 0)
(1.7393 1.50044 0)
(1.7394 1.50021 0)
(1.73953 1.49997 0)
(1.73968 1.49972 0)
(1.73988 1.49947 0)
(1.74011 1.49923 0)
(1.74038 1.49899 0)
(1.7407 1.49877 0)
(1.74106 1.49855 0)
(1.74146 1.49834 0)
(1.74191 1.49814 0)
(1.74241 1.49797 0)
(1.74297 1.49784 0)
(1.7436 1.49777 0)
(1.74428 1.49776 0)
(1.74502 1.49781 0)
(1.74582 1.49791 0)
(1.74667 1.49804 0)
(1.74757 1.49821 0)
(1.74852 1.49839 0)
(1.74952 1.49859 0)
(1.75056 1.49878 0)
(1.75164 1.49896 0)
(1.75277 1.49911 0)
(1.75393 1.49921 0)
(1.75513 1.49924 0)
(1.75638 1.49921 0)
(1.75766 1.49912 0)
(1.75899 1.49896 0)
(1.76037 1.49876 0)
(1.76178 1.49852 0)
(1.76324 1.49826 0)
(1.76473 1.49801 0)
(1.76626 1.49776 0)
(1.7678 1.49752 0)
(1.76935 1.4973 0)
(1.7709 1.49709 0)
(1.77244 1.49688 0)
(1.77396 1.49666 0)
(1.77545 1.49644 0)
(1.7769 1.49621 0)
(1.77831 1.49595 0)
(1.77966 1.49566 0)
(1.78096 1.49533 0)
(1.78219 1.49497 0)
(1.78334 1.4946 0)
(1.78442 1.49423 0)
(1.78541 1.49389 0)
(1.78633 1.49362 0)
(1.78717 1.49345 0)
(1.78794 1.49342 0)
(1.78862 1.49355 0)
(1.78921 1.49388 0)
(1.78967 1.49442 0)
(1.79001 1.49515 0)
(1.79026 1.49608 0)
(1.79044 1.49721 0)
(1.79057 1.49857 0)
(1.79065 1.50018 0)
(1.79071 1.502 0)
(1.79074 1.50394 0)
(1.79075 1.50584 0)
(1.79076 1.50743 0)
(1.79077 1.5085 0)
(1.79128 1.50938 0)
(4.26359 1.81531 0)
(4.26153 1.81419 0)
(4.2615 1.81375 0)
(4.26147 1.81329 0)
(4.26147 1.81292 0)
(4.26147 1.81264 0)
(4.26146 1.81245 0)
(4.26146 1.81232 0)
(4.26146 1.81223 0)
(4.26146 1.81218 0)
(4.26145 1.81217 0)
(4.26145 1.81218 0)
(4.26146 1.81222 0)
(4.26146 1.81233 0)
(4.26146 1.8125 0)
(4.26147 1.8127 0)
(4.26147 1.81289 0)
(4.26148 1.81304 0)
(4.26149 1.81315 0)
(4.2615 1.81322 0)
(4.26151 1.81325 0)
(4.26152 1.81327 0)
(4.26153 1.81327 0)
(4.26154 1.81326 0)
(4.26156 1.81322 0)
(4.26158 1.81315 0)
(4.26161 1.81304 0)
(4.26165 1.81289 0)
(4.26169 1.81271 0)
(4.26174 1.81251 0)
(4.26179 1.81231 0)
(4.26184 1.8121 0)
(4.2619 1.81191 0)
(4.26197 1.81174 0)
(4.26204 1.81159 0)
(4.26213 1.81146 0)
(4.26223 1.81135 0)
(4.26237 1.81128 0)
(4.26253 1.81126 0)
(4.26272 1.81128 0)
(4.26294 1.81132 0)
(4.2632 1.8114 0)
(4.26351 1.81149 0)
(4.26386 1.81162 0)
(4.26425 1.81179 0)
(4.26469 1.81201 0)
(4.26517 1.81231 0)
(4.2657 1.81272 0)
(4.26627 1.81324 0)
(4.26689 1.8139 0)
(4.26754 1.81473 0)
(4.26822 1.81574 0)
(4.26893 1.81696 0)
(4.26967 1.81841 0)
(4.27043 1.8201 0)
(4.2712 1.82204 0)
(4.27198 1.82422 0)
(4.27277 1.82664 0)
(4.27355 1.82928 0)
(4.27433 1.83212 0)
(4.2751 1.83513 0)
(4.27586 1.83828 0)
(4.27662 1.84154 0)
(4.27736 1.84485 0)
(4.2781 1.84819 0)
(4.27884 1.85149 0)
(4.27958 1.85473 0)
(4.28033 1.85785 0)
(4.28108 1.86081 0)
(4.28186 1.86359 0)
(4.28265 1.86618 0)
(4.28347 1.86859 0)
(4.28433 1.8708 0)
(4.2852 1.87281 0)
(4.28611 1.8746 0)
(4.28704 1.87619 0)
(4.28798 1.87757 0)
(4.28894 1.87875 0)
(4.28989 1.87975 0)
(4.29084 1.88059 0)
(4.29176 1.88129 0)
(4.29264 1.88188 0)
(4.29347 1.8824 0)
(4.29423 1.88286 0)
(4.29493 1.88326 0)
(4.29557 1.88359 0)
(4.29615 1.88384 0)
(4.29668 1.88403 0)
(4.29714 1.88417 0)
(4.29753 1.88432 0)
(4.29783 1.88451 0)
(4.29804 1.88475 0)
(4.29817 1.88498 0)
(4.29826 1.88518 0)
(4.29832 1.88532 0)
(4.29835 1.8854 0)
(4.29836 1.88543 0)
(4.29838 1.88543 0)
(4.29844 1.88524 0)
(4.30035 1.85938 0)
(8.50872 2.30866 0)
(8.5333 2.29626 0)
(8.5332 2.29588 0)
(8.53313 2.29587 0)
(8.5331 2.29583 0)
(8.53308 2.29579 0)
(8.53306 2.29575 0)
(8.53305 2.2957 0)
(8.53304 2.29566 0)
(8.53304 2.29562 0)
(8.53303 2.29559 0)
(8.53303 2.29556 0)
(8.53303 2.29555 0)
(8.53303 2.29554 0)
(8.53303 2.29554 0)
(8.53304 2.29554 0)
(8.53304 2.29554 0)
(8.53304 2.29556 0)
(8.53304 2.29559 0)
(8.53305 2.29564 0)
(8.53305 2.29571 0)
(8.53306 2.29582 0)
(8.53307 2.29595 0)
(8.53308 2.2961 0)
(8.53309 2.29629 0)
(8.53311 2.2965 0)
(8.53314 2.29674 0)
(8.53317 2.29701 0)
(8.53321 2.29732 0)
(8.53326 2.29766 0)
(8.53332 2.29803 0)
(8.53338 2.29845 0)
(8.53345 2.29892 0)
(8.53354 2.29943 0)
(8.53362 2.29998 0)
(8.53372 2.30058 0)
(8.53382 2.30121 0)
(8.53393 2.30187 0)
(8.53405 2.30254 0)
(8.53417 2.30321 0)
(8.53431 2.30387 0)
(8.53446 2.30449 0)
(8.53462 2.30508 0)
(8.53478 2.30561 0)
(8.53497 2.30609 0)
(8.53516 2.30651 0)
(8.53538 2.30687 0)
(8.53562 2.30719 0)
(8.53588 2.30747 0)
(8.53618 2.30774 0)
(8.53651 2.308 0)
(8.53686 2.30826 0)
(8.53725 2.30853 0)
(8.53766 2.3088 0)
(8.53811 2.30906 0)
(8.53859 2.3093 0)
(8.53909 2.3095 0)
(8.5396 2.30971 0)
(8.5401 2.30996 0)
(8.54059 2.31026 0)
(8.54105 2.3106 0)
(8.54149 2.31096 0)
(8.54192 2.31132 0)
(8.54234 2.31164 0)
(8.54274 2.31188 0)
(8.54314 2.312 0)
(8.54354 2.31195 0)
(8.54393 2.31173 0)
(8.54433 2.31132 0)
(8.54475 2.3107 0)
(8.54519 2.30984 0)
(8.54567 2.30876 0)
(8.54618 2.30745 0)
(8.54673 2.30596 0)
(8.54729 2.30432 0)
(8.54788 2.30258 0)
(8.54848 2.30079 0)
(8.5491 2.29898 0)
(8.54971 2.29718 0)
(8.55032 2.29545 0)
(8.55091 2.29378 0)
(8.55147 2.29222 0)
(8.552 2.29078 0)
(8.55249 2.28946 0)
(8.55294 2.28829 0)
(8.55334 2.28726 0)
(8.55369 2.28639 0)
(8.55399 2.28566 0)
(8.55423 2.28507 0)
(8.55443 2.28462 0)
(8.55458 2.28427 0)
(8.5547 2.28402 0)
(8.55479 2.28386 0)
(8.55485 2.28376 0)
(8.55489 2.2837 0)
(8.55491 2.28368 0)
(8.55491 2.28367 0)
(8.55491 2.28367 0)
(8.55489 2.28366 0)
(8.54738 2.26949 0)
(14.0736 2.74534 0)
(14.1159 2.73577 0)
(14.116 2.73577 0)
(14.116 2.73577 0)
(14.116 2.73577 0)
(14.116 2.73578 0)
(14.116 2.73578 0)
(14.116 2.73579 0)
(14.116 2.7358 0)
(14.1159 2.73582 0)
(14.1159 2.73584 0)
(14.1159 2.73587 0)
(14.1159 2.7359 0)
(14.1159 2.73595 0)
(14.1159 2.736 0)
(14.1158 2.73607 0)
(14.1158 2.73614 0)
(14.1158 2.73623 0)
(14.1157 2.73633 0)
(14.1157 2.73645 0)
(14.1156 2.73658 0)
(14.1155 2.73673 0)
(14.1155 2.73689 0)
(14.1154 2.73708 0)
(14.1153 2.73729 0)
(14.1153 2.73753 0)
(14.1152 2.73781 0)
(14.1152 2.73813 0)
(14.1151 2.7385 0)
(14.1151 2.73893 0)
(14.1151 2.73943 0)
(14.1151 2.74 0)
(14.1151 2.74066 0)
(14.1151 2.74141 0)
(14.1151 2.74225 0)
(14.1151 2.7432 0)
(14.1151 2.74424 0)
(14.1151 2.74538 0)
(14.1152 2.74659 0)
(14.1152 2.74787 0)
(14.1152 2.74918 0)
(14.1153 2.7505 0)
(14.1153 2.7518 0)
(14.1153 2.75304 0)
(14.1154 2.75417 0)
(14.1154 2.75516 0)
(14.1155 2.75597 0)
(14.1155 2.75657 0)
(14.1156 2.75697 0)
(14.1156 2.75719 0)
(14.1157 2.75728 0)
(14.1158 2.75728 0)
(14.1159 2.7572 0)
(14.116 2.75706 0)
(14.1162 2.75685 0)
(14.1164 2.75656 0)
(14.1167 2.75619 0)
(14.117 2.75569 0)
(14.1174 2.75503 0)
(14.1177 2.75415 0)
(14.118 2.75303 0)
(14.1183 2.75163 0)
(14.1186 2.74992 0)
(14.1189 2.7479 0)
(14.1192 2.74555 0)
(14.1196 2.74289 0)
(14.1199 2.73994 0)
(14.1203 2.73677 0)
(14.1207 2.73342 0)
(14.1211 2.72996 0)
(14.1216 2.72648 0)
(14.1221 2.72302 0)
(14.1226 2.71965 0)
(14.1231 2.71642 0)
(14.1236 2.71335 0)
(14.1242 2.71048 0)
(14.1248 2.70784 0)
(14.1254 2.70543 0)
(14.1259 2.70327 0)
(14.1265 2.70135 0)
(14.127 2.69965 0)
(14.1276 2.69817 0)
(14.1281 2.69687 0)
(14.1285 2.69574 0)
(14.1289 2.69477 0)
(14.1292 2.69396 0)
(14.1295 2.69327 0)
(14.1298 2.69271 0)
(14.13 2.69225 0)
(14.1302 2.69189 0)
(14.1304 2.69162 0)
(14.1305 2.69142 0)
(14.1306 2.69127 0)
(14.1306 2.69118 0)
(14.1307 2.69111 0)
(14.1307 2.69108 0)
(14.1307 2.69106 0)
(14.1307 2.69105 0)
(14.1306 2.69099 0)
(14.0985 2.70662 0)
(19.003 3.10595 0)
(19.0687 3.11726 0)
(19.0685 3.11877 0)
(19.0683 3.11918 0)
(19.0682 3.11929 0)
(19.0682 3.1193 0)
(19.0681 3.11927 0)
(19.068 3.11925 0)
(19.0679 3.11925 0)
(19.0678 3.11924 0)
(19.0677 3.11924 0)
(19.0676 3.11924 0)
(19.0675 3.11923 0)
(19.0673 3.11923 0)
(19.0672 3.11923 0)
(19.067 3.11923 0)
(19.0669 3.11923 0)
(19.0667 3.11923 0)
(19.0665 3.11923 0)
(19.0663 3.11923 0)
(19.0662 3.11923 0)
(19.066 3.11923 0)
(19.0658 3.11923 0)
(19.0656 3.11923 0)
(19.0654 3.11923 0)
(19.0652 3.11922 0)
(19.0651 3.11921 0)
(19.0649 3.11919 0)
(19.0647 3.11917 0)
(19.0646 3.11913 0)
(19.0645 3.11909 0)
(19.0644 3.11902 0)
(19.0643 3.11893 0)
(19.0642 3.1188 0)
(19.0641 3.11863 0)
(19.0641 3.11842 0)
(19.0641 3.11816 0)
(19.0641 3.11786 0)
(19.0641 3.1175 0)
(19.0641 3.11709 0)
(19.0641 3.11664 0)
(19.0641 3.11615 0)
(19.0641 3.11562 0)
(19.0641 3.11507 0)
(19.0641 3.11451 0)
(19.0641 3.11396 0)
(19.0641 3.11341 0)
(19.0642 3.1129 0)
(19.0642 3.1124 0)
(19.0643 3.11192 0)
(19.0644 3.11146 0)
(19.0645 3.11099 0)
(19.0647 3.11051 0)
(19.0649 3.10999 0)
(19.065 3.10944 0)
(19.0652 3.10885 0)
(19.0653 3.10822 0)
(19.0655 3.10756 0)
(19.0656 3.10686 0)
(19.0657 3.10612 0)
(19.0659 3.10534 0)
(19.0661 3.10451 0)
(19.0663 3.10361 0)
(19.0666 3.10265 0)
(19.0669 3.10161 0)
(19.0672 3.10049 0)
(19.0676 3.09929 0)
(19.0681 3.09799 0)
(19.0686 3.0966 0)
(19.0692 3.09511 0)
(19.0699 3.09354 0)
(19.0705 3.09191 0)
(19.0713 3.09025 0)
(19.072 3.08857 0)
(19.0727 3.08689 0)
(19.0735 3.08522 0)
(19.0743 3.08358 0)
(19.075 3.08196 0)
(19.0757 3.0804 0)
(19.0764 3.07889 0)
(19.0771 3.07744 0)
(19.0777 3.07607 0)
(19.0782 3.07479 0)
(19.0788 3.0736 0)
(19.0792 3.07251 0)
(19.0797 3.07153 0)
(19.0801 3.07065 0)
(19.0804 3.06987 0)
(19.0808 3.0692 0)
(19.0811 3.06862 0)
(19.0813 3.06812 0)
(19.0816 3.06768 0)
(19.0818 3.0673 0)
(19.082 3.06697 0)
(19.0821 3.06668 0)
(19.0822 3.06643 0)
(19.0823 3.0662 0)
(19.0826 3.06608 0)
(19.0828 3.06499 0)
(19.0181 3.0482 0)
(21.2442 2.58415 0)
(21.3202 2.5927 0)
(21.3202 2.59408 0)
(21.3198 2.59432 0)
(21.3196 2.59454 0)
(21.3194 2.5946 0)
(21.3191 2.59462 0)
(21.3188 2.59465 0)
(21.3185 2.59467 0)
(21.3182 2.59469 0)
(21.3179 2.5947 0)
(21.3175 2.59472 0)
(21.3172 2.59473 0)
(21.3168 2.59474 0)
(21.3164 2.59475 0)
(21.3161 2.59475 0)
(21.3157 2.59475 0)
(21.3153 2.59475 0)
(21.315 2.59474 0)
(21.3146 2.59473 0)
(21.3143 2.59471 0)
(21.3139 2.59468 0)
(21.3136 2.59465 0)
(21.3133 2.59461 0)
(21.313 2.59456 0)
(21.3127 2.5945 0)
(21.3125 2.59442 0)
(21.3122 2.59432 0)
(21.312 2.5942 0)
(21.3118 2.59404 0)
(21.3116 2.59384 0)
(21.3114 2.59359 0)
(21.3113 2.59329 0)
(21.3111 2.59293 0)
(21.311 2.5925 0)
(21.3109 2.59201 0)
(21.3109 2.59145 0)
(21.3108 2.59081 0)
(21.3107 2.59012 0)
(21.3107 2.58936 0)
(21.3106 2.58856 0)
(21.3106 2.58771 0)
(21.3105 2.58685 0)
(21.3104 2.58598 0)
(21.3104 2.58514 0)
(21.3103 2.58433 0)
(21.3103 2.58358 0)
(21.3102 2.5829 0)
(21.3102 2.5823 0)
(21.3102 2.58179 0)
(21.3102 2.58135 0)
(21.3101 2.58099 0)
(21.3101 2.58067 0)
(21.3101 2.5804 0)
(21.3101 2.58016 0)
(21.3101 2.57996 0)
(21.3101 2.57982 0)
(21.3101 2.57974 0)
(21.3101 2.57972 0)
(21.31 2.57973 0)
(21.31 2.57979 0)
(21.31 2.57992 0)
(21.3101 2.58015 0)
(21.3101 2.58049 0)
(21.3101 2.58093 0)
(21.3102 2.58146 0)
(21.3104 2.58206 0)
(21.3106 2.58268 0)
(21.3109 2.58331 0)
(21.3113 2.5839 0)
(21.3118 2.58442 0)
(21.3124 2.58485 0)
(21.313 2.58517 0)
(21.3137 2.58536 0)
(21.3144 2.58542 0)
(21.3151 2.58536 0)
(21.3159 2.58519 0)
(21.3167 2.5849 0)
(21.3174 2.58453 0)
(21.3181 2.58407 0)
(21.3188 2.58356 0)
(21.3195 2.58301 0)
(21.3201 2.58243 0)
(21.3207 2.58185 0)
(21.3213 2.58127 0)
(21.3218 2.58072 0)
(21.3223 2.5802 0)
(21.3227 2.57973 0)
(21.3232 2.57931 0)
(21.3235 2.57895 0)
(21.3239 2.57865 0)
(21.3242 2.5784 0)
(21.3245 2.57819 0)
(21.3247 2.57802 0)
(21.3249 2.57789 0)
(21.325 2.57778 0)
(21.3251 2.57769 0)
(21.3253 2.57766 0)
(21.3252 2.577 0)
(21.2486 2.56075 0)
(20.9441 0.165503 0)
(20.9393 0.165311 0)
(20.9392 0.165026 0)
(20.939 0.164721 0)
(20.9388 0.164489 0)
(20.9385 0.164397 0)
(20.9382 0.164381 0)
(20.9378 0.164376 0)
(20.9374 0.164395 0)
(20.9369 0.164449 0)
(20.9365 0.164531 0)
(20.936 0.164623 0)
(20.9354 0.164713 0)
(20.9349 0.164794 0)
(20.9344 0.164863 0)
(20.9339 0.16492 0)
(20.9334 0.164967 0)
(20.9329 0.165009 0)
(20.9324 0.165053 0)
(20.932 0.165102 0)
(20.9315 0.16516 0)
(20.9311 0.165227 0)
(20.9308 0.165307 0)
(20.9305 0.165402 0)
(20.9302 0.165512 0)
(20.9299 0.165634 0)
(20.9297 0.165763 0)
(20.9295 0.165897 0)
(20.9294 0.166035 0)
(20.9292 0.166176 0)
(20.9292 0.166322 0)
(20.9291 0.16647 0)
(20.9291 0.166615 0)
(20.9291 0.166751 0)
(20.9291 0.166875 0)
(20.9291 0.16698 0)
(20.9291 0.167063 0)
(20.9291 0.167123 0)
(20.9292 0.16716 0)
(20.9292 0.167174 0)
(20.9292 0.167163 0)
(20.9293 0.16713 0)
(20.9293 0.167077 0)
(20.9294 0.167005 0)
(20.9294 0.166916 0)
(20.9295 0.166809 0)
(20.9296 0.166679 0)
(20.9296 0.166521 0)
(20.9297 0.166329 0)
(20.9298 0.166097 0)
(20.9299 0.165821 0)
(20.93 0.165497 0)
(20.93 0.165127 0)
(20.9301 0.164714 0)
(20.9302 0.164264 0)
(20.9304 0.163785 0)
(20.9305 0.163285 0)
(20.9307 0.162777 0)
(20.9309 0.162273 0)
(20.9311 0.161789 0)
(20.9314 0.161342 0)
(20.9317 0.160946 0)
(20.9321 0.160618 0)
(20.9325 0.160369 0)
(20.9329 0.160209 0)
(20.9334 0.160143 0)
(20.9339 0.160172 0)
(20.9344 0.160294 0)
(20.9349 0.160507 0)
(20.9354 0.160804 0)
(20.9359 0.161178 0)
(20.9364 0.161621 0)
(20.9369 0.162123 0)
(20.9374 0.162673 0)
(20.9378 0.163256 0)
(20.9382 0.163857 0)
(20.9386 0.164461 0)
(20.9389 0.165049 0)
(20.9393 0.16561 0)
(20.9396 0.166123 0)
(20.94 0.166576 0)
(20.9404 0.166981 0)
(20.9408 0.167294 0)
(20.9412 0.167513 0)
(20.9416 0.167679 0)
(20.9421 0.167796 0)
(20.9425 0.167866 0)
(20.943 0.167892 0)
(20.9434 0.167882 0)
(20.9439 0.167847 0)
(20.9444 0.167801 0)
(20.9449 0.167763 0)
(20.9454 0.16779 0)
(20.946 0.167996 0)
(20.9466 0.16853 0)
(20.947 0.169474 0)
(20.9474 0.17079 0)
(20.9478 0.172283 0)
(20.948 0.173551 0)
(20.9539 0.174238 0)
(0.0962067 0.408259 0)
(0.0961696 0.408116 0)
(0.0961639 0.408072 0)
(0.0961553 0.407961 0)
(0.096146 0.407788 0)
(0.0961383 0.40757 0)
(0.0961341 0.407347 0)
(0.0961339 0.407142 0)
(0.0961372 0.406978 0)
(0.0961429 0.406857 0)
(0.096149 0.406779 0)
(0.0961542 0.406736 0)
(0.0961578 0.406719 0)
(0.09616 0.406715 0)
(0.0961623 0.406718 0)
(0.0961663 0.406733 0)
(0.0961727 0.40677 0)
(0.0961819 0.406837 0)
(0.096195 0.40694 0)
(0.0962126 0.407079 0)
(0.0962359 0.407256 0)
(0.0962651 0.407459 0)
(0.096302 0.407684 0)
(0.0963473 0.407913 0)
(0.0964041 0.40814 0)
(0.0964742 0.40835 0)
(0.0965624 0.408538 0)
(0.0966712 0.408696 0)
(0.096804 0.408822 0)
(0.0969562 0.408915 0)
(0.0971243 0.40898 0)
(0.0973015 0.409025 0)
(0.0974857 0.40906 0)
(0.097673 0.409087 0)
(0.0978627 0.409109 0)
(0.0980519 0.409127 0)
(0.0982402 0.409141 0)
(0.0984254 0.40915 0)
(0.0986071 0.409157 0)
(0.0987839 0.409163 0)
(0.0989557 0.40917 0)
(0.0991215 0.409179 0)
(0.0992816 0.409187 0)
(0.0994356 0.409189 0)
(0.0995836 0.409176 0)
(0.0997243 0.409137 0)
(0.0998552 0.409066 0)
(0.0999744 0.40896 0)
(0.100082 0.408819 0)
(0.100178 0.408641 0)
(0.100265 0.408424 0)
(0.100342 0.408164 0)
(0.100411 0.407859 0)
(0.100473 0.407505 0)
(0.100529 0.4071 0)
(0.100579 0.406641 0)
(0.100624 0.406126 0)
(0.100666 0.405555 0)
(0.100702 0.404929 0)
(0.100735 0.40425 0)
(0.100763 0.40352 0)
(0.100787 0.402745 0)
(0.100809 0.401928 0)
(0.100827 0.401076 0)
(0.100845 0.400194 0)
(0.100864 0.399288 0)
(0.100887 0.398362 0)
(0.100923 0.397422 0)
(0.100986 0.39647 0)
(0.101094 0.395511 0)
(0.101254 0.394546 0)
(0.101425 0.393572 0)
(0.101557 0.392579 0)
(0.101646 0.39157 0)
(0.101707 0.390546 0)
(0.101748 0.389509 0)
(0.101776 0.38846 0)
(0.101794 0.387407 0)
(0.101806 0.386359 0)
(0.101812 0.385334 0)
(0.101815 0.384353 0)
(0.101816 0.38344 0)
(0.101814 0.382619 0)
(0.101811 0.381914 0)
(0.101807 0.381336 0)
(0.101803 0.380892 0)
(0.101799 0.380576 0)
(0.101795 0.380373 0)
(0.101792 0.380261 0)
(0.101791 0.380215 0)
(0.101791 0.380204 0)
(0.101792 0.380214 0)
(0.101794 0.380264 0)
(0.101798 0.380399 0)
(0.101805 0.380653 0)
(0.101814 0.381026 0)
(0.101824 0.381469 0)
(0.101833 0.38189 0)
(0.101839 0.382188 0)
(0.101875 0.382441 0)
(0.104682 1.16808 0)
(0.104529 1.16854 0)
(0.104528 1.16851 0)
(0.104528 1.16841 0)
(0.104534 1.16822 0)
(0.104549 1.16798 0)
(0.104577 1.16774 0)
(0.104614 1.16752 0)
(0.104654 1.16736 0)
(0.104693 1.16725 0)
(0.104728 1.16719 0)
(0.104761 1.16717 0)
(0.104795 1.16717 0)
(0.104826 1.16719 0)
(0.104859 1.16724 0)
(0.104896 1.16732 0)
(0.104936 1.16742 0)
(0.104981 1.16755 0)
(0.105032 1.1677 0)
(0.105087 1.16787 0)
(0.105149 1.16806 0)
(0.105218 1.16825 0)
(0.105296 1.16845 0)
(0.105386 1.16863 0)
(0.105492 1.16881 0)
(0.105615 1.16897 0)
(0.105758 1.1691 0)
(0.105919 1.16921 0)
(0.106096 1.1693 0)
(0.106285 1.16937 0)
(0.106482 1.16942 0)
(0.106685 1.16948 0)
(0.10689 1.16953 0)
(0.107097 1.16959 0)
(0.107303 1.16965 0)
(0.107506 1.16971 0)
(0.107706 1.16979 0)
(0.107899 1.16987 0)
(0.108084 1.16997 0)
(0.108261 1.17007 0)
(0.108428 1.17017 0)
(0.108586 1.17027 0)
(0.108735 1.17037 0)
(0.108875 1.17045 0)
(0.109003 1.17053 0)
(0.10912 1.17059 0)
(0.109225 1.17063 0)
(0.109317 1.17066 0)
(0.109397 1.17067 0)
(0.109466 1.17065 0)
(0.109522 1.17062 0)
(0.109564 1.17056 0)
(0.109591 1.17047 0)
(0.109606 1.17036 0)
(0.109615 1.17022 0)
(0.109618 1.17005 0)
(0.109618 1.16984 0)
(0.109616 1.16961 0)
(0.109612 1.16934 0)
(0.109603 1.16904 0)
(0.109588 1.16869 0)
(0.109563 1.1683 0)
(0.109524 1.16787 0)
(0.109467 1.16741 0)
(0.109387 1.16693 0)
(0.109279 1.16641 0)
(0.109131 1.16587 0)
(0.108973 1.16528 0)
(0.10887 1.16465 0)
(0.108821 1.16394 0)
(0.108798 1.16318 0)
(0.108781 1.16236 0)
(0.108761 1.16147 0)
(0.108739 1.16051 0)
(0.108714 1.15949 0)
(0.108689 1.15841 0)
(0.108662 1.1573 0)
(0.108633 1.15614 0)
(0.108601 1.15499 0)
(0.108565 1.15386 0)
(0.108526 1.15278 0)
(0.108481 1.15177 0)
(0.108436 1.15087 0)
(0.108392 1.15009 0)
(0.108347 1.14945 0)
(0.108298 1.14897 0)
(0.108251 1.14866 0)
(0.108211 1.14849 0)
(0.108185 1.14843 0)
(0.108155 1.14843 0)
(0.108133 1.14849 0)
(0.108097 1.14868 0)
(0.108044 1.14908 0)
(0.107982 1.14972 0)
(0.107922 1.15063 0)
(0.107875 1.15168 0)
(0.107848 1.15272 0)
(0.107838 1.15353 0)
(0.107841 1.154 0)
(0.1079 1.15475 0)
(0.558174 1.25963 0)
(0.557936 1.26049 0)
(0.557935 1.26043 0)
(0.55793 1.26027 0)
(0.557921 1.25999 0)
(0.557906 1.25963 0)
(0.557889 1.25927 0)
(0.557875 1.25895 0)
(0.557866 1.25872 0)
(0.557862 1.25856 0)
(0.55786 1.25846 0)
(0.55786 1.25842 0)
(0.557861 1.25841 0)
(0.557861 1.25841 0)
(0.557862 1.25842 0)
(0.557863 1.25845 0)
(0.557865 1.25851 0)
(0.557869 1.25861 0)
(0.557875 1.25874 0)
(0.557885 1.25889 0)
(0.557898 1.25906 0)
(0.557916 1.25923 0)
(0.557939 1.25939 0)
(0.557965 1.25954 0)
(0.557996 1.25966 0)
(0.558032 1.25977 0)
(0.558074 1.25985 0)
(0.558126 1.25991 0)
(0.558189 1.25994 0)
(0.55826 1.25995 0)
(0.558337 1.25993 0)
(0.558423 1.25992 0)
(0.55852 1.25991 0)
(0.558626 1.25991 0)
(0.558743 1.25994 0)
(0.55887 1.25999 0)
(0.559008 1.26007 0)
(0.559159 1.26017 0)
(0.559329 1.2603 0)
(0.55952 1.26044 0)
(0.559734 1.2606 0)
(0.559968 1.26079 0)
(0.560223 1.26099 0)
(0.560497 1.26123 0)
(0.560792 1.26149 0)
(0.561107 1.26178 0)
(0.561444 1.26211 0)
(0.561807 1.26248 0)
(0.56219 1.26289 0)
(0.562596 1.26331 0)
(0.563032 1.26374 0)
(0.563499 1.26417 0)
(0.564003 1.26459 0)
(0.56455 1.265 0)
(0.565144 1.2654 0)
(0.565791 1.2658 0)
(0.566496 1.2662 0)
(0.567261 1.26662 0)
(0.568089 1.26706 0)
(0.568977 1.26755 0)
(0.569926 1.26809 0)
(0.570922 1.26871 0)
(0.571952 1.26942 0)
(0.572986 1.27024 0)
(0.574005 1.27115 0)
(0.574991 1.27214 0)
(0.575955 1.27316 0)
(0.576909 1.27416 0)
(0.577865 1.27509 0)
(0.578815 1.27592 0)
(0.579762 1.27664 0)
(0.580698 1.27721 0)
(0.581626 1.27758 0)
(0.582528 1.27771 0)
(0.5834 1.27755 0)
(0.584197 1.27709 0)
(0.584929 1.27631 0)
(0.585588 1.27526 0)
(0.586198 1.2739 0)
(0.586735 1.27231 0)
(0.587211 1.27052 0)
(0.587603 1.26872 0)
(0.587934 1.26704 0)
(0.588191 1.26574 0)
(0.588394 1.26485 0)
(0.588532 1.26442 0)
(0.588622 1.26428 0)
(0.588727 1.26432 0)
(0.588833 1.26456 0)
(0.588944 1.26517 0)
(0.589038 1.26616 0)
(0.589153 1.26757 0)
(0.589278 1.26931 0)
(0.589412 1.27145 0)
(0.589532 1.27385 0)
(0.58963 1.27649 0)
(0.589691 1.27911 0)
(0.58972 1.28149 0)
(0.589729 1.2832 0)
(0.590175 1.28496 0)
(1.73972 1.44481 0)
(1.73866 1.44384 0)
(1.73866 1.44356 0)
(1.73865 1.44317 0)
(1.73863 1.44271 0)
(1.73859 1.44229 0)
(1.73856 1.4419 0)
(1.73854 1.4416 0)
(1.73852 1.44135 0)
(1.73851 1.4412 0)
(1.7385 1.44109 0)
(1.7385 1.44105 0)
(1.7385 1.44103 0)
(1.7385 1.44104 0)
(1.7385 1.44104 0)
(1.7385 1.44109 0)
(1.7385 1.44111 0)
(1.7385 1.4412 0)
(1.7385 1.44124 0)
(1.7385 1.44134 0)
(1.73851 1.44138 0)
(1.73851 1.44145 0)
(1.73851 1.44147 0)
(1.73852 1.44151 0)
(1.73852 1.44151 0)
(1.73852 1.44152 0)
(1.73853 1.44151 0)
(1.73853 1.44149 0)
(1.73854 1.44145 0)
(1.73855 1.44138 0)
(1.73857 1.44127 0)
(1.73859 1.44114 0)
(1.73863 1.44098 0)
(1.73867 1.4408 0)
(1.73873 1.44059 0)
(1.73881 1.44037 0)
(1.73891 1.44013 0)
(1.73904 1.43988 0)
(1.7392 1.43962 0)
(1.73939 1.43936 0)
(1.73963 1.43909 0)
(1.7399 1.43883 0)
(1.74022 1.43858 0)
(1.74058 1.43834 0)
(1.74098 1.4381 0)
(1.74144 1.43788 0)
(1.74194 1.43768 0)
(1.7425 1.43752 0)
(1.74312 1.43739 0)
(1.7438 1.43731 0)
(1.74453 1.43728 0)
(1.74532 1.43728 0)
(1.74617 1.43733 0)
(1.74706 1.43743 0)
(1.74801 1.43758 0)
(1.749 1.43781 0)
(1.75004 1.43811 0)
(1.75112 1.4385 0)
(1.75225 1.43899 0)
(1.75342 1.43959 0)
(1.75463 1.4403 0)
(1.75589 1.44111 0)
(1.75719 1.44203 0)
(1.75855 1.44303 0)
(1.75994 1.4441 0)
(1.76138 1.44522 0)
(1.76286 1.44637 0)
(1.76436 1.44753 0)
(1.76589 1.44869 0)
(1.76743 1.44981 0)
(1.76897 1.45088 0)
(1.77052 1.45187 0)
(1.77206 1.45276 0)
(1.77358 1.45356 0)
(1.77507 1.45423 0)
(1.77653 1.45479 0)
(1.77794 1.45523 0)
(1.7793 1.45557 0)
(1.78059 1.45582 0)
(1.78183 1.456 0)
(1.78299 1.4561 0)
(1.78409 1.45615 0)
(1.7851 1.45617 0)
(1.78605 1.45619 0)
(1.78691 1.45625 0)
(1.7877 1.45638 0)
(1.7884 1.4566 0)
(1.78901 1.45696 0)
(1.78947 1.45751 0)
(1.7898 1.45824 0)
(1.79004 1.45914 0)
(1.7902 1.46022 0)
(1.79031 1.46148 0)
(1.79038 1.46293 0)
(1.79043 1.46451 0)
(1.79045 1.46613 0)
(1.79045 1.46761 0)
(1.79045 1.46877 0)
(1.79043 1.46946 0)
(1.79159 1.47067 0)
(4.26455 1.76557 0)
(4.26162 1.77588 0)
(4.26156 1.7759 0)
(4.26155 1.77585 0)
(4.26154 1.77569 0)
(4.26153 1.77544 0)
(4.26151 1.77512 0)
(4.2615 1.77479 0)
(4.2615 1.7745 0)
(4.2615 1.77428 0)
(4.26151 1.77414 0)
(4.26151 1.77406 0)
(4.26151 1.77403 0)
(4.26152 1.77403 0)
(4.26152 1.77403 0)
(4.26153 1.77405 0)
(4.26154 1.77407 0)
(4.26155 1.77409 0)
(4.26156 1.77411 0)
(4.26157 1.77412 0)
(4.26158 1.77412 0)