/*--------------------------------*- C++ -*----------------------------------*\
| =========                 |                                                 |
| \\      /  F ield         | OpenFOAM: The Open Source CFD Toolbox           |
|  \\    /   O peration     | Version:  2406                                  |
|   \\  /    A nd           | Website:  www.openfoam.com                      |
|    \\/     M anipulation  |                                                 |
\*---------------------------------------------------------------------------*/
FoamFile
{
    version     2.0;
    format      ascii;
    arch        "LSB;label=32;scalar=64";
    class       volScalarField;
    location    "0.08";
    object      p;
}
// * * * * * * * * * * * * * * * * * * * * * * * * * * * * * * * * * * * * * //

dimensions      [1 -1 -2 0 0 0 0];

internalField   nonuniform List<scalar> 
13948
(
98276.9
101729
102567
102904
102977
102949
102875
102753
102633
102548
102497
102462
102423
102386
102366
102378
102439
102567
102743
102895
102953
102961
102953
102934
102927
102938
102970
103036
103109
103136
103138
103116
103062
102996
102956
102947
102946
102946
102946
102946
102946
102946
102946
102946
102946
102946
102946
102946
102946
102946
102946
102946
102946
102946
102946
102946
102946
102946
102946
102946
102946
102946
102946
102946
102946
102946
102946
102946
102946
102946
102946
102946
102946
102946
102946
102946
102946
102946
102946
102946
102946
102946
102946
102946
102946
102946
102946
102946
102946
102946
102946
102946
102946
102946
102946
102946
102946
102946
102946
102762
101111
102068
102618
102876
102941
102917
102849
102735
102623
102545
102499
102467
102433
102400
102383
102396
102457
102581
102752
102898
102954
102962
102954
102937
102931
102941
102973
103038
103108
103133
103135
103112
103059
102995
102956
102947
102946
102946
102946
102946
102946
102946
102946
102946
102946
102946
102946
102946
102946
102946
102946
102946
102946
102946
102946
102946
102946
102946
102946
102946
102946
102946
102946
102946
102946
102946
102946
102946
102946
102946
102946
102946
102946
102946
102946
102946
102946
102946
102946
102946
102946
102946
102946
102946
102946
102946
102946
102946
102946
102946
102946
102946
102946
102946
102946
102946
102946
102946
102946
102888
102659
102347
102190
102135
102023
101959
102087
102005
102401
101183
102133
102596
102873
102926
102891
102822
102717
102614
102541
102499
102470
102438
102409
102394
102409
102470
102593
102761
102902
102955
102963
102955
102938
102933
102944
102976
103040
103108
103132
103133
103110
103057
102994
102956
102947
102946
102946
102946
102946
102946
102946
102946
102946
102946
102946
102946
102946
102946
102946
102946
102946
102946
102946
102946
102946
102946
102946
102946
102946
102946
102946
102946
102946
102946
102946
102946
102946
102946
102946
102946
102946
102946
102946
102946
102946
102946
102946
102946
102946
102946
102946
102946
102946
102946
102946
102946
102946
102946
102946
102946
102946
102946
102946
102946
102946
102946
102946
102946
99133.4
79448.4
56789.8
46605.1
48336.4
60539.9
75398.3
87098.5
96232.6
102756
106301
107225
106779
105265
103272
101284
99410.5
98066.9
97306.4
97082.6
97230.2
97731
98548.3
99375.9
100259
101105
101824
102316
102762
102959
103053
103050
102978
102841
102670
102423
102259
102153
102076
102024
102164
101976
102214
101842
102403
102634
102841
102897
102867
102798
102697
102602
102536
102499
102472
102444
102417
102406
102422
102485
102607
102771
102907
102956
102964
102956
102940
102936
102946
102979
103042
103109
103130
103131
103107
103054
102992
102955
102947
102946
102946
102946
102946
102946
102946
102946
102946
102946
102946
102946
102946
102946
102946
102946
102946
102946
102946
102946
102946
102946
102946
102946
102946
102946
102946
102946
102946
102946
102946
102946
102946
102946
102946
102946
102946
102946
102946
102946
102946
102946
102946
102946
102946
102946
102946
102946
102946
102946
102946
102946
102946
102946
102946
102946
102946
102946
102946
102946
102946
102946
102946
102946
118510
110537
97579.1
74763.2
51771.3
41155.1
43277.9
56878.1
73022.1
85745.4
94900.4
101333
104753
105910
105876
104878
103319
101804
100228
98926.1
98033.9
97604.2
97507.4
97800.4
98528.9
99360.5
100118
100879
101605
102117
102513
102722
102850
102851
102737
102555
102356
102140
101986
101909
101928
101879
102002
101976
102094
102037
102420
102660
102836
102874
102840
102771
102676
102589
102530
102497
102474
102448
102425
102417
102435
102500
102622
102783
102912
102958
102965
102957
102941
102938
102949
102982
103046
103109
103129
103129
103104
103051
102990
102954
102947
102946
102946
102946
102946
102946
102946
102946
102946
102946
102946
102946
102946
102946
102946
102946
102946
102946
102946
102946
102946
102946
102946
102946
102946
102946
102946
102946
102946
102946
102946
102946
102946
102946
102946
102946
102946
102946
102946
102946
102946
102946
102946
102946
102946
102946
102946
102946
102946
102946
102946
102946
102946
102946
102946
102946
102946
102946
102946
102946
102946
102946
102946
102946
118634
115898
108559
97218.5
77318.2
54460.5
42436.3
43603.6
57054
73727
85567.1
94546.2
99959.8
103150
104523
104720
104180
103091
101902
100760
99724.4
98981.3
98564.9
98399.4
98498.5
98928.7
99647.1
100360
101011
101653
102168
102526
102754
102906
102950
102914
102817
102685
102513
102322
102147
102095
102039
102082
102090
102166
102237
102532
102718
102826
102843
102810
102741
102653
102574
102524
102496
102475
102452
102433
102428
102449
102517
102639
102796
102918
102959
102966
102957
102942
102940
102952
102986
103049
103110
103128
103127
103101
103047
102987
102954
102946
102946
102946
102946
102946
102946
102946
102946
102946
102946
102946
102946
102946
102946
102946
102946
102946
102946
102946
102946
102946
102946
102946
102946
102946
102946
102946
102946
102946
102946
102946
102946
102946
102946
102946
102946
102946
102946
102946
102946
102946
102946
102946
102946
102946
102946
102946
102946
102946
102946
102946
102946
102946
102946
102946
102946
102946
102946
102946
102946
102946
102946
102946
102946
115604
113125
107061
97134.9
82993.1
66213.2
56573.9
54179.4
62405.7
76293
86529.7
94015.1
98991.4
101878
103275
103618
103356
102619
101720
100965
100220
99588.9
99148
98935.7
98981
99263.2
99773.8
100350
100895
101396
101827
102198
102504
102747
102879
102911
102887
102814
102697
102568
102440
102352
102275
102253
102273
102328
102406
102613
102753
102821
102819
102780
102710
102629
102559
102516
102493
102476
102456
102441
102439
102464
102535
102658
102810
102924
102961
102967
102957
102943
102943
102955
102991
103054
103112
103127
103125
103098
103043
102984
102953
102946
102946
102946
102946
102946
102946
102946
102946
102946
102946
102946
102946
102946
102946
102946
102946
102946
102946
102946
102946
102946
102946
102946
102946
102946
102946
102946
102946
102946
102946
102946
102946
102946
102946
102946
102946
102946
102946
102946
102946
102946
102946
102946
102946
102946
102946
102946
102946
102946
102946
102946
102946
102946
102946
102946
102946
102946
102946
102946
102946
102946
102946
102946
102946
112909
110657
105976
98602.3
89343.8
77266.9
70158.4
68601.3
71741.6
80461.5
88377.1
94215.8
98471
100986
102280
102731
102662
102156
101435
100855
100331
99885.4
99582.9
99409.2
99364.5
99534.5
99940.9
100394
100836
101254
101638
102010
102338
102600
102763
102804
102780
102714
102665
102617
102568
102524
102483
102466
102475
102499
102540
102688
102784
102809
102790
102745
102677
102604
102544
102509
102491
102478
102461
102449
102450
102480
102555
102679
102826
102931
102962
102967
102958
102944
102945
102958
102996
103059
103113
103126
103122
103094
103039
102981
102952
102946
102946
102946
102946
102946
102946
102946
102946
102946
102946
102946
102946
102946
102946
102946
102946
102946
102946
102946
102946
102946
102946
102946
102946
102946
102946
102946
102946
102946
102946
102946
102946
102946
102946
102946
102946
102946
102946
102946
102946
102946
102946
102946
102946
102946
102946
102946
102946
102946
102946
102946
102946
102946
102946
102946
102946
102946
102946
102946
102946
102946
102946
102946
102946
110547
108645
105160
99883.8
93604.9
86447.5
81333.9
79254.9
80483.4
85264.3
90695.6
94962.9
98289.3
100397
101577
102088
102163
101867
101300
100809
100400
100047
99815.6
99675.9
99647.3
99771
100074
100502
100905
101304
101677
102011
102289
102505
102658
102718
102715
102681
102631
102603
102599
102605
102604
102603
102608
102619
102640
102741
102791
102790
102759
102708
102643
102577
102528
102502
102489
102479
102466
102457
102463
102497
102577
102701
102842
102938
102964
102968
102958
102946
102948
102962
103001
103064
103114
103126
103120
103089
103034
102978
102951
102946
102946
102946
102946
102946
102946
102946
102946
102946
102946
102946
102946
102946
102946
102946
102946
102946
102946
102946
102946
102946
102946
102946
102946
102946
102946
102946
102946
102946
102946
102946
102946
102946
102946
102946
102946
102946
102946
102946
102946
102946
102946
102946
102946
102946
102946
102946
102946
102946
102946
102946
102946
102946
102946
102946
102946
102946
102946
102946
102946
102946
102946
102946
102946
108664
107102
104544
100872
96491.3
92173.4
88731.6
86937.7
87352.9
89754.3
93232.6
96067.8
98422.4
100121
101178
101695
101851
101720
101344
100916
100549
100228
100022
99901.4
99892.8
100001
100228
100610
100996
101364
101704
102006
102254
102446
102583
102676
102700
102689
102665
102651
102649
102657
102665
102668
102672
102680
102705
102768
102784
102764
102722
102668
102608
102552
102514
102496
102489
102481
102472
102466
102476
102517
102601
102725
102860
102945
102966
102969
102958
102947
102951
102966
103008
103070
103115
103125
103117
103084
103028
102974
102950
102946
102946
102946
102946
102946
102946
102946
102946
102946
102946
102946
102946
102946
102946
102946
102946
102946
102946
102946
102946
102946
102946
102946
102946
102946
102946
102946
102946
102946
102946
102946
102946
102946
102946
102946
102946
102946
102946
102946
102946
102946
102946
102946
102946
102946
102946
102946
102946
102946
102946
102946
102946
102946
102946
102946
102946
102946
102946
102946
102946
102946
102946
102946
102946
107246
105956
104044
101482
98531.2
95810.5
93529.6
92311.3
92206.8
93266
95365
97142.3
98692.5
99976.4
100878
101411
101644
101655
101454
101107
100807
100543
100333
100217
100193
100263
100419
100721
101058
101375
101675
101954
102187
102370
102506
102607
102679
102709
102715
102712
102706
102701
102698
102698
102701
102711
102736
102769
102759
102722
102675
102625
102572
102527
102501
102491
102488
102484
102478
102476
102492
102539
102627
102752
102878
102952
102968
102969
102959
102948
102954
102971
103015
103077
103116
103124
103114
103079
103021
102970
102949
102946
102946
102946
102946
102946
102946
102946
102946
102946
102946
102946
102946
102946
102946
102946
102946
102946
102946
102946
102946
102946
102946
102946
102946
102946
102946
102946
102946
102946
102946
102946
102946
102946
102946
102946
102946
102946
102946
102946
102946
102946
102946
102946
102946
102946
102946
102946
102946
102946
102946
102946
102946
102946
102946
102946
102946
102946
102946
102946
102946
102946
102946
102946
102946
106208
105166
103727
101936
99971.6
98095.5
96534.7
95631.5
95323
95746.3
96924.9
98062.1
99083.2
100017
100725
101202
101472
101574
101496
101275
101040
100828
100640
100530
100493
100529
100628
100829
101091
101350
101595
101831
102044
102223
102369
102486
102578
102651
102705
102733
102735
102723
102711
102708
102710
102720
102737
102742
102711
102668
102627
102583
102539
102506
102490
102488
102489
102488
102485
102488
102510
102564
102656
102780
102896
102958
102970
102970
102959
102950
102957
102977
103023
103084
103117
103123
103110
103072
103014
102967
102948
102946
102946
102946
102946
102946
102946
102946
102946
102946
102946
102946
102946
102946
102946
102946
102946
102946
102946
102946
102946
102946
102946
102946
102946
102946
102946
102946
102946
102946
102946
102946
102946
102946
102946
102946
102946
102946
102946
102946
102946
102946
102946
102946
102946
102946
102946
102946
102946
102946
102946
102946
102946
102946
102946
102946
102946
102946
102946
102946
102946
102946
102946
102946
102946
105479
104649
103578
102309
100966
99666.6
98608.5
97908.3
97595.1
97670.4
98209.3
98949.9
99593.7
100222
100740
101099
101325
101436
101422
101304
101137
100991
100853
100765
100729
100741
100791
100905
101089
101281
101463
101640
101815
101982
102135
102272
102392
102492
102567
102617
102649
102667
102671
102673
102679
102689
102695
102679
102644
102611
102578
102540
102506
102486
102481
102486
102492
102494
102494
102503
102531
102592
102688
102809
102914
102963
102973
102970
102959
102953
102961
102983
103032
103091
103118
103122
103106
103065
103007
102963
102948
102946
102946
102946
102946
102946
102946
102946
102946
102946
102946
102946
102946
102946
102946
102946
102946
102946
102946
102946
102946
102946
102946
102946
102946
102946
102946
102946
102946
102946
102946
102946
102946
102946
102946
102946
102946
102946
102946
102946
102946
102946
102946
102946
102946
102946
102946
102946
102946
102946
102946
102946
102946
102946
102946
102946
102946
102946
102946
102946
102946
102946
102946
102946
102946
104995
104324
103529
102622
101680
100790
100050
99515.8
99236.4
99170.7
99363.8
99792.2
100168
100548
100895
101142
101291
101361
101347
101276
101169
101068
100976
100911
100880
100879
100897
100954
101076
101216
101348
101478
101614
101754
101894
102026
102148
102256
102346
102417
102470
102507
102537
102561
102580
102595
102600
102593
102576
102557
102531
102501
102478
102470
102476
102488
102497
102502
102506
102520
102556
102623
102723
102840
102931
102967
102975
102970
102959
102955
102965
102991
103042
103098
103118
103120
103101
103056
102998
102959
102947
102946
102946
102946
102946
102946
102946
102946
102946
102946
102946
102946
102946
102946
102946
102946
102946
102946
102946
102946
102946
102946
102946
102946
102946
102946
102946
102946
102946
102946
102946
102946
102946
102946
102946
102946
102946
102946
102946
102946
102946
102946
102946
102946
102946
102946
102946
102946
102946
102946
102946
102946
102946
102946
102946
102946
102946
102946
102946
102946
102946
102946
102946
102946
102946
104707
104147
103538
102882
102213
101590
101056
100655
100411
100309
100337
100520
100734
100932
101132
101279
101366
101399
101370
101309
101236
101155
101085
101024
100982
100966
100967
100990
101065
101178
101292
101408
101527
101646
101763
101872
101972
102061
102141
102212
102277
102335
102385
102424
102455
102480
102499
102514
102515
102504
102482
102461
102453
102459
102475
102493
102505
102512
102520
102541
102585
102658
102760
102870
102947
102971
102977
102970
102959
102959
102970
103000
103054
103104
103119
103117
103094
103046
102990
102955
102947
102946
102946
102946
102946
102946
102946
102946
102946
102946
102946
102946
102946
102946
102946
102946
102946
102946
102946
102946
102946
102946
102946
102946
102946
102946
102946
102946
102946
102946
102946
102946
102946
102946
102946
102946
102946
102946
102946
102946
102946
102946
102946
102946
102946
102946
102946
102946
102946
102946
102946
102946
102946
102946
102946
102946
102946
102946
102946
102946
102946
102946
102946
102946
102946
104548
104080
103595
103103
102617
102164
101773
101468
101260
101149
101113
101160
101261
101343
101432
101502
101535
101527
101485
101416
101353
101269
101197
101132
101080
101048
101036
101039
101078
101167
101270
101377
101487
101595
101699
101796
101884
101962
102032
102098
102160
102217
102270
102318
102359
102392
102423
102450
102456
102447
102434
102429
102438
102458
102482
102504
102516
102525
102538
102566
102618
102698
102800
102899
102959
102975
102978
102969
102959
102962
102976
103011
103066
103109
103119
103114
103086
103035
102981
102952
102946
102946
102946
102946
102946
102946
102946
102946
102946
102946
102946
102946
102946
102946
102946
102946
102946
102946
102946
102946
102946
102946
102946
102946
102946
102946
102946
102946
102946
102946
102946
102946
102946
102946
102946
102946
102946
102946
102946
102946
102946
102946
102946
102946
102946
102946
102946
102946
102946
102946
102946
102946
102946
102946
102946
102946
102946
102946
102946
102946
102946
102946
102946
102946
102946
104439
104061
103679
103298
102932
102593
102298
102059
101883
101772
101718
101708
101736
101764
101782
101797
101792
101760
101702
101626
101541
101446
101360
101282
101213
101161
101134
101126
101143
101201
101287
101385
101486
101584
101677
101763
101840
101911
101977
102039
102099
102157
102210
102259
102299
102331
102362
102387
102392
102392
102395
102410
102434
102465
102495
102517
102530
102542
102561
102597
102656
102741
102841
102926
102969
102979
102979
102968
102960
102967
102984
103024
103079
103113
103120
103110
103076
103022
102972
102950
102946
102946
102946
102946
102946
102946
102946
102946
102946
102946
102946
102946
102946
102946
102946
102946
102946
102946
102946
102946
102946
102946
102946
102946
102946
102946
102946
102946
102946
102946
102946
102946
102946
102946
102946
102946
102946
102946
102946
102946
102946
102946
102946
102946
102946
102946
102946
102946
102946
102946
102946
102946
102946
102946
102946
102946
102946
102946
102946
102946
102946
102946
102946
102946
102946
104323
104030
103735
103450
103175
102921
102695
102505
102354
102246
102181
102150
102144
102147
102141
102129
102102
102056
101990
101904
101803
101694
101590
101497
101413
101345
101301
101281
101282
101306
101360
101432
101514
101597
101678
101754
101825
101892
101954
102014
102070
102123
102170
102210
102243
102269
102296
102320
102337
102354
102377
102408
102445
102484
102515
102535
102548
102563
102589
102634
102701
102788
102881
102949
102976
102983
102978
102967
102963
102972
102994
103039
103092
103115
103119
103104
103064
103008
102964
102948
102946
102946
102946
102946
102946
102946
102946
102946
102946
102946
102946
102946
102946
102946
102946
102946
102946
102946
102946
102946
102946
102946
102946
102946
102946
102946
102946
102946
102946
102946
102946
102946
102946
102946
102946
102946
102946
102946
102946
102946
102946
102946
102946
102946
102946
102946
102946
102946
102946
102946
102946
102946
102946
102946
102946
102946
102946
102946
102946
102946
102946
102946
102946
102946
102946
104187
103960
103736
103524
103327
103143
102977
102831
102709
102611
102540
102496
102474
102464
102456
102440
102413
102371
102309
102228
102129
102019
101911
101812
101721
101642
101580
101538
101515
101509
101521
101551
101595
101649
101707
101767
101828
101887
101942
101995
102044
102088
102127
102160
102188
102212
102241
102275
102308
102343
102382
102425
102471
102511
102538
102555
102570
102591
102625
102677
102750
102837
102918
102968
102982
102985
102977
102966
102967
102978
103007
103056
103103
103117
103116
103095
103049
102994
102958
102947
102946
102946
102946
102946
102946
102946
102946
102946
102946
102946
102946
102946
102946
102946
102946
102946
102946
102946
102946
102946
102946
102946
102946
102946
102946
102946
102946
102946
102946
102946
102946
102946
102946
102946
102946
102946
102946
102946
102946
102946
102946
102946
102946
102946
102946
102946
102946
102946
102946
102946
102946
102946
102946
102946
102946
102946
102946
102946
102946
102946
102946
102946
102946
102946
102946
104063
103868
103688
103522
103377
103249
103135
103034
102945
102868
102804
102755
102723
102704
102693
102683
102669
102645
102606
102550
102478
102391
102297
102204
102115
102030
101954
101889
101836
101795
101766
101754
101755
101769
101793
101827
101867
101910
101954
101996
102034
102069
102101
102130
102157
102182
102219
102267
102314
102362
102412
102463
102509
102542
102564
102580
102598
102626
102668
102729
102805
102886
102949
102980
102988
102986
102975
102967
102972
102987
103023
103074
103111
103119
103112
103083
103032
102980
102952
102946
102946
102946
102946
102946
102946
102946
102946
102946
102946
102946
102946
102946
102946
102946
102946
102946
102946
102946
102946
102946
102946
102946
102946
102946
102946
102946
102946
102946
102946
102946
102946
102946
102946
102946
102946
102946
102946
102946
102946
102946
102946
102946
102946
102946
102946
102946
102946
102946
102946
102946
102946
102946
102946
102946
102946
102946
102946
102946
102946
102946
102946
102946
102946
102946
102946
103991
103805
103640
103498
103376
103277
103195
103126
103067
103014
102966
102924
102889
102863
102845
102832
102821
102808
102788
102759
102718
102666
102603
102533
102460
102384
102308
102235
102167
102106
102054
102012
101981
101964
101958
101962
101973
101993
102017
102044
102071
102099
102126
102153
102180
102207
102248
102304
102358
102413
102467
102515
102551
102576
102593
102610
102634
102670
102721
102786
102861
102929
102973
102989
102992
102984
102973
102970
102978
103000
103043
103093
103116
103119
103105
103067
103013
102967
102949
102946
102946
102946
102946
102946
102946
102946
102946
102946
102946
102946
102946
102946
102946
102946
102946
102946
102946
102946
102946
102946
102946
102946
102946
102946
102946
102946
102946
102946
102946
102946
102946
102946
102946
102946
102946
102946
102946
102946
102946
102946
102946
102946
102946
102946
102946
102946
102946
102946
102946
102946
102946
102946
102946
102946
102946
102946
102946
102946
102946
102946
102946
102946
102946
102946
102946
103984
103799
103633
103493
103377
103284
103212
103156
103113
103077
103046
103016
102987
102961
102938
102920
102904
102890
102873
102853
102827
102794
102755
102709
102659
102604
102546
102486
102427
102371
102318
102272
102232
102200
102177
102161
102154
102153
102157
102168
102183
102201
102222
102245
102270
102295
102335
102388
102440
102489
102534
102569
102593
102611
102627
102649
102680
102725
102781
102848
102914
102965
102989
102996
102992
102980
102971
102974
102987
103018
103066
103108
103119
103116
103093
103047
102992
102957
102947
102946
102946
102946
102946
102946
102946
102946
102946
102946
102946
102946
102946
102946
102946
102946
102946
102946
102946
102946
102946
102946
102946
102946
102946
102946
102946
102946
102946
102946
102946
102946
102946
102946
102946
102946
102946
102946
102946
102946
102946
102946
102946
102946
102946
102946
102946
102946
102946
102946
102946
102946
102946
102946
102946
102946
102946
102946
102946
102946
102946
102946
102946
102946
102946
102946
102946
104026
103842
103673
103524
103400
103302
103227
103172
103132
103102
103080
103060
103040
103020
103000
102980
102962
102945
102928
102909
102888
102863
102835
102803
102768
102731
102691
102650
102608
102567
102527
102491
102457
102428
102404
102384
102370
102361
102357
102357
102362
102371
102383
102398
102414
102432
102459
102497
102534
102568
102597
102618
102635
102650
102671
102700
102739
102789
102848
102908
102959
102990
103000
102999
102989
102977
102974
102981
103001
103041
103090
103116
103120
103109
103075
103022
102974
102951
102946
102946
102946
102946
102946
102946
102946
102946
102946
102946
102946
102946
102946
102946
102946
102946
102946
102946
102946
102946
102946
102946
102946
102946
102946
102946
102946
102946
102946
102946
102946
102946
102946
102946
102946
102946
102946
102946
102946
102946
102946
102946
102946
102946
102946
102946
102946
102946
102946
102946
102946
102946
102946
102946
102946
102946
102946
102946
102946
102946
102946
102946
102946
102946
102946
102946
102946
104100
103931
103767
103614
103478
103364
103273
103205
103156
103122
103099
103083
103069
103055
103041
103026
103010
102994
102977
102960
102941
102920
102898
102874
102848
102821
102793
102765
102736
102707
102680
102654
102630
102608
102589
102573
102560
102550
102543
102540
102539
102540
102543
102548
102554
102562
102575
102595
102616
102635
102652
102666
102681
102701
102728
102764
102809
102861
102915
102962
102993
103004
103004
102996
102983
102975
102979
102992
103023
103070
103110
103121
103118
103095
103050
102996
102960
102947
102946
102946
102946
102946
102946
102946
102946
102946
102946
102946
102946
102946
102946
102946
102946
102946
102946
102946
102946
102946
102946
102946
102946
102946
102946
102946
102946
102946
102946
102946
102946
102946
102946
102946
102946
102946
102946
102946
102946
102946
102946
102946
102946
102946
102946
102946
102946
102946
102946
102946
102946
102946
102946
102946
102946
102946
102946
102946
102946
102946
102946
102946
102946
102946
102946
102946
102946
104152
104015
103878
103741
103609
103489
103384
103297
103228
103176
103140
103114
103097
103084
103073
103062
103050
103037
103024
103009
102993
102976
102958
102939
102919
102898
102877
102856
102834
102813
102792
102772
102753
102736
102720
102706
102694
102684
102676
102670
102665
102662
102660
102659
102659
102660
102665
102674
102686
102697
102709
102723
102742
102769
102802
102842
102887
102933
102973
102999
103009
103008
103001
102988
102979
102979
102988
103011
103053
103099
103120
103122
103108
103072
103020
102973
102951
102946
102946
102946
102946
102946
102946
102946
102946
102946
102946
102946
102946
102946
102946
102946
102946
102946
102946
102946
102946
102946
102946
102946
102946
102946
102946
102946
102946
102946
102946
102946
102946
102946
102946
102946
102946
102946
102946
102946
102946
102946
102946
102946
102946
102946
102946
102946
102946
102946
102946
102946
102946
102946
102946
102946
102946
102946
102946
102946
102946
102946
102946
102946
102946
102946
102946
102946
102946
104150
104047
103941
103834
103728
103625
103526
103436
103357
103291
103238
103198
103167
103144
103127
103113
103101
103090
103078
103066
103053
103039
103024
103009
102993
102976
102959
102942
102924
102907
102889
102872
102856
102840
102826
102812
102800
102789
102779
102770
102763
102757
102753
102749
102747
102746
102747
102751
102759
102769
102782
102800
102824
102854
102890
102927
102962
102992
103009
103014
103012
103004
102992
102983
102981
102988
103006
103042
103089
103119
103124
103116
103088
103040
102988
102957
102947
102946
102946
102946
102946
102946
102946
102946
102946
102946
102946
102946
102946
102946
102946
102946
102946
102946
102946
102946
102946
102946
102946
102946
102946
102946
102946
102946
102946
102946
102946
102946
102946
102946
102946
102946
102946
102946
102946
102946
102946
102946
102946
102946
102946
102946
102946
102946
102946
102946
102946
102946
102946
102946
102946
102946
102946
102946
102946
102946
102946
102946
102946
102946
102946
102946
102946
102946
102946
104077
104011
103936
103858
103779
103700
103623
103549
103479
103416
103360
103313
103273
103241
103216
103195
103178
103164
103151
103139
103127
103115
103103
103090
103077
103063
103049
103035
103021
103006
102992
102977
102963
102948
102935
102922
102909
102898
102887
102877
102869
102862
102856
102852
102849
102847
102846
102847
102854
102864
102879
102899
102923
102948
102974
102997
103012
103017
103018
103015
103006
102995
102987
102985
102990
103005
103037
103082
103117
103125
103121
103099
103055
103003
102964
102949
102946
102946
102946
102946
102946
102946
102946
102946
102946
102946
102946
102946
102946
102946
102946
102946
102946
102946
102946
102946
102946
102946
102946
102946
102946
102946
102946
102946
102946
102946
102946
102946
102946
102946
102946
102946
102946
102946
102946
102946
102946
102946
102946
102946
102946
102946
102946
102946
102946
102946
102946
102946
102946
102946
102946
102946
102946
102946
102946
102946
102946
102946
102946
102946
102946
102946
102946
102946
102946
103968
103924
103875
103821
103763
103703
103646
103590
103537
103486
103438
103395
103357
103324
103296
103272
103253
103237
103223
103211
103200
103190
103180
103169
103159
103149
103138
103127
103115
103104
103092
103081
103069
103058
103047
103036
103025
103015
103006
102998
102990
102983
102978
102973
102969
102966
102964
102963
102966
102973
102983
102995
103006
103016
103021
103023
103023
103021
103015
103006
102997
102990
102989
102995
103009
103040
103082
103117
103125
103123
103104
103065
103013
102970
102951
102946
102946
102946
102946
102946
102946
102946
102946
102946
102946
102946
102946
102946
102946
102946
102946
102946
102946
102946
102946
102946
102946
102946
102946
102946
102946
102946
102946
102946
102946
102946
102946
102946
102946
102946
102946
102946
102946
102946
102946
102946
102946
102946
102946
102946
102946
102946
102946
102946
102946
102946
102946
102946
102946
102946
102946
102946
102946
102946
102946
102946
102946
102946
102946
102946
102946
102946
102946
102946
102946
103894
103850
103806
103762
103716
103669
103622
103575
103531
103489
103450
103415
103383
103355
103330
103309
103292
103277
103264
103253
103243
103234
103225
103216
103207
103198
103189
103181
103172
103163
103155
103146
103138
103130
103122
103115
103108
103101
103094
103088
103082
103077
103071
103067
103062
103058
103053
103048
103044
103041
103039
103037
103035
103033
103031
103027
103021
103014
103006
102999
102996
102996
103002
103018
103049
103088
103119
103126
103124
103106
103068
103018
102975
102952
102947
102946
102946
102946
102946
102946
102946
102946
102946
102946
102946
102946
102946
102946
102946
102946
102946
102946
102946
102946
102946
102946
102946
102946
102946
102946
102946
102946
102946
102946
102946
102946
102946
102946
102946
102946
102946
102946
102946
102946
102946
102946
102946
102946
102946
102946
102946
102946
102946
102946
102946
102946
102946
102946
102946
102946
102946
102946
102946
102946
102946
102946
102946
102946
102946
102946
102946
102946
102946
102946
102946
103832
103804
103766
103726
103684
103643
103601
103559
103518
103477
103440
103406
103375
103348
103325
103304
103286
103271
103258
103247
103238
103231
103224
103218
103213
103207
103202
103196
103191
103184
103178
103172
103165
103159
103152
103145
103139
103132
103126
103119
103113
103107
103102
103096
103091
103086
103079
103071
103064
103057
103051
103044
103038
103032
103026
103019
103012
103007
103004
103003
103006
103015
103034
103065
103099
103121