/*--------------------------------*- C++ -*----------------------------------*\
| =========                 |                                                 |
| \\      /  F ield         | OpenFOAM: The Open Source CFD Toolbox           |
|  \\    /   O peration     | Version:  2406                                  |
|   \\  /    A nd           | Website:  www.openfoam.com                      |
|    \\/     M anipulation  |                                                 |
\*---------------------------------------------------------------------------*/
FoamFile
{
    version     2.0;
    format      ascii;
    arch        "LSB;label=32;scalar=64";
    class       volScalarField;
    location    "0.08";
    object      rho;
}
// * * * * * * * * * * * * * * * * * * * * * * * * * * * * * * * * * * * * * //

dimensions      [1 -3 0 0 0 0 0];

internalField   nonuniform List<scalar> 
13948
(
1.13605
1.19955
1.21596
1.22081
1.22189
1.2217
1.22092
1.2197
1.2186
1.21785
1.21742
1.21713
1.21682
1.21651
1.21634
1.21644
1.21696
1.21804
1.21953
1.22082
1.22131
1.22138
1.22131
1.22115
1.22109
1.22118
1.22146
1.22202
1.22263
1.22286
1.22288
1.22269
1.22223
1.22168
1.22134
1.22126
1.22125
1.22125
1.22125
1.22125
1.22125
1.22125
1.22125
1.22125
1.22125
1.22125
1.22125
1.22125
1.22125
1.22125
1.22125
1.22125
1.22125
1.22125
1.22125
1.22125
1.22125
1.22125
1.22125
1.22125
1.22125
1.22125
1.22125
1.22125
1.22125
1.22125
1.22125
1.22125
1.22125
1.22125
1.22125
1.22125
1.22125
1.22125
1.22125
1.22125
1.22125
1.22125
1.22125
1.22125
1.22125
1.22125
1.22125
1.22125
1.22125
1.22125
1.22125
1.22125
1.22125
1.22125
1.22125
1.22125
1.22125
1.22125
1.22125
1.22125
1.22125
1.22125
1.22125
1.15487
1.17357
1.20398
1.2164
1.22052
1.22154
1.22139
1.22068
1.21955
1.21851
1.21783
1.21744
1.21718
1.2169
1.21662
1.21648
1.21659
1.2171
1.21816
1.21961
1.22085
1.22132
1.22139
1.22132
1.22117
1.22112
1.22121
1.22148
1.22203
1.22262
1.22284
1.22285
1.22266
1.22221
1.22167
1.22134
1.22126
1.22125
1.22125
1.22125
1.22125
1.22125
1.22125
1.22125
1.22125
1.22125
1.22125
1.22125
1.22125
1.22125
1.22125
1.22125
1.22125
1.22125
1.22125
1.22125
1.22125
1.22125
1.22125
1.22125
1.22125
1.22125
1.22125
1.22125
1.22125
1.22125
1.22125
1.22125
1.22125
1.22125
1.22125
1.22125
1.22125
1.22125
1.22125
1.22125
1.22125
1.22125
1.22125
1.22125
1.22125
1.22125
1.22125
1.22125
1.22125
1.22125
1.22125
1.22125
1.22125
1.22125
1.22125
1.22125
1.22125
1.22125
1.22125
1.22125
1.22125
1.22125
1.22125
1.22125
1.1157
1.11323
1.11212
1.11477
1.1208
1.12956
1.14228
1.15949
1.17593
1.19244
1.19045
1.20749
1.2164
1.2204
1.2213
1.22109
1.2204
1.21938
1.21843
1.2178
1.21745
1.21721
1.21695
1.2167
1.21658
1.2167
1.21722
1.21826
1.21968
1.22088
1.22133
1.2214
1.22133
1.22119
1.22114
1.22123
1.2215
1.22205
1.22262
1.22283
1.22284
1.22264
1.22219
1.22165
1.22133
1.22126
1.22125
1.22125
1.22125
1.22125
1.22125
1.22125
1.22125
1.22125
1.22125
1.22125
1.22125
1.22125
1.22125
1.22125
1.22125
1.22125
1.22125
1.22125
1.22125
1.22125
1.22125
1.22125
1.22125
1.22125
1.22125
1.22125
1.22125
1.22125
1.22125
1.22125
1.22125
1.22125
1.22125
1.22125
1.22125
1.22125
1.22125
1.22125
1.22125
1.22125
1.22125
1.22125
1.22125
1.22125
1.22125
1.22125
1.22125
1.22125
1.22125
1.22125
1.22125
1.22125
1.22125
1.22125
1.22125
1.22125
1.22125
1.22125
1.22125
1.22125
1.22125
1.22125
1.22125
1.05856
0.875023
0.675661
0.578938
0.588418
0.710576
0.860149
0.982767
1.08148
1.15367
1.19503
1.20987
1.21022
1.19881
1.18048
1.15988
1.13905
1.12277
1.11264
1.10903
1.11036
1.11625
1.1263
1.13718
1.14815
1.15795
1.16506
1.16818
1.16911
1.16715
1.16444
1.16179
1.15979
1.15808
1.15702
1.15717
1.16028
1.16594
1.17366
1.18287
1.19384
1.20055
1.20735
1.20608
1.21311
1.21725
1.2201
1.22095
1.22078
1.22014
1.21919
1.21833
1.21777
1.21745
1.21723
1.21699
1.21677
1.21667
1.21681
1.21734
1.21838
1.21977
1.22092
1.22134
1.2214
1.22133
1.2212
1.22116
1.22125
1.22153
1.22207
1.22263
1.22281
1.22282
1.22262
1.22217
1.22164
1.22133
1.22126
1.22125
1.22125
1.22125
1.22125
1.22125
1.22125
1.22125
1.22125
1.22125
1.22125
1.22125
1.22125
1.22125
1.22125
1.22125
1.22125
1.22125
1.22125
1.22125
1.22125
1.22125
1.22125
1.22125
1.22125
1.22125
1.22125
1.22125
1.22125
1.22125
1.22125
1.22125
1.22125
1.22125
1.22125
1.22125
1.22125
1.22125
1.22125
1.22125
1.22125
1.22125
1.22125
1.22125
1.22125
1.22125
1.22125
1.22125
1.22125
1.22125
1.22125
1.22125
1.22125
1.22125
1.22125
1.22125
1.22125
1.22125
1.22125
1.22125
1.22125
1.22125
1.22125
1.22125
1.31618
1.20799
1.05827
0.83343
0.616251
0.512666
0.526461
0.658984
0.825146
0.96405
1.06898
1.1468
1.19273
1.21317
1.21894
1.21439
1.20319
1.19038
1.1758
1.16285
1.15327
1.14824
1.14703
1.14989
1.1571
1.16571
1.1738
1.18167
1.18863
1.19277
1.19474
1.19445
1.19344
1.19184
1.19005
1.18829
1.18719
1.18708
1.18874
1.19212
1.19693
1.20129
1.20653
1.2093
1.21174
1.21173
1.21544
1.21816
1.22011
1.22065
1.22046
1.21985
1.21899
1.21822
1.21772
1.21744
1.21725
1.21703
1.21684
1.21677
1.21693
1.21747
1.21851
1.21987
1.22096
1.22135
1.22141
1.22134
1.22121
1.22118
1.22128
1.22156
1.22209
1.22263
1.2228
1.2228
1.22259
1.22214
1.22162
1.22132
1.22126
1.22125
1.22125
1.22125
1.22125
1.22125
1.22125
1.22125
1.22125
1.22125
1.22125
1.22125
1.22125
1.22125
1.22125
1.22125
1.22125
1.22125
1.22125
1.22125
1.22125
1.22125
1.22125
1.22125
1.22125
1.22125
1.22125
1.22125
1.22125
1.22125
1.22125
1.22125
1.22125
1.22125
1.22125
1.22125
1.22125
1.22125
1.22125
1.22125
1.22125
1.22125
1.22125
1.22125
1.22125
1.22125
1.22125
1.22125
1.22125
1.22125
1.22125
1.22125
1.22125
1.22125
1.22125
1.22125
1.22125
1.22125
1.22125
1.22125
1.22125
1.22125
1.22125
1.22125
1.34932
1.31168
1.21705
1.07924
0.86951
0.643981
0.521567
0.527625
0.655424
0.82865
0.96598
1.07414
1.14581
1.19066
1.21307
1.22049
1.2195
1.21283
1.20412
1.19497
1.18609
1.17925
1.1751
1.17335
1.17411
1.17788
1.18434
1.1909
1.19695
1.20277
1.20714
1.20967
1.2107
1.21093
1.21043
1.20965
1.20868
1.20781
1.2072
1.20697
1.20727
1.20877
1.21014
1.21197
1.21293
1.21396
1.21478
1.21738
1.21908
1.22011
1.22034
1.22013
1.21955
1.21878
1.2181
1.21767
1.21743
1.21726
1.21707
1.21691
1.21686
1.21704
1.21761
1.21865
1.21998
1.22101
1.22136
1.22142
1.22134
1.22122
1.2212
1.2213
1.22159
1.22213
1.22264
1.22279
1.22278
1.22257
1.22211
1.2216
1.22132
1.22126
1.22125
1.22125
1.22125
1.22125
1.22125
1.22125
1.22125
1.22125
1.22125
1.22125
1.22125
1.22125
1.22125
1.22125
1.22125
1.22125
1.22125
1.22125
1.22125
1.22125
1.22125
1.22125
1.22125
1.22125
1.22125
1.22125
1.22125
1.22125
1.22125
1.22125
1.22125
1.22125
1.22125
1.22125
1.22125
1.22125
1.22125
1.22125
1.22125
1.22125
1.22125
1.22125
1.22125
1.22125
1.22125
1.22125
1.22125
1.22125
1.22125
1.22125
1.22125
1.22125
1.22125
1.22125
1.22125
1.22125
1.22125
1.22125
1.22125
1.22125
1.22125
1.22125
1.22125
1.32697
1.30115
1.23197
1.11448
0.952265
0.774484
0.668912
0.64733
0.731241
0.877308
0.997807
1.09029
1.15397
1.19243
1.2125
1.21967
1.21976
1.21514
1.20852
1.20268
1.19658
1.19114
1.18714
1.18511
1.18538
1.18775
1.19216
1.19717
1.20196
1.20635
1.21001
1.21297
1.21522
1.21686
1.21753
1.21754
1.21723
1.21667
1.21595
1.21534
1.21486
1.21476
1.21469
1.21495
1.2154
1.21598
1.21672
1.21846
1.2196
1.22015
1.22014
1.21983
1.21925
1.21856
1.21797
1.21761
1.21741
1.21727
1.2171
1.21697
1.21695
1.21717
1.21777
1.21881
1.2201
1.22107
1.22138
1.22142
1.22135
1.22123
1.22122
1.22133
1.22163
1.22216
1.22265
1.22279
1.22276
1.22254
1.22208
1.22158
1.22131
1.22125
1.22125
1.22125
1.22125
1.22125
1.22125
1.22125
1.22125
1.22125
1.22125
1.22125
1.22125
1.22125
1.22125
1.22125
1.22125
1.22125
1.22125
1.22125
1.22125
1.22125
1.22125
1.22125
1.22125
1.22125
1.22125
1.22125
1.22125
1.22125
1.22125
1.22125
1.22125
1.22125
1.22125
1.22125
1.22125
1.22125
1.22125
1.22125
1.22125
1.22125
1.22125
1.22125
1.22125
1.22125
1.22125
1.22125
1.22125
1.22125
1.22125
1.22125
1.22125
1.22125
1.22125
1.22125
1.22125
1.22125
1.22125
1.22125
1.22125
1.22125
1.22125
1.22125
1.22125
1.30502
1.28589
1.24097
1.16189
1.0545
0.92143
0.841873
0.827335
0.864956
0.958179
1.04751
1.11645
1.16599
1.19568
1.21144
1.21763
1.21817
1.21454
1.20871
1.20388
1.19943
1.19561
1.19295
1.19133
1.19089
1.19232
1.19574
1.1996
1.20339
1.20696
1.21021
1.21331
1.21597
1.21803
1.21923
1.21944
1.21918
1.21861
1.21825
1.21795
1.21767
1.21746
1.21728
1.21729
1.21746
1.2177
1.21803
1.21921
1.21994
1.22011
1.21991
1.21952
1.21896
1.21834
1.21784
1.21755
1.2174
1.21728
1.21714
1.21704
1.21705
1.2173
1.21794
1.21899
1.22023
1.22113
1.22139
1.22143
1.22135
1.22124
1.22124
1.22136
1.22167
1.2222
1.22266
1.22278
1.22275
1.2225
1.22204
1.22155
1.2213
1.22125
1.22125
1.22125
1.22125
1.22125
1.22125
1.22125
1.22125
1.22125
1.22125
1.22125
1.22125
1.22125
1.22125
1.22125
1.22125
1.22125
1.22125
1.22125
1.22125
1.22125
1.22125
1.22125
1.22125
1.22125
1.22125
1.22125
1.22125
1.22125
1.22125
1.22125
1.22125
1.22125
1.22125
1.22125
1.22125
1.22125
1.22125
1.22125
1.22125
1.22125
1.22125
1.22125
1.22125
1.22125
1.22125
1.22125
1.22125
1.22125
1.22125
1.22125
1.22125
1.22125
1.22125
1.22125
1.22125
1.22125
1.22125
1.22125
1.22125
1.22125
1.22125
1.22125
1.22125
1.28514
1.26976
1.24008
1.19107
1.1265
1.04935
0.992753
0.97158
0.987474
1.03756
1.09514
1.14108
1.17574
1.19744
1.20953
1.21479
1.21571
1.21324
1.20836
1.20407
1.2005
1.19746
1.19547
1.19424
1.19396
1.19499
1.19751
1.2011
1.20448
1.2078
1.21091
1.21374
1.21609
1.21788
1.21912
1.21955
1.21948
1.21915
1.21869
1.21846
1.21845
1.21852
1.21855
1.21857
1.21863
1.21872
1.21886
1.21965
1.22002
1.21996
1.21966
1.21921
1.21866
1.21812
1.21771
1.21749
1.21738
1.21729
1.21718
1.21711
1.21716
1.21745
1.21812
1.21918
1.22037
1.22119
1.2214
1.22144
1.22135
1.22125
1.22127
1.22139
1.22172
1.22225
1.22267
1.22277
1.22272
1.22247
1.22199
1.22152
1.22129
1.22125
1.22125
1.22125
1.22125
1.22125
1.22125
1.22125
1.22125
1.22125
1.22125
1.22125
1.22125
1.22125
1.22125
1.22125
1.22125
1.22125
1.22125
1.22125
1.22125
1.22125
1.22125
1.22125
1.22125
1.22125
1.22125
1.22125
1.22125
1.22125
1.22125
1.22125
1.22125
1.22125
1.22125
1.22125
1.22125
1.22125
1.22125
1.22125
1.22125
1.22125
1.22125
1.22125
1.22125
1.22125
1.22125
1.22125
1.22125
1.22125
1.22125
1.22125
1.22125
1.22125
1.22125
1.22125
1.22125
1.22125
1.22125
1.22125
1.22125
1.22125
1.22125
1.22125
1.22125
1.26928
1.25644
1.23528
1.2035
1.16361
1.12209
1.08784
1.07057
1.07562
1.09921
1.13297
1.16032
1.18246
1.19811
1.20762
1.21206
1.21326
1.21201
1.20865
1.2049
1.20171
1.1989
1.1971
1.19604
1.19595
1.19686
1.19879
1.20201
1.20523
1.20828
1.21113
1.2137
1.21581
1.21744
1.2186
1.21935
1.21951
1.21935
1.21911
1.21898
1.21896
1.21903
1.21908
1.21909
1.2191
1.21914
1.21933
1.21983
1.21994
1.21973
1.21935
1.21888
1.21838
1.21791
1.21759
1.21744
1.21738
1.21731
1.21723
1.21718
1.21727
1.21762
1.21833
1.21938
1.22052
1.22124
1.22142
1.22144
1.22136
1.22126
1.22129
1.22142
1.22177
1.2223
1.22268
1.22277
1.2227
1.22242
1.22194
1.22149
1.22129
1.22125
1.22125
1.22125
1.22125
1.22125
1.22125
1.22125
1.22125
1.22125
1.22125
1.22125
1.22125
1.22125
1.22125
1.22125
1.22125
1.22125
1.22125
1.22125
1.22125
1.22125
1.22125
1.22125
1.22125
1.22125
1.22125
1.22125
1.22125
1.22125
1.22125
1.22125
1.22125
1.22125
1.22125
1.22125
1.22125
1.22125
1.22125
1.22125
1.22125
1.22125
1.22125
1.22125
1.22125
1.22125
1.22125
1.22125
1.22125
1.22125
1.22125
1.22125
1.22125
1.22125
1.22125
1.22125
1.22125
1.22125
1.22125
1.22125
1.22125
1.22125
1.22125
1.22125
1.22125
1.25741
1.2466
1.23061
1.20915
1.18431
1.16097
1.14101
1.13052
1.12998
1.13944
1.15803
1.17355
1.18686
1.19768
1.20509
1.20939
1.2111
1.21104
1.20923
1.20617
1.20353
1.20122
1.19938
1.19836
1.19813
1.19871
1.20004
1.2026
1.20545
1.20814
1.21069
1.21305
1.21503
1.21659
1.21775
1.21862
1.21922
1.21946
1.21949
1.21944
1.21937
1.21931
1.21928
1.21925
1.21925
1.21932
1.21952
1.21979
1.21969
1.21936
1.21896
1.21853
1.21808
1.2177
1.21748
1.2174
1.21737
1.21733
1.21728
1.21727
1.2174
1.2178
1.21855
1.21961
1.22068
1.2213
1.22144
1.22145
1.22136
1.22127
1.22132
1.22147
1.22184
1.22236
1.22269
1.22276
1.22267
1.22238
1.22189
1.22146
1.22128
1.22125
1.22125
1.22125
1.22125
1.22125
1.22125
1.22125
1.22125
1.22125
1.22125
1.22125
1.22125
1.22125
1.22125
1.22125
1.22125
1.22125
1.22125
1.22125
1.22125
1.22125
1.22125
1.22125
1.22125
1.22125
1.22125
1.22125
1.22125
1.22125
1.22125
1.22125
1.22125
1.22125
1.22125
1.22125
1.22125
1.22125
1.22125
1.22125
1.22125
1.22125
1.22125
1.22125
1.22125
1.22125
1.22125
1.22125
1.22125
1.22125
1.22125
1.22125
1.22125
1.22125
1.22125
1.22125
1.22125
1.22125
1.22125
1.22125
1.22125
1.22125
1.22125
1.22125
1.22125
1.24873
1.23994
1.22779
1.21272
1.19633
1.18081
1.16799
1.16067
1.15824
1.16196
1.1721
1.18171
1.1901
1.19766
1.20334
1.2071
1.20919
1.20993
1.20921
1.20727
1.20522
1.20339
1.20175
1.20078
1.20044
1.20072
1.20155
1.20327
1.2055
1.20771
1.20979
1.21179
1.2136
1.21513
1.21637
1.21737
1.21816
1.21879
1.21926
1.21949
1.21951
1.2194
1.21929
1.21925
1.21926
1.21933
1.21947
1.21951
1.21925
1.2189
1.21855
1.21818
1.2178
1.21752
1.21738
1.21737
1.21738
1.21737
1.21734
1.21737
1.21756
1.21801
1.2188
1.21984
1.22083
1.22135
1.22146
1.22145
1.22136
1.22129
1.22135
1.22151
1.2219
1.22242
1.2227
1.22275
1.22264
1.22232
1.22183
1.22143
1.22127
1.22125
1.22125
1.22125
1.22125
1.22125
1.22125
1.22125
1.22125
1.22125
1.22125
1.22125
1.22125
1.22125
1.22125
1.22125
1.22125
1.22125
1.22125
1.22125
1.22125
1.22125
1.22125
1.22125
1.22125
1.22125
1.22125
1.22125
1.22125
1.22125
1.22125
1.22125
1.22125
1.22125
1.22125
1.22125
1.22125
1.22125
1.22125
1.22125
1.22125
1.22125
1.22125
1.22125
1.22125
1.22125
1.22125
1.22125
1.22125
1.22125
1.22125
1.22125
1.22125
1.22125
1.22125
1.22125
1.22125
1.22125
1.22125
1.22125
1.22125
1.22125
1.22125
1.22125
1.22125
1.24261
1.23561
1.22655
1.2158
1.20445
1.19354
1.18474
1.17897
1.1764
1.17707
1.18168
1.18796
1.19335
1.19856
1.20288
1.20581
1.20763
1.20849
1.20835
1.20734
1.20592
1.20465
1.20345
1.20267
1.20235
1.20244
1.20286
1.20383
1.2054
1.20703
1.20857
1.21008
1.21158
1.21299
1.21429
1.21545
1.21647
1.21733
1.21797
1.21842
1.21869
1.21885
1.21887
1.21889
1.21894
1.21902
1.21908
1.21896
1.21868
1.21841
1.21813
1.21781
1.21753
1.21735
1.21731
1.21735
1.2174
1.21742
1.21742
1.21749
1.21774
1.21825
1.21907
1.22009
1.22098
1.22139
1.22148
1.22145
1.22136
1.22131
1.22138
1.22157
1.22198
1.22248
1.2227
1.22274
1.22261
1.22226
1.22176
1.22139
1.22127
1.22125
1.22125
1.22125
1.22125
1.22125
1.22125
1.22125
1.22125
1.22125
1.22125
1.22125
1.22125
1.22125
1.22125
1.22125
1.22125
1.22125
1.22125
1.22125
1.22125
1.22125
1.22125
1.22125
1.22125
1.22125
1.22125
1.22125
1.22125
1.22125
1.22125
1.22125
1.22125
1.22125
1.22125
1.22125
1.22125
1.22125
1.22125
1.22125
1.22125
1.22125
1.22125
1.22125
1.22125
1.22125
1.22125
1.22125
1.22125
1.22125
1.22125
1.22125
1.22125
1.22125
1.22125
1.22125
1.22125
1.22125
1.22125
1.22125
1.22125
1.22125
1.22125
1.22125
1.22125
1.23854
1.23289
1.22617
1.21848
1.21048
1.2029
1.19663
1.1921
1.18972
1.18915
1.19078
1.19442
1.1976
1.2008
1.20374
1.20588
1.20716
1.20774
1.20762
1.20702
1.20612
1.20525
1.20445
1.20389
1.20361
1.20361
1.20377
1.20425
1.20529
1.20648
1.20761
1.20872
1.20988
1.21107
1.21225
1.21337
1.21441
1.21532
1.21609
1.2167
1.21715
1.21746
1.21772
1.21792
1.2181
1.21823
1.21828
1.21823
1.2181
1.21795
1.21773
1.21748
1.21729
1.21722
1.21727
1.21737
1.21745
1.21749
1.21752
1.21764
1.21795
1.21851
1.21936
1.22035
1.22113
1.22143
1.2215
1.22145
1.22136
1.22133
1.22141
1.22163
1.22207
1.22254
1.22271
1.22272
1.22256
1.22218
1.2217
1.22136
1.22126
1.22125
1.22125
1.22125
1.22125
1.22125
1.22125
1.22125
1.22125
1.22125
1.22125
1.22125
1.22125
1.22125
1.22125
1.22125
1.22125
1.22125
1.22125
1.22125
1.22125
1.22125
1.22125
1.22125
1.22125
1.22125
1.22125
1.22125
1.22125
1.22125
1.22125
1.22125
1.22125
1.22125
1.22125
1.22125
1.22125
1.22125
1.22125
1.22125
1.22125
1.22125
1.22125
1.22125
1.22125
1.22125
1.22125
1.22125
1.22125
1.22125
1.22125
1.22125
1.22125
1.22125
1.22125
1.22125
1.22125
1.22125
1.22125
1.22125
1.22125
1.22125
1.22125
1.22125
1.22125
1.23612
1.2314
1.22625
1.2207
1.21503
1.20972
1.20517
1.20174
1.19964
1.19876
1.19898
1.20053
1.20233
1.20401
1.20569
1.20695
1.20772
1.20803
1.2078
1.20729
1.20666
1.20598
1.20539
1.20486
1.20451
1.20438
1.20439
1.20459
1.20523
1.20619
1.20717
1.20815
1.20916
1.21018
1.21117
1.2121
1.21294
1.2137
1.21438
1.21498
1.21553
1.21602
1.21645
1.21679
1.21706
1.21727
1.21744
1.21758
1.21759
1.2175
1.21732
1.21714
1.21707
1.21712
1.21726
1.21741
1.21752
1.21757
1.21764
1.21782
1.21819
1.21881
1.21968
1.22061
1.22126
1.22147
1.22151
1.22145
1.22136
1.22136
1.22145
1.22171
1.22216
1.22259
1.22272
1.2227
1.22251
1.2221
1.22162
1.22133
1.22126
1.22125
1.22125
1.22125
1.22125
1.22125
1.22125
1.22125
1.22125
1.22125
1.22125
1.22125
1.22125
1.22125
1.22125
1.22125
1.22125
1.22125
1.22125
1.22125
1.22125
1.22125
1.22125
1.22125
1.22125
1.22125
1.22125
1.22125
1.22125
1.22125
1.22125
1.22125
1.22125
1.22125
1.22125
1.22125
1.22125
1.22125
1.22125
1.22125
1.22125
1.22125
1.22125
1.22125
1.22125
1.22125
1.22125
1.22125
1.22125
1.22125
1.22125
1.22125
1.22125
1.22125
1.22125
1.22125
1.22125
1.22125
1.22125
1.22125
1.22125
1.22125
1.22125
1.22125
1.22125
1.23478
1.23083
1.22674
1.22258
1.21846
1.21462
1.21129
1.20869
1.20691
1.20595
1.20565
1.20604
1.2069
1.20759
1.20834
1.20892
1.20921
1.20915
1.20879
1.20822
1.20768
1.20698
1.20636
1.20582
1.20538
1.20511
1.20501
1.20504
1.20537
1.20613
1.207
1.20791
1.20885
1.20977
1.21065
1.21147
1.21222
1.21288
1.21348
1.21403
1.21456
1.21505
1.21549
1.21591
1.21626
1.21654
1.21681
1.21704
1.21709
1.21702
1.21691
1.21687
1.21695
1.21711
1.21732
1.2175
1.21761
1.21768
1.2178
1.21804
1.21847
1.21915
1.22002
1.22086
1.22136
1.2215
1.22152
1.22145
1.22136
1.22139
1.22151
1.2218
1.22227
1.22263
1.22272
1.22268
1.22244
1.222
1.22155
1.22131
1.22125
1.22125
1.22125
1.22125
1.22125
1.22125
1.22125
1.22125
1.22125
1.22125
1.22125
1.22125
1.22125
1.22125
1.22125
1.22125
1.22125
1.22125
1.22125
1.22125
1.22125
1.22125
1.22125
1.22125
1.22125
1.22125
1.22125
1.22125
1.22125
1.22125
1.22125
1.22125
1.22125
1.22125
1.22125
1.22125
1.22125
1.22125
1.22125
1.22125
1.22125
1.22125
1.22125
1.22125
1.22125
1.22125
1.22125
1.22125
1.22125
1.22125
1.22125
1.22125
1.22125
1.22125
1.22125
1.22125
1.22125
1.22125
1.22125
1.22125
1.22125
1.22125
1.22125
1.22125
1.22125
1.23386
1.23067
1.22744
1.22423
1.22113
1.21826
1.21575
1.21372
1.21223
1.21128
1.21083
1.21074
1.21098
1.21121
1.21137
1.2115
1.21145
1.21118
1.21068
1.21004
1.20931
1.20851
1.20778
1.20712
1.20653
1.20609
1.20586
1.20579
1.20594
1.20643
1.20716
1.20799
1.20885
1.20969
1.21048
1.2112
1.21186
1.21246
1.21302
1.21355
1.21406
1.21454
1.215
1.21541
1.21576
1.21603
1.21629
1.21651
1.21656
1.21655
1.21658
1.21671
1.21691
1.21717
1.21743
1.21762
1.21773
1.21783
1.21799
1.21829
1.2188
1.21952
1.22036
1.22108
1.22145
1.22153
1.22153
1.22144
1.22137
1.22143
1.22157
1.22191
1.22238
1.22266
1.22272
1.22264
1.22236
1.2219
1.22147
1.22129
1.22125
1.22125
1.22125
1.22125
1.22125
1.22125
1.22125
1.22125
1.22125
1.22125
1.22125
1.22125
1.22125
1.22125
1.22125
1.22125
1.22125
1.22125
1.22125
1.22125
1.22125
1.22125
1.22125
1.22125
1.22125
1.22125
1.22125
1.22125
1.22125
1.22125
1.22125
1.22125
1.22125
1.22125
1.22125
1.22125
1.22125
1.22125
1.22125
1.22125
1.22125
1.22125
1.22125
1.22125
1.22125
1.22125
1.22125
1.22125
1.22125
1.22125
1.22125
1.22125
1.22125
1.22125
1.22125
1.22125
1.22125
1.22125
1.22125
1.22125
1.22125
1.22125
1.22125
1.22125
1.22125
1.23288
1.23041
1.22792
1.22551
1.22319
1.22103
1.21912
1.21751
1.21623
1.21531
1.21476
1.2145
1.21445
1.21448
1.21443
1.21432
1.2141
1.21371
1.21314
1.21241
1.21155
1.21063
1.20975
1.20895
1.20824
1.20766
1.20728
1.20711
1.20712
1.20732
1.20778
1.2084
1.20909
1.2098
1.21049
1.21114
1.21174
1.2123
1.21283
1.21334
1.21382
1.21427
1.21467
1.21501
1.21529
1.21551
1.21573
1.21594
1.21608
1.21624
1.21643
1.21669
1.21701
1.21733
1.2176
1.21777
1.21788
1.21801
1.21823
1.2186
1.21917
1.21992
1.2207
1.22128
1.22151
1.22157
1.22152
1.22143
1.2214
1.22147
1.22166
1.22204
1.22249
1.22268
1.22271
1.22259
1.22225
1.22178
1.22141
1.22127
1.22125
1.22125
1.22125
1.22125
1.22125
1.22125
1.22125
1.22125
1.22125
1.22125
1.22125
1.22125
1.22125
1.22125
1.22125
1.22125
1.22125
1.22125
1.22125
1.22125
1.22125
1.22125
1.22125
1.22125
1.22125
1.22125
1.22125
1.22125
1.22125
1.22125
1.22125
1.22125
1.22125
1.22125
1.22125
1.22125
1.22125
1.22125
1.22125
1.22125
1.22125
1.22125
1.22125
1.22125
1.22125
1.22125
1.22125
1.22125
1.22125
1.22125
1.22125
1.22125
1.22125
1.22125
1.22125
1.22125
1.22125
1.22125
1.22125
1.22125
1.22125
1.22125
1.22125
1.22125
1.22125
1.23174
1.22982
1.22793
1.22614
1.22447
1.22292
1.22151
1.22028
1.21924
1.21841
1.21781
1.21743
1.21725
1.21717
1.2171
1.21696
1.21673
1.21637
1.21585
1.21516
1.21432
1.21339
1.21247
1.21163
1.21085
1.21018
1.20966
1.2093
1.2091
1.20905
1.20915
1.20941
1.20978
1.21024
1.21073
1.21125
1.21176
1.21226
1.21273
1.21318
1.2136
1.21397
1.2143
1.21458
1.21482
1.21502
1.21527
1.21556
1.21584
1.21614
1.21647
1.21684
1.21723
1.21756
1.21779
1.21794
1.21806
1.21824
1.21853
1.21898
1.2196
1.22033
1.22101
1.22143
1.22156
1.22158
1.22151
1.22142
1.22143
1.22152
1.22177
1.22218
1.22258
1.2227
1.22269
1.22251
1.22213
1.22166
1.22135
1.22126
1.22125
1.22125
1.22125
1.22125
1.22125
1.22125
1.22125
1.22125
1.22125
1.22125
1.22125
1.22125
1.22125
1.22125
1.22125
1.22125
1.22125
1.22125
1.22125
1.22125
1.22125
1.22125
1.22125
1.22125
1.22125
1.22125
1.22125
1.22125
1.22125
1.22125
1.22125
1.22125
1.22125
1.22125
1.22125
1.22125
1.22125
1.22125
1.22125
1.22125
1.22125
1.22125
1.22125
1.22125
1.22125
1.22125
1.22125
1.22125
1.22125
1.22125
1.22125
1.22125
1.22125
1.22125
1.22125
1.22125
1.22125
1.22125
1.22125
1.22125
1.22125
1.22125
1.22125
1.22125
1.22125
1.23069
1.22905
1.22752
1.22612
1.22489
1.22381
1.22285
1.22199
1.22124
1.22059
1.22005
1.21963
1.21936
1.21919
1.2191
1.21902
1.2189
1.21869
1.21836
1.21789
1.21728
1.21654
1.21574
1.21495
1.2142
1.21348
1.21283
1.21228
1.21183
1.21148
1.21124
1.21113
1.21114
1.21126
1.21147
1.21175
1.21209
1.21246
1.21284
1.21319
1.21352
1.21381
1.21409
1.21433
1.21456
1.21478
1.21508
1.21549
1.21589
1.2163
1.21672
1.21716
1.21755
1.21783
1.21801
1.21815
1.2183
1.21854
1.2189
1.21941
1.22006
1.22074
1.22128
1.22154
1.22161
1.22159
1.2215
1.22143
1.22147
1.2216
1.2219
1.22234
1.22265
1.22272
1.22266
1.22241
1.22198
1.22154
1.22131
1.22125
1.22125
1.22125
1.22125
1.22125
1.22125
1.22125
1.22125
1.22125
1.22125
1.22125
1.22125
1.22125
1.22125
1.22125
1.22125
1.22125
1.22125
1.22125
1.22125
1.22125
1.22125
1.22125
1.22125
1.22125
1.22125
1.22125
1.22125
1.22125
1.22125
1.22125
1.22125
1.22125
1.22125
1.22125
1.22125
1.22125
1.22125
1.22125
1.22125
1.22125
1.22125
1.22125
1.22125
1.22125
1.22125
1.22125
1.22125
1.22125
1.22125
1.22125
1.22125
1.22125
1.22125
1.22125
1.22125
1.22125
1.22125
1.22125
1.22125
1.22125
1.22125
1.22125
1.22125
1.22125
1.22125
1.23009
1.22851
1.22712
1.22592
1.22489
1.22405
1.22336
1.22277
1.22227
1.22182
1.22142
1.22106
1.22077
1.22054
1.22039
1.22028
1.22019
1.22007
1.21991
1.21966
1.21932
1.21887
1.21834
1.21775
1.21712
1.21648
1.21584
1.21522
1.21464
1.21412
1.21368
1.21332
1.21307
1.21291
1.21286
1.2129
1.213
1.21316
1.21337
1.2136
1.21383
1.21406
1.21429
1.21453
1.21476
1.21499
1.21533
1.2158
1.21627
1.21673
1.21719
1.2176
1.21791
1.21811
1.21826
1.2184
1.21861
1.21891
1.21934
1.2199
1.22053
1.22111
1.22148
1.22161
1.22164
1.22157
1.22148
1.22145
1.22152
1.22171
1.22207
1.22249
1.22269
1.22271
1.2226
1.22228
1.22181
1.22143
1.22128
1.22125
1.22125
1.22125
1.22125
1.22125
1.22125
1.22125
1.22125
1.22125
1.22125
1.22125
1.22125
1.22125
1.22125
1.22125
1.22125
1.22125
1.22125
1.22125
1.22125
1.22125
1.22125
1.22125
1.22125
1.22125
1.22125
1.22125
1.22125
1.22125
1.22125
1.22125
1.22125
1.22125
1.22125
1.22125
1.22125
1.22125
1.22125
1.22125
1.22125
1.22125
1.22125
1.22125
1.22125
1.22125
1.22125
1.22125
1.22125
1.22125
1.22125
1.22125
1.22125
1.22125
1.22125
1.22125
1.22125
1.22125
1.22125
1.22125
1.22125
1.22125
1.22125
1.22125
1.22125
1.22125
1.22125
1.23003
1.22846
1.22706
1.22588
1.2249
1.22411
1.2235
1.22303
1.22266
1.22236
1.22209
1.22184
1.22159
1.22137
1.22118
1.22102
1.22089
1.22077
1.22063
1.22046
1.22024
1.21996
1.21963
1.21924
1.21881
1.21835
1.21785
1.21735
1.21685
1.21637
1.21593
1.21553
1.21519
1.21492
1.21472
1.21459
1.21453
1.21452
1.21456
1.21465
1.21478
1.21493
1.21511
1.21531
1.21552
1.21574
1.21607
1.21652
1.21696
1.21738
1.21776
1.21805
1.21826
1.21841
1.21855
1.21873
1.219
1.21938
1.21986
1.22042
1.22098
1.22141
1.22162
1.22168
1.22164
1.22154
1.22147
1.22149
1.2216
1.22186
1.22227
1.22262
1.22271
1.22269
1.2225
1.2221
1.22164
1.22135
1.22126
1.22125
1.22125
1.22125
1.22125
1.22125
1.22125
1.22125
1.22125
1.22125
1.22125
1.22125
1.22125
1.22125
1.22125
1.22125
1.22125
1.22125
1.22125
1.22125
1.22125
1.22125
1.22125
1.22125
1.22125
1.22125
1.22125
1.22125
1.22125
1.22125
1.22125
1.22125
1.22125
1.22125
1.22125
1.22125
1.22125
1.22125
1.22125
1.22125
1.22125
1.22125
1.22125
1.22125
1.22125
1.22125
1.22125
1.22125
1.22125
1.22125
1.22125
1.22125
1.22125
1.22125
1.22125
1.22125
1.22125
1.22125
1.22125
1.22125
1.22125
1.22125
1.22125
1.22125
1.22125
1.22125
1.22125
1.23038
1.22883
1.22739
1.22614
1.22509
1.22426
1.22363
1.22316
1.22282
1.22257
1.22238
1.22221
1.22204
1.22187
1.2217
1.22154
1.22138
1.22124
1.22109
1.22093
1.22075
1.22055
1.22031
1.22004
1.21974
1.21942
1.21909
1.21874
1.21838
1.21803
1.2177
1.21739
1.21711
1.21686
1.21665
1.21649
1.21637
1.21629
1.21625
1.21626
1.2163
1.21637
1.21648
1.2166
1.21674
1.21689
1.21713
1.21745
1.21776
1.21805
1.21829
1.21847
1.21861
1.21874
1.21892
1.21916
1.2195
1.21992
1.22042
1.22093
1.22136
1.22162
1.22171
1.2217
1.22161
1.22151
1.22148
1.22155
1.22172
1.22206
1.22247
1.22269
1.22273
1.22263
1.22234
1.2219
1.22149
1.22129
1.22125
1.22125
1.22125
1.22125
1.22125
1.22125
1.22125
1.22125
1.22125
1.22125
1.22125
1.22125
1.22125
1.22125
1.22125
1.22125
1.22125
1.22125
1.22125
1.22125
1.22125
1.22125
1.22125
1.22125
1.22125
1.22125
1.22125
1.22125
1.22125
1.22125
1.22125
1.22125
1.22125
1.22125
1.22125
1.22125
1.22125
1.22125
1.22125
1.22125
1.22125
1.22125
1.22125
1.22125
1.22125
1.22125
1.22125
1.22125
1.22125
1.22125
1.22125
1.22125
1.22125
1.22125
1.22125
1.22125
1.22125
1.22125
1.22125
1.22125
1.22125
1.22125
1.22125
1.22125
1.22125
1.22125
1.22125
1.231
1.22958
1.22819
1.2269
1.22575
1.22478
1.22401
1.22344
1.22303
1.22274
1.22255
1.22241
1.22229
1.22217
1.22205
1.22193
1.22179
1.22165
1.22151
1.22136
1.2212
1.22103
1.22084
1.22064
1.22042
1.22019
1.21995
1.21971
1.21947
1.21923
1.21899
1.21877
1.21857
1.21838
1.21822
1.21809
1.21798
1.21789
1.21784
1.21781
1.2178
1.21781
1.21784
1.21788
1.21793
1.218
1.21811
1.21828
1.21846
1.21862
1.21876
1.21888
1.21901
1.21917
1.21941
1.21971
1.22009
1.22053
1.22098
1.22138
1.22165
1.22174
1.22174
1.22167
1.22156
1.2215
1.22153
1.22164
1.2219
1.2223
1.22264
1.22273
1.22271
1.22252
1.22213
1.22168
1.22137
1.22126
1.22125
1.22125
1.22125
1.22125
1.22125
1.22125
1.22125
1.22125
1.22125
1.22125
1.22125
1.22125
1.22125
1.22125
1.22125
1.22125
1.22125
1.22125
1.22125
1.22125
1.22125
1.22125
1.22125
1.22125
1.22125
1.22125
1.22125
1.22125
1.22125
1.22125
1.22125
1.22125
1.22125
1.22125
1.22125
1.22125
1.22125
1.22125
1.22125
1.22125
1.22125
1.22125
1.22125
1.22125
1.22125
1.22125
1.22125
1.22125
1.22125
1.22125
1.22125
1.22125
1.22125
1.22125
1.22125
1.22125
1.22125
1.22125
1.22125
1.22125
1.22125
1.22125
1.22125
1.22125
1.22125
1.22125
1.22125
1.23145
1.23029
1.22913
1.22798
1.22686
1.22584
1.22496
1.22422
1.22363
1.2232
1.22289
1.22268
1.22253
1.22242
1.22232
1.22223
1.22213
1.22202
1.22191
1.22178
1.22165
1.22151
1.22135
1.22119
1.22102
1.22085
1.22067
1.22048
1.2203
1.22012
1.21994
1.21977
1.21962
1.21947
1.21934
1.21922
1.21912
1.21903
1.21896
1.21891
1.21887
1.21884
1.21882
1.21882
1.21882
1.21883
1.21887
1.21895
1.21904
1.21914
1.21924
1.21936
1.21953
1.21975
1.22003
1.22037
1.22075
1.22114
1.22148
1.2217
1.22178
1.22178
1.22171
1.22161
1.22153
1.22153
1.22161
1.22181
1.22216
1.22255
1.22272
1.22274
1.22263
1.22232
1.22187
1.22148
1.22129
1.22125
1.22125
1.22125
1.22125
1.22125
1.22125
1.22125
1.22125
1.22125
1.22125
1.22125
1.22125
1.22125
1.22125
1.22125
1.22125
1.22125
1.22125
1.22125
1.22125
1.22125
1.22125
1.22125
1.22125
1.22125
1.22125
1.22125
1.22125
1.22125
1.22125
1.22125
1.22125
1.22125
1.22125
1.22125
1.22125
1.22125
1.22125
1.22125
1.22125
1.22125
1.22125
1.22125
1.22125
1.22125
1.22125
1.22125
1.22125
1.22125
1.22125
1.22125
1.22125
1.22125
1.22125
1.22125
1.22125
1.22125
1.22125
1.22125
1.22125
1.22125
1.22125
1.22125
1.22125
1.22125
1.22125
1.22125
1.22125
1.23143
1.23056
1.22966
1.22876
1.22786
1.22699
1.22616
1.22539
1.22473
1.22417
1.22372
1.22338
1.22312
1.22293
1.22278
1.22267
1.22256
1.22247
1.22237
1.22226
1.22215
1.22204
1.22191
1.22178
1.22164
1.2215
1.22136
1.22121
1.22106
1.22092
1.22077
1.22063
1.22049
1.22036
1.22023
1.22012
1.22001
1.21992
1.21983
1.21976
1.2197
1.21965
1.21961
1.21959
1.21957
1.21956
1.21957
1.2196
1.21967
1.21975
1.21986
1.22001
1.22022
1.22048
1.22077
1.22109
1.22139
1.22164
1.22178
1.22182
1.22181
1.22175
1.22164
1.22156
1.22155
1.22161
1.22176
1.22206
1.22246
1.22272
1.22276
1.22269
1.22246
1.22205
1.22161
1.22134
1.22126
1.22125
1.22125
1.22125
1.22125
1.22125
1.22125
1.22125
1.22125
1.22125
1.22125
1.22125
1.22125
1.22125
1.22125
1.22125
1.22125
1.22125
1.22125
1.22125
1.22125
1.22125
1.22125
1.22125
1.22125
1.22125
1.22125
1.22125
1.22125
1.22125
1.22125
1.22125
1.22125
1.22125
1.22125
1.22125
1.22125
1.22125
1.22125
1.22125
1.22125
1.22125
1.22125
1.22125
1.22125
1.22125
1.22125
1.22125
1.22125
1.22125
1.22125
1.22125
1.22125
1.22125
1.22125
1.22125
1.22125
1.22125
1.22125
1.22125
1.22125
1.22125
1.22125
1.22125
1.22125
1.22125
1.22125
1.22125
1.22125
1.23081
1.23026
1.22962
1.22896
1.2283
1.22763
1.22698
1.22635
1.22576
1.22523
1.22475
1.22435
1.22402
1.22375
1.22353
1.22336
1.22322
1.2231