/*--------------------------------*- C++ -*----------------------------------*\
| =========                 |                                                 |
| \\      /  F ield         | OpenFOAM: The Open Source CFD Toolbox           |
|  \\    /   O peration     | Version:  2406                                  |
|   \\  /    A nd           | Website:  www.openfoam.com                      |
|    \\/     M anipulation  |                                                 |
\*---------------------------------------------------------------------------*/
FoamFile
{
    version     2.0;
    format      ascii;
    arch        "LSB;label=32;scalar=64";
    class       volScalarField;
    location    "0.08";
    object      T;
}
// * * * * * * * * * * * * * * * * * * * * * * * * * * * * * * * * * * * * * //

dimensions      [0 0 0 1 0 0 0];

internalField   nonuniform List<scalar> 
13948
(
300.689
294.776
293.193
292.986
292.934
292.899
292.877
292.821
292.746
292.683
292.641
292.608
292.574
292.543
292.527
292.537
292.587
292.691
292.835
292.958
293.006
293.012
293.005
292.99
292.985
292.993
293.02
293.073
293.132
293.155
293.157
293.138
293.094
293.041
293.008
293.001
293
293
293
293
293
293
293
293
293
293
293
293
293
293
293
293
293
293
293
293
293
293
293
293
293
293
293
293
293
293
293
293
293
293
293
293
293
293
293
293
293
293
293
293
293
293
293
293
293
293
293
293
293
293
293
293
293
293
293
293
293
293
293
309.288
299.469
294.667
293.232
292.977
292.918
292.884
292.861
292.809
292.738
292.68
292.642
292.612
292.581
292.554
292.54
292.551
292.601
292.703
292.842
292.961
293.007
293.013
293.007
292.992
292.988
292.996
293.022
293.075
293.132
293.153
293.154
293.136
293.092
293.04
293.008
293.001
293
293
293
293
293
293
293
293
293
293
293
293
293
293
293
293
293
293
293
293
293
293
293
293
293
293
293
293
293
293
293
293
293
293
293
293
293
293
293
293
293
293
293
293
293
293
293
293
293
293
293
293
293
293
293
293
293
293
293
293
293
293
293
320.538
320.534
319.881
318.628
316.746
313.945
310.254
306.033
301.512
298.491
295.432
294
293.17
292.998
292.93
292.884
292.852
292.797
292.73
292.675
292.64
292.614
292.586
292.561
292.55
292.562
292.612
292.713
292.849
292.964
293.008
293.014
293.007
292.994
292.99
292.998
293.024
293.076
293.132
293.151
293.152
293.134
293.09
293.039
293.008
293.001
293
293
293
293
293
293
293
293
293
293
293
293
293
293
293
293
293
293
293
293
293
293
293
293
293
293
293
293
293
293
293
293
293
293
293
293
293
293
293
293
293
293
293
293
293
293
293
293
293
293
293
293
293
293
293
293
293
293
293
293
293
293
293
325.513
315.594
292.15
279.811
285.53
296.138
304.685
308.051
309.291
309.591
309.187
308.051
306.68
305.208
304.081
303.524
303.357
303.595
303.983
304.271
304.369
304.322
304.129
303.751
303.52
303.489
303.784
304.436
305.521
306.619
307.613
308.309
308.622
308.668
308.439
307.653
306.339
304.534
302.306
299.797
297.45
295.246
294.266
293.504
293.411
293.073
292.978
292.934
292.887
292.845
292.786
292.72
292.67
292.639
292.615
292.59
292.569
292.559
292.573
292.624
292.724
292.858
292.968
293.009
293.015
293.008
292.995
292.992
293
293.027
293.079
293.132
293.15
293.151
293.131
293.088
293.037
293.007
293
293
293
293
293
293
293
293
293
293
293
293
293
293
293
293
293
293
293
293
293
293
293
293
293
293
293
293
293
293
293
293
293
293
293
293
293
293
293
293
293
293
293
293
293
293
293
293
293
293
293
293
293
293
293
293
293
293
293
293
293
293
293
293
312.968
318.06
320.496
311.804
292.008
279.031
285.735
300.009
307.6
309.154
308.576
307.133
305.272
303.445
301.911
300.185
298.477
297.264
296.292
295.7
295.466
295.46
295.478
295.629
295.976
296.27
296.472
296.734
297.121
297.58
298.241
298.923
299.549
299.954
300.071
299.982
299.681
299.073
298.205
297.137
295.995
294.78
293.856
293.109
292.855
292.696
292.897
292.929
292.961
292.939
292.888
292.837
292.773
292.709
292.663
292.636
292.616
292.594
292.575
292.568
292.584
292.636
292.736
292.867
292.972
293.01
293.015
293.009
292.996
292.994
293.002
293.03
293.081
293.133
293.149
293.149
293.129
293.085
293.036
293.007
293
293
293
293
293
293
293
293
293
293
293
293
293
293
293
293
293
293
293
293
293
293
293
293
293
293
293
293
293
293
293
293
293
293
293
293
293
293
293
293
293
293
293
293
293
293
293
293
293
293
293
293
293
293
293
293
293
293
293
293
293
293
293
293
305.603
307.122
310.042
313.108
309.079
293.949
282.808
287.25
302.571
309.256
307.895
305.947
303.234
301.126
299.495
298.235
296.937
295.45
294.153
293.085
292.246
291.751
291.549
291.493
291.598
291.934
292.449
292.921
293.33
293.765
294.184
294.599
295.004
295.381
295.632
295.72
295.677
295.509
295.165
294.668
294.094
293.579
293.083
292.767
292.558
292.527
292.533
292.748
292.872
292.933
292.926
292.883
292.826
292.759
292.697
292.657
292.634
292.617
292.598
292.582
292.577
292.595
292.65
292.75
292.878
292.977
293.011
293.016
293.009
292.997
292.995
293.005
293.033
293.084
293.134
293.148
293.147
293.126
293.083
293.034
293.006
293
293
293
293
293
293
293
293
293
293
293
293
293
293
293
293
293
293
293
293
293
293
293
293
293
293
293
293
293
293
293
293
293
293
293
293
293
293
293
293
293
293
293
293
293
293
293
293
293
293
293
293
293
293
293
293
293
293
293
293
293
293
293
293
302.814
302.2
302.063
302.946
302.934
297.164
293.975
290.919
296.638
302.271
301.427
299.723
298.17
296.97
296.058
295.297
294.525
293.537
292.559
291.799
291.124
290.611
290.298
290.172
290.241
290.486
290.901
291.356
291.771
292.154
292.508
292.858
293.189
293.491
293.704
293.795
293.799
293.728
293.565
293.345
293.096
292.866
292.663
292.535
292.487
292.503
292.547
292.722
292.848
292.908
292.905
292.869
292.809
292.742
292.685
292.65
292.631
292.617
292.601
292.588
292.586
292.607
292.665
292.765
292.889
292.983
293.012
293.017
293.009
292.998
292.997
293.007
293.036
293.088
293.135
293.148
293.146
293.124
293.079
293.031
293.006
293
293
293
293
293
293
293
293
293
293
293
293
293
293
293
293
293
293
293
293
293
293
293
293
293
293
293
293
293
293
293
293
293
293
293
293
293
293
293
293
293
293
293
293
293
293
293
293
293
293
293
293
293
293
293
293
293
293
293
293
293
293
293
293
300.728
299.115
296.831
294.976
294.497
291.47
289.665
288.213
288.297
291.881
293.255
293.323
293.547
293.569
293.461
293.259
292.93
292.36
291.693
291.191
290.755
290.385
290.152
290.039
290.017
290.165
290.515
290.893
291.256
291.597
291.918
292.237
292.535
292.787
292.964
293.03
293.024
292.974
292.921
292.856
292.782
292.707
292.634
292.585
292.567
292.578
292.615
292.754
292.854
292.885
292.878
292.843
292.785
292.723
292.672
292.644
292.629
292.618
292.605
292.594
292.596
292.62
292.681
292.782
292.902
292.988
293.013
293.017
293.01
292.999
292.999
293.01
293.04
293.092
293.136
293.147
293.144
293.12
293.076
293.029
293.005
293
293
293
293
293
293
293
293
293
293
293
293
293
293
293
293
293
293
293
293
293
293
293
293
293
293
293
293
293
293
293
293
293
293
293
293
293
293
293
293
293
293
293
293
293
293
293
293
293
293
293
293
293
293
293
293
293
293
293
293
293
293
293
293
298.993
297.407
294.757
291.488
288.823
286.348
284.77
283.538
283.298
285.64
287.859
289.27
290.576
291.428
291.906
292.104
292.099
291.844
291.391
291.011
290.694
290.408
290.217
290.11
290.093
290.205
290.472
290.842
291.191
291.537
291.859
292.135
292.366
292.553
292.692
292.758
292.768
292.75
292.716
292.692
292.684
292.683
292.673
292.666
292.668
292.678
292.703
292.802
292.855
292.865
292.85
292.812
292.757
292.702
292.66
292.638
292.628
292.619
292.609
292.601
292.606
292.634
292.699
292.8
292.916
292.994
293.015
293.018
293.01
293
293.002
293.013
293.045
293.096
293.137
293.146
293.142
293.117
293.071
293.026
293.004
293
293
293
293
293
293
293
293
293
293
293
293
293
293
293
293
293
293
293
293
293
293
293
293
293
293
293
293
293
293
293
293
293
293
293
293
293
293
293
293
293
293
293
293
293
293
293
293
293
293
293
293
293
293
293
293
293
293
293
293
293
293
293
293
297.573
296.29
294.17
291.329
288.232
285.524
283.516
282.265
282.281
283.818
286.031
287.782
289.314
290.463
291.218
291.635
291.792
291.719
291.448
291.119
290.832
290.583
290.422
290.328
290.326
290.419
290.61
290.937
291.271
291.593
291.884
292.132
292.333
292.49
292.604
292.686
292.718
292.723
292.714
292.705
292.703
292.71
292.72
292.728
292.737
292.748
292.776
292.834
292.854
292.846
292.819
292.777
292.727
292.68
292.648
292.633
292.627
292.621
292.613
292.609
292.617
292.65
292.718
292.82
292.93
292.999
293.016
293.019
293.01
293.001
293.004
293.017
293.05
293.101
293.138
293.146
293.139
293.113
293.067
293.023
293.003
293
293
293
293
293
293
293
293
293
293
293
293
293
293
293
293
293
293
293
293
293
293
293
293
293
293
293
293
293
293
293
293
293
293
293
293
293
293
293
293
293
293
293
293
293
293
293
293
293
293
293
293
293
293
293
293
293
293
293
293
293
293
293
293
296.463
295.436
293.874
291.724
289.182
286.851
284.921
283.817
283.632
284.509
286.242
287.72
289.033
290.149
290.963
291.463
291.718
291.765
291.623
291.366
291.136
290.932
290.769
290.682
290.668
290.73
290.862
291.114
291.397
291.66
291.907
292.137
292.328
292.476
292.586
292.667
292.727
292.756
292.766
292.768
292.767
292.766
292.769
292.773
292.782
292.794
292.818
292.848
292.843
292.816
292.78
292.739
292.696
292.66
292.637
292.629
292.627
292.623
292.618
292.617
292.63
292.668
292.74
292.842
292.945
293.005
293.018
293.019
293.01
293.002
293.006
293.021
293.056
293.107
293.138
293.145
293.137
293.108
293.061
293.02
293.003
293
293
293
293
293
293
293
293
293
293
293
293
293
293
293
293
293
293
293
293
293
293
293
293
293
293
293
293
293
293
293
293
293
293
293
293
293
293
293
293
293
293
293
293
293
293
293
293
293
293
293
293
293
293
293
293
293
293
293
293
293
293
293
293
295.633
294.807
293.651
292.168
290.462
288.757
287.281
286.388
286.063
286.415
287.432
288.439
289.388
290.271
290.946
291.413
291.687
291.8
291.75
291.584
291.399
291.232
291.084
291.002
290.979
291.013
291.098
291.265
291.48
291.692
291.895
292.09
292.264
292.409
292.527
292.62
292.694
292.749
292.792
292.815
292.818
292.809
292.802
292.802
292.807
292.818
292.832
292.838
292.811
292.775
292.741
292.704
292.668
292.641
292.628
292.627
292.628
292.627
292.624
292.627
292.644
292.688
292.764
292.865
292.96
293.01
293.02
293.019
293.01
293.003
293.009
293.025
293.063
293.112
293.139
293.144
293.134
293.103
293.056
293.017
293.002
293
293
293
293
293
293
293
293
293
293
293
293
293
293
293
293
293
293
293
293
293
293
293
293
293
293
293
293
293
293
293
293
293
293
293
293
293
293
293
293
293
293
293
293
293
293
293
293
293
293
293
293
293
293
293
293
293
293
293
293
293
293
293
293
295.048
294.384
293.524
292.493
291.375
290.253
289.304
288.655
288.359
288.418
288.878
289.518
290.087
290.648
291.102
291.428
291.641
291.753
291.745
291.649
291.512
291.397
291.288
291.222
291.198
291.21
291.253
291.347
291.498
291.658
291.809
291.953
292.096
292.233
292.358
292.47
292.568
292.649
292.707
292.744
292.768
292.782
292.786
292.789
292.795
292.802
292.806
292.79
292.758
292.729
292.7
292.669
292.641
292.625
292.621
292.625
292.63
292.631
292.631
292.638
292.662
292.711
292.79
292.889
292.974
293.014
293.022
293.02
293.01
293.005
293.012
293.031
293.07
293.118
293.14
293.143
293.13
293.097
293.049
293.014
293.001
293
293
293
293
293
293
293
293
293
293
293
293
293
293
293
293
293
293
293
293
293
293
293
293
293
293
293
293
293
293
293
293
293
293
293
293
293
293
293
293
293
293
293
293
293
293
293
293
293
293
293
293
293
293
293
293
293
293
293
293
293
293
293
293
294.659
294.12
293.478
292.743
291.974
291.238
290.618
290.164
289.927
289.874
290.04
290.404
290.725
291.05
291.341
291.536
291.657
291.716
291.705
291.643
291.555
291.474
291.401
291.351
291.326
291.325
291.34
291.386
291.487
291.603
291.711
291.817
291.928
292.044
292.159
292.268
292.368
292.456
292.529
292.585
292.628
292.658
292.682
292.701
292.715
292.725
292.727
292.718
292.701
292.684
292.662
292.637
292.618
292.612
292.616
292.626
292.634
292.638
292.641
292.653
292.682
292.737
292.818
292.913
292.988
293.017
293.024
293.019
293.01
293.008
293.015
293.037
293.079
293.124
293.14
293.141
293.126
293.09
293.043
293.01
293.001
293
293
293
293
293
293
293
293
293
293
293
293
293
293
293
293
293
293
293
293
293
293
293
293
293
293
293
293
293
293
293
293
293
293
293
293
293
293
293
293
293
293
293
293
293
293
293
293
293
293
293
293
293
293
293
293
293
293
293
293
293
293
293
293
294.427
293.976
293.483
292.95
292.405
291.897
291.46
291.132
290.933
290.853
290.88
291.035
291.214
291.382
291.55
291.671
291.735
291.755
291.729
291.676
291.616
291.548
291.491
291.441
291.405
291.39
291.39
291.409
291.471
291.563
291.657
291.752
291.85
291.948
292.044
292.134
292.216
292.289
292.355
292.413
292.466
292.513
292.553
292.583
292.607
292.626
292.64
292.651
292.651
292.641
292.622
292.605
292.598
292.603
292.616
292.631
292.641
292.646
292.653
292.67
292.705
292.765
292.849
292.938
293.001
293.021
293.025
293.019
293.01
293.01
293.019
293.044
293.088
293.129
293.141
293.14
293.121
293.082
293.036
293.008
293.001
293
293
293
293
293
293
293
293
293
293
293
293
293
293
293
293
293
293
293
293
293
293
293
293
293
293
293
293
293
293
293
293
293
293
293
293
293
293
293
293
293
293
293
293
293
293
293
293
293
293
293
293
293
293
293
293
293
293
293
293
293
293
293
293
294.299
293.921
293.529
293.129
292.733
292.363
292.044
291.795
291.626
291.537
291.509
291.548
291.633
291.701
291.776
291.835
291.863
291.854
291.818
291.76
291.707
291.637
291.576
291.522
291.477
291.45
291.439
291.442
291.474
291.548
291.633
291.721
291.812
291.901
291.986
292.066
292.138
292.202
292.26
292.314
292.365
292.411
292.454
292.492
292.525
292.551
292.576
292.598
292.601
292.594
292.583
292.578
292.586
292.602
292.622
292.639
292.65
292.657
292.668
292.69
292.732
292.798
292.881
292.962
293.011
293.024
293.026
293.019
293.011
293.013
293.025
293.053
293.098
293.133
293.141
293.137
293.114
293.072
293.028
293.005
293
293
293
293
293
293
293
293
293
293
293
293
293
293
293
293
293
293
293
293
293
293
293
293
293
293
293
293
293
293
293
293
293
293
293
293
293
293
293
293
293
293
293
293
293
293
293
293
293
293
293
293
293
293
293
293
293
293
293
293
293
293
293
293
293
294.211
293.906
293.596
293.288
292.99
292.713
292.472
292.276
292.133
292.042
291.998
291.99
292.013
292.036
292.05
292.063
292.059
292.034
291.986
291.924
291.854
291.776
291.704
291.639
291.582
291.539
291.517
291.51
291.524
291.572
291.643
291.724
291.808
291.889
291.965
292.035
292.099
292.157
292.212
292.263
292.312
292.359
292.402
292.441
292.474
292.5
292.525
292.545
292.549
292.548
292.551
292.563
292.582
292.608
292.633
292.65
292.661
292.67
292.686
292.715
292.764
292.833
292.914
292.984
293.019
293.027
293.027
293.018
293.012
293.017
293.031
293.064
293.108
293.136
293.141
293.133
293.106
293.062
293.021
293.003
293
293
293
293
293
293
293
293
293
293
293
293
293
293
293
293
293
293
293
293
293
293
293
293
293
293
293
293
293
293
293
293
293
293
293
293
293
293
293
293
293
293
293
293
293
293
293
293
293
293
293
293
293
293
293
293
293
293
293
293
293
293
293
293
293
294.117
293.88
293.642
293.411
293.188
292.98
292.796
292.641
292.517
292.429
292.376
292.351
292.346
292.348
292.343
292.332
292.311
292.273
292.219
292.148
292.066
291.976
291.891
291.815
291.746
291.69
291.654
291.638
291.639
291.658
291.703
291.762
291.829
291.898
291.965
292.027
292.086
292.14
292.191
292.24
292.287
292.33
292.368
292.401
292.428
292.449
292.47
292.49
292.503
292.518
292.536
292.562
292.592
292.623
292.648
292.664
292.675
292.688
292.709
292.745
292.8
292.871
292.947
293.003
293.025
293.03
293.026
293.017
293.014
293.021
293.039
293.076
293.119
293.138
293.141
293.128
293.096
293.051
293.015
293.002
293
293
293
293
293
293
293
293
293
293
293
293
293
293
293
293
293
293
293
293
293
293
293
293
293
293
293
293
293
293
293
293
293
293
293
293
293
293
293
293
293
293
293
293
293
293
293
293
293
293
293
293
293
293
293
293
293
293
293
293
293
293
293
293
293
294.008
293.824
293.643
293.471
293.311
293.162
293.026
292.908
292.808
292.728
292.67
292.634
292.616
292.608
292.601
292.589
292.566
292.532
292.481
292.415
292.334
292.244
292.156
292.074
292
291.935
291.884
291.85
291.831
291.826
291.836
291.86
291.897
291.94
291.988
292.038
292.088
292.136
292.181
292.225
292.265
292.301
292.332
292.359
292.382
292.401
292.425
292.453
292.479
292.508
292.54
292.575
292.613
292.645
292.667
292.681
292.693
292.71
292.738
292.781
292.841
292.912
292.977
293.018
293.03
293.032
293.025
293.017
293.017
293.026
293.049
293.09
293.128
293.14
293.139
293.121
293.084
293.039
293.01
293.001
293
293
293
293
293
293
293
293
293
293
293
293
293
293
293
293
293
293
293
293
293
293
293
293
293
293
293
293
293
293
293
293
293
293
293
293
293
293
293
293
293
293
293
293
293
293
293
293
293
293
293
293
293
293
293
293
293
293
293
293
293
293
293
293
293
293.907
293.749
293.603
293.469
293.351
293.248
293.155
293.072
293
292.938
292.886
292.846
292.819
292.804
292.795
292.787
292.775
292.756
292.724
292.679
292.62
292.549
292.472
292.396
292.323
292.254
292.191
292.138
292.094
292.06
292.037
292.027
292.028
292.039
292.059
292.087
292.119
292.155
292.191
292.225
292.256
292.285
292.311
292.335
292.357
292.377
292.407
292.446
292.485
292.523
292.564
292.606
292.643
292.671
292.688
292.701
292.716
292.739
292.773
292.823
292.885
292.951
293.003
293.028
293.035
293.032
293.024
293.017
293.021
293.033
293.063
293.105
293.134
293.141
293.135
293.112
293.07
293.028
293.005
293
293
293
293
293
293
293
293
293
293
293
293
293
293
293
293
293
293
293
293
293
293
293
293
293
293
293
293
293
293
293
293
293
293
293
293
293
293
293
293
293
293
293
293
293
293
293
293
293
293
293
293
293
293
293
293
293
293
293
293
293
293
293
293
293
293
293.849
293.698
293.564
293.449
293.351
293.27
293.204
293.148
293.099
293.056
293.018
292.983
292.955
292.934
292.919
292.909
292.9
292.889
292.872
292.849
292.816
292.773
292.722
292.665
292.605
292.543
292.481
292.421
292.365
292.316
292.273
292.238
292.213
292.199
292.194
292.197
292.206
292.222
292.242
292.264
292.286
292.309
292.331
292.353
292.375
292.397
292.431
292.476
292.521
292.565
292.609
292.648
292.678
292.698
292.712
292.726
292.746
292.775
292.816
292.87
292.931
292.986
293.022
293.035
293.037
293.031
293.022
293.019
293.026
293.044
293.079
293.12
293.138
293.141
293.129
293.099
293.054
293.017
293.002
293
293
293
293
293
293
293
293
293
293
293
293
293
293
293
293
293
293
293
293
293
293
293
293
293
293
293
293
293
293
293
293
293
293
293
293
293
293
293
293
293
293
293
293
293
293
293
293
293
293
293
293
293
293
293
293
293
293
293
293
293
293
293
293
293
293
293.843
293.693
293.559
293.445
293.351
293.276
293.217
293.172
293.137
293.108
293.082
293.058
293.034
293.013
292.995
292.98
292.967
292.955
292.942
292.925
292.904
292.878
292.845
292.808
292.767
292.722
292.675
292.626
292.578
292.532
292.489
292.451
292.418
292.392
292.373
292.36
292.354
292.353
292.357
292.366
292.378
292.392
292.41
292.428
292.449
292.469
292.502
292.545
292.587
292.628
292.664
292.692
292.712
292.727
292.74
292.758
292.784
292.82
292.866
292.92
292.974
293.015
293.035
293.041
293.038
293.028
293.021
293.023
293.033
293.058
293.098
293.132
293.141
293.138
293.12
293.082
293.038
293.009
293.001
293
293
293
293
293
293
293
293
293
293
293
293
293
293
293
293
293
293
293
293
293
293
293
293
293
293
293
293
293
293
293
293
293
293
293
293
293
293
293
293
293
293
293
293
293
293
293
293
293
293
293
293
293
293
293
293
293
293
293
293
293
293
293
293
293
293
293.877
293.728
293.591
293.471
293.37
293.291
293.23
293.185
293.152
293.128
293.11
293.093
293.077
293.061
293.045
293.029
293.014
293
292.986
292.971
292.954
292.934
292.911
292.885
292.856
292.826
292.793
292.759
292.725
292.692
292.659
292.629
292.602
292.578
292.558
292.542
292.531
292.523
292.52
292.52
292.524
292.531
292.541
292.553
292.567
292.581
292.603
292.634
292.664
292.692
292.715
292.733
292.746
292.759
292.776
292.799
292.831
292.872
292.92
292.969
293.011
293.036
293.044
293.043
293.035
293.025
293.022
293.029
293.045
293.078
293.117
293.139
293.142
293.133
293.105
293.062
293.023
293.004
293
293
293
293
293
293
293
293
293
293
293
293
293
293
293
293
293
293
293
293
293
293
293
293
293
293
293
293
293
293
293
293
293
293
293
293
293
293
293
293
293
293
293
293
293
293
293
293
293
293
293
293
293
293
293
293
293
293
293
293
293
293
293
293
293
293
293
293.937
293.8
293.667
293.544
293.433
293.34
293.266
293.211
293.172
293.144
293.126
293.112
293.101
293.09
293.078
293.066
293.053
293.04
293.026
293.012
292.997
292.98
292.962
292.942
292.921
292.899
292.876
292.853
292.829
292.806
292.784
292.762
292.743
292.725
292.709
292.696
292.686
292.678
292.672
292.669
292.668
292.669
292.672
292.676
292.681
292.687
292.698
292.714
292.731
292.747
292.761
292.772
292.784
292.8
292.822
292.852
292.889
292.931
292.974
293.013
293.038
293.047
293.047
293.04
293.03
293.024
293.027
293.038
293.063
293.101
293.134
293.142
293.14
293.122
293.085
293.041
293.011
293.001
293
293
293
293
293
293
293
293
293
293
293
293
293
293
293
293
293
293
293
293
293
293
293
293
293
293
293
293
293
293
293
293
293
293
293
293
293
293
293
293
293
293
293
293
293
293
293
293
293
293
293
293
293
293
293
293
293
293
293
293
293
293
293
293
293
293
293
293.979
293.868
293.757
293.647
293.54
293.442
293.357
293.286
293.23
293.188
293.158
293.138
293.124
293.113
293.104
293.095
293.085
293.075
293.064
293.052
293.039
293.025
293.011
292.995
292.979
292.962
292.945
292.927
292.909
292.892
292.875
292.859
292.843
292.829
292.816
292.805
292.795
292.787
292.78
292.775
292.771
292.769
292.767
292.766
292.766
292.767
292.771
292.779
292.788
292.797
292.807
292.818
292.834
292.855
292.883
292.915
292.952
292.99
293.022
293.044
293.051
293.051
293.045
293.034
293.027
293.027
293.034
293.053
293.087
293.125
293.142
293.143
293.132
293.103
293.06
293.022
293.004
293
293
293
293
293
293
293
293
293
293
293
293
293
293
293
293
293
293
293
293
293
293
293
293
293
293
293
293
293
293
293
293
293
293
293
293
293
293
293
293
293
293
293
293
293
293
293
293
293
293
293
293
293
293
293
293
293
293
293
293
293
293
293
293
293
293
293
293
293.977
293.894
293.808
293.721
293.636
293.552
293.472
293.399
293.335
293.281
293.238
293.205
293.18
293.162
293.148
293.137
293.127
293.118
293.108
293.098
293.088
293.076
293.064
293.052
293.039
293.025
293.011
292.997
292.983
292.968
292.954
292.941
292.927
292.914
292.902
292.891
292.881
292.872
292.864
292.857
292.851
292.847
292.843
292.84
292.838
292.838
292.838
292.841
292.848
292.856
292.866
292.881
292.901
292.926
292.954
292.984
293.013
293.038
293.051
293.055
293.054
293.048
293.038
293.03
293.029
293.034
293.049
293.078
293.116
293.141
293.145
293.139
293.116
293.076
293.034
293.009
293.001
293
293
293
293
293
293
293
293
293
293
293
293
293
293
293
293
293
293
293
293
293
293
293
293
293
293
293
293
293
293
293
293
293
293
293
293
293
293
293
293
293
293
293
293
293
293
293
293
293
293
293
293
293
293
293
293
293
293
293
293
293
293
293
293
293
293
293
293
293.918
293.865
293.804
293.741
293.677
293.613
293.551
293.49
293.434
293.383
293.337
293.299
293.267
293.241
293.22
293.203
293.19
293.178
293.167
293.158
293.148
293.138
293.128
293.118
293.107
293.096
293.085
293.073
293.061
293.049
293.038
293.026
293.014
293.002
292.991
292.98
292.97
292.961
292.952
292.944
292.938
292.932
292.927
292.924
292.921
292.92
292.919
292.92
292.926
292.933
292.946
292.962
292.981
293.002
293.023
293.041
293.053
293.058
293.059
293.056
293.049
293.04
293.033
293.032
293.036
293.048
293.075
293.111
293.139
293.146
293.142
293.124
293.089
293.046
293.014
293.002
293
293
293
293
293
293
293
293
293
293
293
293
293
293
293
293
293
293
293
293
293
293
293
293
293
293
293
293
293
293
293
293
293
293
293
293
293
293
293
293
293
293
293
293
293
293
293
293
293
293
293
293
293
293
293
293
293
293
293
293
293
293
293
293
293
293
293
293
293
293.83
293.794
293.754
293.711
293.664
293.616
293.569
293.524
293.481
293.439
293.401
293.366
293.335
293.308
293.285
293.266
293.25
293.237
293.226
293.216
293.207
293.199
293.19
293.182
293.174
293.165
293.156
293.147
293.138
293.129
293.12
293.11
293.101
293.091
293.082
293.073
293.065
293.057
293.049
293.042
293.036
293.031
293.026
293.022
293.019
293.017
293.015
293.014
293.017
293.022
293.03
293.04
293.049
293.057
293.061
293.063
293.063
293.061
293.056
293.049
293.041
293.036
293.035
293.04
293.052
293.076
293.11
293.139
293.146
293.144
293.129
293.097
293.055
293.02
293.004
293
293
293
293
293
293
293
293
293
293
293
293
293
293
293
293
293
293
293
293
293
293
293
293
293
293
293
293
293
293
293
293
293
293
293
293
293
293
293
293
293
293
293
293
293
293
293
293
293
293
293
293
293
293
293
293
293
293
293
293
293
293
293
293
293
293
293
293
293
293
293.77
293.734
293.699
293.663
293.626
293.588
293.549
293.512
293.476
293.442
293.41
293.382
293.356
293.333
293.313
293.296
293.282
293.27
293.259
293.25
293.242
293.234
293.227
293.22
293.213
293.206
293.198
293.191
293.184
293.177
293.17
293.163
293.157
293.15
293.144
293.138
293.132
293.126
293.121
293.116
293.111
293.106
293.102
293.098
293.095
293.092
293.088
293.083
293.08
293.077
293.076
293.074
293.073
293.071
293.069
293.066
293.061
293.056
293.049
293.043
293.04
293.04
293.046
293.059
293.084
293.116
293.141
293.147
293.145
293.13
293.099
293.059
293.023
293.005
293
293
293
293
293
293
293
293
293
293
293
293
293
293
293
293
293
293
293
293
293
293
293
293
293
293
293
293
293
293
293
293
293
293
293
293
293
293
293
293
293
293
293
293
293
293
293
293
293
293
293
293
293
293
293
293
293
293
293
293
293
293
293
293
293
293
293
293
293
293
293
293.72
293.697
293.667
293.634
293.6
293.566
293.533
293.499
293.465
293.432
293.402
293.374
293.35
293.328
293.308
293.292
293.277
293.265
293.254
293.246
293.238
293.232
293.227
293.222
293.217
293.213
293.209
293.204
293.199
293.194
293.189
293.184
293.179
293.173
293.168
293.162
293.157
293.152
293.146
293.141
293.136
293.132
293.127
293.123
293.118
293.114
293.109
293.102
293.096
293.09
293.085
293.08
293.075
293.07
293.065
293.06
293.054
293.05
293.048
293.047
293.049
293.056
293.072
293.097
293.125
293.142
293.146
293.143
293.128
293.097
293.058
293.024
293.006
293.001
293
293
293
293
293
293
293
293
293
293
293
293
293
293
293
293
293
293
293
293
293
293
293
293
293
293
293
293
293
293
293
293
293
293
293
293
293
293
293
293
293
293
293
293
293
293
293
293
293
293
293
293
293
293
293
293
293
293
293
293
293
293
293
293
293
293
293
293
293
293
293
293.613
293.622
293.618
293.605
293.583
293.557
293.529
293.499
293.47
293.441
293.413
293.385
293.357
293.331
293.308
293.287
293.269
293.253
293.239
293.227
293.218
293.21
293.203
293.198
293.193
293.189
293.185
293.181
293.178
293.174
293.171
293.167
293.163
293.16
293.156
293.152
293.148
293.144
293.139
293.135
293.131
293.127
293.123
293.119
293.115
293.111
293.105
293.098
293.092
293.085
293.08
293.074
293.068
293.063
293.059
293.057
293.056
293.055
293.056
293.062
293.073
293.091
293.115
293.135
293.143
293.145
293.139
293.121
293.089
293.052
293.021
293.005
293.001
293
293
293
293
293
293
293
293
293
293
293
293
293
293
293
293
293
293
293
293
293
293
293
293
293
293
293
293
293
293
293
293
293
293
293
293
293
293
293
293
293
293
293
293
293
293
293
293
293
293
293
293
293
293
293
293
293
293
293
293
293
293
293
293
293
293
293
293
293
293
293
293
293.413
293.463
293.498
293.517
293.523
293.52
293.509
293.492
293.472
293.451
293.428
293.404
293.381
293.357
293.335
293.313
293.291
293.271
293.253
293.236
293.221
293.208
293.196
293.186
293.177
293.169
293.163
293.157
293.152
293.147
293.143
293.14
293.136
293.133
293.13
293.127
293.124
293.121
293.118
293.115
293.112
293.109
293.105
293.102
293.099
293.096
293.092
293.086
293.081
293.077
293.073
293.07
293.068
293.067
293.066
293.066
293.068
293.074
293.083
293.098
293.115
293.13
293.139
293.143
293.141
293.13
293.108
293.075
293.041
293.016
293.004
293
293
293
293
293
293
293
293
293
293
293
293
293
293
293
293
293
293
293
293
293
293
293
293
293
293
293
293
293
293
293
293
293
293
293
293
293
293
293
293
293
293
293
293
293
293
293
293
293
293
293
293
293
293
293
293
293
293
293
293
293
293
293
293
293
293
293
293
293
293
293
293
293
293
293.177
293.235
293.29
293.339
293.378
293.406
293.424
293.432
293.433
293.428
293.418
293.405
293.391
293.375
293.358
293.34
293.322
293.304
293.287
293.271
293.255
293.241
293.227
293.214
293.202
293.191
293.181
293.172
293.164
293.156
293.15
293.144
293.139
293.134
293.129
293.125
293.121
293.118
293.114
293.111
293.108
293.106
293.103
293.101
293.098
293.096
293.093
293.09
293.087
293.085
293.083
293.082
293.081
293.083
293.087
293.093
293.102
293.112
293.122
293.13
293.136
293.139
293.138
293.131
293.114
293.088
293.056
293.028
293.01
293.002
293
293
293
293
293
293
293
293
293
293
293
293
293
293
293
293
293
293
293
293
293
293
293
293
293
293
293
293
293
293
293
293
293
293
293
293
293
293
293
293
293
293
293
293
293
293
293
293
293
293
293
293
293
293
293
293
293
293
293
293
293
293
293
293
293
293
293
293
293
293
293
293
293
293
293
293.037
293.063
293.096
293.134
293.176
293.216
293.254
293.286
293.312
293.331
293.344
293.35
293.352
293.349
293.344
293.336
293.327
293.317
293.307
293.295
293.283
293.271
293.259
293.247
293.236
293.225
293.215
293.206
293.198
293.19
293.182
293.175
293.169
293.162
293.157
293.151
293.146
293.141
293.137
293.133
293.13
293.126
293.123
293.121
293.118
293.116
293.114
293.111
293.109
293.109
293.11
293.112
293.115
293.118
293.122
293.126
293.129
293.133
293.135
293.136
293.133
293.125
293.111
293.089
293.062
293.035
293.016
293.005
293.001
293
293
293
293
293
293
293
293
293
293
293
293
293
293
293
293
293
293
293
293
293
293
293
293
293
293
293
293
293
293
293
293
293
293
293
293
293
293
293
293
293
293
293
293
293
293
293
293
293
293
293
293
293
293
293
293
293
293
293
293
293
293
293
293
293
293
293
293
293
293
293
293
293
293
293
293
293.003
293.007
293.013
293.024
293.04