/*--------------------------------*- C++ -*----------------------------------*\
| =========                 |                                                 |
| \\      /  F ield         | OpenFOAM: The Open Source CFD Toolbox           |
|  \\    /   O peration     | Version:  2406                                  |
|   \\  /    A nd           | Website:  www.openfoam.com                      |
|    \\/     M anipulation  |                                                 |
\*---------------------------------------------------------------------------*/
FoamFile
{
    version     2.0;
    format      ascii;
    arch        "LSB;label=32;scalar=64";
    class       volScalarField;
    location    "0.045";
    object      Ma;
}
// * * * * * * * * * * * * * * * * * * * * * * * * * * * * * * * * * * * * * //

dimensions      [0 0 0 0 0 0 0];

internalField   nonuniform List<scalar> 
83682
(
1.132
1.132
1.132
1.132
1.132
1.132
1.132
1.132
1.132
1.132
1.132
1.132
1.132
1.132
1.132
1.132
1.132
1.132
1.132
1.132
1.132
1.132
1.13196
1.13085
1.10949
1.03755
1.01957
1.0193
1.01934
1.01944
1.01945
1.01939
1.01929
1.01913
1.01893
1.0188
1.01878
1.01877
1.0188
1.01886
1.01894
1.01899
1.01899
1.01898
1.01895
1.01891
1.01888
1.01888
1.01891
1.01895
1.01902
1.01909
1.01914
1.01916
1.01916
1.01914
1.01911
1.01907
1.01906
1.01906
1.01908
1.01911
1.01914
1.01917
1.01917
1.01917
1.01915
1.01912
1.0191
1.01908
1.01907
1.01907
1.01909
1.0191
1.0191
1.0191
1.01908
1.01905
1.01901
1.01898
1.01897
1.01897
1.01899
1.01903
1.01906
1.01909
1.01911
1.01911
1.0191
1.01909
1.01909
1.01908
1.01908
1.0191
1.01912
1.01914
1.01915
1.01914
1.01913
1.01911
1.01909
1.01908
1.01907
1.01907
1.01908
1.01909
1.01909
1.0191
1.0191
1.0191
1.0191
1.0191
1.0191
1.0191
1.0191
1.0191
1.01909
1.01908
1.01907
1.01906
1.01905
1.01905
1.01905
1.01905
1.01906
1.01906
1.01906
1.01906
1.01907
1.01907
1.01908
1.01909
1.0191
1.01911
1.01911
1.01912
1.01912
1.01912
1.01912
1.01912
1.01911
1.01911
1.01909
1.01907
1.01906
1.01906
1.01906
1.01906
1.01907
1.01908
1.01909
1.0191
1.0191
1.01909
1.01909
1.01908
1.01908
1.01908
1.01909
1.0191
1.01911
1.01911
1.0191
1.01904
1.01892
1.01892
1.01913
1.01988
1.02134
1.02341
1.02578
1.02812
1.03022
1.03189
1.03316
1.0339
1.03429
1.03429
1.03419
1.03401
1.03377
1.03357
1.03346
1.03345
1.0335
1.03356
1.03353
1.03354
1.03349
1.03333
1.03294
1.03216
1.03092
1.02943
1.02811
1.02709
1.02629
1.02562
1.02504
1.02451
1.02402
1.02357
1.02316
1.02278
1.02245
1.02216
1.02192
1.02173
1.02157
1.02144
1.02134
1.02126
1.0212
1.02115
1.02111
1.02106
1.02103
1.02099
1.02095
1.02091
1.02087
1.02083
1.02078
1.02072
1.02067
1.02062
1.02056
1.02052
1.02048
1.02047
1.02046
1.02044
1.02044
1.02043
1.02043
1.02042
1.02041
1.02041
1.02041
1.0204
1.02039
1.02039
1.02038
1.02037
1.02036
1.02034
1.02032
1.0203
1.02027
1.02025
1.02024
1.02023
1.02021
1.0202
1.0202
1.0202
1.02019
1.02018
1.02018
1.02017
1.02017
1.02016
1.02017
1.02016
1.02016
1.02014
1.02014
1.02012
1.02011
1.02008
1.02007
1.02006
1.02004
1.02001
1.01999
1.01997
1.01995
1.01993
1.01992
1.01992
1.01991
1.0199
1.01988
1.01988
1.01987
1.01986
1.01986
1.01986
1.01986
1.01985
1.01984
1.01984
1.01983
1.01982
1.01981
1.01981
1.0198
1.01979
1.01978
1.01976
1.01976
1.01974
1.01974
1.01975
1.01976
1.01975
1.01974
1.01974
1.01974
1.01973
1.01972
1.01971
1.0197
1.01968
1.01964
1.01958
1.01948
1.01935
1.01913
1.01881
1.01832
1.0176
1.01651
1.01494
1.01268
1.00952
1.00512
0.99917
0.991243
0.980936
0.967879
0.951764
0.932463
0.910142
0.885293
0.858847
0.832276
0.8077
0.787786
0.774067
0.766855
0.765771
0.765802
0.765742
0.765622
0.765521
0.765517
0.765576
0.765713
0.7659
0.7661
0.766328
0.766532
0.766593
0.766585
0.766541
0.766443
0.766299
0.766134
0.766029
0.766017
0.766036
0.766087
0.766172
0.766234
0.766248
0.766244
0.766219
0.766156
0.766082
0.766047
0.766045
0.766059
0.766099
0.766154
0.766184
0.766184
0.766173
0.766139
0.766079
0.766008
0.76596
0.765951
0.765957
0.765978
0.766016
0.766055
0.766079
0.766083
0.766078
0.766061
0.766029
0.765997
0.765987
0.765988
0.765992
0.766005
0.766017
0.766018
0.766013
0.765999
0.765973
0.765937
0.765904
0.765898
0.765911
0.765935
0.765968
0.766006
0.766042
0.766064
0.766071
0.76607
0.766056
0.76603
0.766008
0.766001
0.766003
0.766016
0.76604
0.766072
0.766108
0.766147
0.766161
0.766151
0.766133
0.766125
0.766124
0.766123
0.766119
0.766108
0.76609
0.766062
0.766024
0.765982
0.765941
0.765904
0.765875
0.765857
0.765848
0.765843
0.765837
0.76583
0.765819
0.765802
0.76578
0.765755
0.765729
0.765707
0.765692
0.765683
0.765677
0.765673
0.765667
0.765658
0.765646
0.76563
0.765609
0.765586
0.765565
0.765548
0.765534
0.765523
0.765514
0.765504
0.765492
0.765477
0.765458
0.765437
0.765414
0.765392
0.765373
0.765358
0.765346
0.765335
0.765324
0.765312
0.765297
0.765278
0.765256
0.765232
0.765208
0.765186
0.765167
0.765151
0.765136
0.765122
0.765107
0.765091
0.765072
0.765051
0.765029
0.765006
0.764986
0.764967
0.764951
0.764937
0.764922
0.764907
0.76489
0.764871
0.76485
0.764828
0.764807
0.764787
0.76477
0.764756
0.764743
0.764731
0.764718
0.764703
0.764686
0.764666
0.764643
0.764618
0.764594
0.76457
0.764549
0.764529
0.764509
0.764489
0.764467
0.764442
0.764413
0.764384
0.764361
0.764351
0.764349
0.764349
0.76435
0.764351
0.764355
0.764362
0.764371
0.764382
0.764396
0.764412
0.764429
0.764447
0.764466
0.764487
0.764509
0.764533
0.764559
0.764588
0.76462
0.764655
0.764694
0.764737
0.764786
0.76484
0.7649
0.764967
0.76504
0.765117
0.765197
0.765278
0.765356
0.765428
0.765486
0.76552
0.765531
0.765532
0.765532
0.765531
0.765531
0.76553
0.765528
0.765526
0.765524
0.76552
0.765516
0.765513
0.765511
0.765511
0.765511
0.765511
0.765512
0.765513
0.765515
0.765517
0.76552
0.765523
0.765526
0.765528
0.765531
0.765534
0.765538
0.765542
0.765547
0.765552
0.765559
0.765566
0.765573
0.765579
0.765585
0.76559
0.765594
0.765598
0.765602
0.765607
0.765609
0.765608
0.765592
0.765481
0.764768
0.760269
0.733155
0.597927
0.232259
0.0120867
4.73007e-05
1.0909e-08
3.27397e-13
4.0396e-14
4.29031e-14
4.09655e-14
3.72966e-14
3.03697e-14
2.92383e-14
2.71184e-14
3.19016e-14
3.49782e-14
3.9418e-14
4.33867e-14
4.54042e-14
4.72954e-14
4.98488e-14
5.47272e-14
5.50728e-14
5.55344e-14
5.11451e-14
4.49016e-14
4.02502e-14
3.62965e-14
3.50775e-14
3.50927e-14
3.30904e-14
3.89771e-14
4.24215e-14
3.93204e-14
3.40321e-14
3.17925e-14
2.87152e-14
2.34845e-14
2.11802e-14
1.88997e-14
1.541e-14
1.33302e-14
1.39123e-14
1.79794e-14
2.71341e-14
3.48901e-14
3.19633e-14
3.31506e-14
3.39276e-14
3.03419e-14
3.00769e-14
3.12787e-14
2.86275e-14
2.67938e-14
2.67359e-14
2.50232e-14
2.14514e-14
2.11955e-14
2.17483e-14
1.92677e-14
2.47426e-14
2.54091e-14
2.62369e-14
2.68017e-14
2.27938e-14
2.21659e-14
2.13433e-14
2.39501e-14
2.68563e-14
2.83079e-14
2.9219e-14
2.72394e-14
2.62219e-14
2.48491e-14
2.17315e-14
2.41646e-14
3.5925e-14
4.40066e-14
4.9807e-14
5.32092e-14
5.1826e-14
5.26939e-14
5.25982e-14
5.35294e-14
4.71435e-14
4.46416e-14
4.96978e-14
5.57043e-14
1.132
1.132
1.132
1.132
1.132
1.132
1.132
1.132
1.132
1.132
1.132
1.132
1.132
1.132
1.132
1.132
1.132
1.132
1.132
1.132
1.132
1.132
1.13196
1.13085
1.10949
1.03755
1.01957
1.0193
1.01934
1.01944
1.01945
1.01939
1.01929
1.01913
1.01893
1.0188
1.01878
1.01877
1.0188
1.01886
1.01894
1.01899
1.01899
1.01898
1.01895
1.01891
1.01888
1.01888
1.01891
1.01895
1.01902
1.01909
1.01914
1.01916
1.01916
1.01914
1.01911
1.01907
1.01906
1.01906
1.01908
1.01911
1.01914
1.01917
1.01917
1.01917
1.01915
1.01912
1.0191
1.01908
1.01907
1.01907
1.01909
1.0191
1.0191
1.0191
1.01908
1.01905
1.01901
1.01898
1.01897
1.01897
1.01899
1.01903
1.01906
1.01909
1.01911
1.01911
1.01911
1.01909
1.01909
1.01908
1.01908
1.0191
1.01912
1.01914
1.01915
1.01914
1.01913
1.01911
1.01909
1.01908
1.01907
1.01907
1.01908
1.01909
1.01909
1.0191
1.0191
1.0191
1.0191
1.0191
1.0191
1.0191
1.0191
1.0191
1.01909
1.01908
1.01907
1.01906
1.01905
1.01905
1.01905
1.01905
1.01906
1.01906
1.01906
1.01906
1.01907
1.01907
1.01908
1.01909
1.0191
1.01911
1.01911
1.01912
1.01912
1.01912
1.01912
1.01912
1.01911
1.01911
1.01909
1.01907
1.01906
1.01906
1.01906
1.01906
1.01907
1.01908
1.01909
1.0191
1.0191
1.01909
1.01909
1.01908
1.01908
1.01908
1.01909
1.0191
1.01911
1.01911
1.0191
1.01904
1.01892
1.01892
1.01913
1.01988
1.02135
1.02342
1.02578
1.02811
1.03021
1.03187
1.03315
1.0339
1.03432
1.03432
1.03421
1.03401
1.03376
1.03355
1.03343
1.03343
1.03349
1.03356
1.03355
1.03354
1.03349
1.03333
1.03294
1.03216
1.03092
1.02943
1.02811
1.02709
1.02629
1.02562
1.02504
1.02451
1.02402
1.02357
1.02316
1.02278
1.02245
1.02216
1.02192
1.02173
1.02157
1.02144
1.02134
1.02126
1.0212
1.02115
1.02111
1.02106
1.02103
1.02099
1.02095
1.02091
1.02087
1.02083
1.02078
1.02072
1.02067
1.02062
1.02056
1.02052
1.02048
1.02047
1.02046
1.02044
1.02044
1.02043
1.02043
1.02042
1.02041
1.02041
1.02041
1.0204
1.02039
1.02039
1.02038
1.02037
1.02036
1.02034
1.02032
1.0203
1.02027
1.02025
1.02024
1.02023
1.02021
1.0202
1.0202
1.0202
1.02019
1.02018
1.02018
1.02017
1.02017
1.02016
1.02017
1.02016
1.02016
1.02014
1.02014
1.02012
1.02011
1.02008
1.02007
1.02006
1.02004
1.02001
1.01999
1.01997
1.01995
1.01993
1.01992
1.01992
1.01991
1.0199
1.01988
1.01988
1.01987
1.01986
1.01986
1.01986
1.01986
1.01985
1.01984
1.01984
1.01983
1.01982
1.01981
1.01981
1.0198
1.01979
1.01978
1.01976
1.01976
1.01974
1.01974
1.01975
1.01976
1.01975
1.01974
1.01974
1.01974
1.01973
1.01972
1.01971
1.0197
1.01968
1.01964
1.01958
1.01949
1.01936
1.01914
1.01881
1.01833
1.01761
1.01653
1.01497
1.01273
1.0096
1.00525
0.999346
0.991484
0.981254
0.968285
0.952261
0.93305
0.9108
0.885983
0.859511
0.832841
0.808106
0.788036
0.774213
0.766935
0.765792
0.765814
0.765751
0.765629
0.765525
0.765517
0.765574
0.76571
0.765897
0.766098
0.766326
0.766529
0.766591
0.766584
0.76654
0.766443
0.766298
0.766134
0.766029
0.766016
0.766035
0.766086
0.76617
0.766233
0.766247
0.766244
0.766218
0.766156
0.766081
0.766046
0.766044
0.766058
0.766098
0.766153
0.766183
0.766184
0.766172
0.766139
0.766079
0.766008
0.765959
0.76595
0.765956
0.765977
0.766015
0.766054
0.766078
0.766083
0.766078
0.766061
0.766029
0.765997
0.765987
0.765987
0.765992
0.766004
0.766016
0.766017
0.766012
0.765998
0.765972
0.765935
0.765902
0.765897
0.765911
0.765936
0.76597
0.766009
0.766046
0.76607
0.766078
0.766078
0.766064
0.766038
0.766014
0.766005
0.766006
0.766017
0.766039
0.76607
0.766105
0.766143
0.766159
0.766149
0.766131
0.766124
0.766123
0.766122
0.766118
0.766109
0.766091
0.766062
0.766025
0.765983
0.765942
0.765905
0.765876
0.765858
0.765849
0.765843
0.765838
0.765831
0.765819
0.765802
0.76578
0.765755
0.76573
0.765708
0.765692
0.765683
0.765677
0.765673
0.765667
0.765658
0.765646
0.76563
0.765609
0.765586
0.765565
0.765548
0.765534
0.765523
0.765514
0.765504
0.765492
0.765477
0.765458
0.765437
0.765414
0.765392
0.765373
0.765358
0.765346
0.765335
0.765325
0.765312
0.765297
0.765278
0.765256
0.765232
0.765208
0.765186
0.765167
0.765151
0.765136
0.765122
0.765107
0.765091
0.765072
0.765051
0.765029
0.765007
0.764986
0.764967
0.764951
0.764937
0.764922
0.764907
0.76489
0.764871
0.76485
0.764828
0.764807
0.764787
0.76477
0.764756
0.764743
0.764731
0.764718
0.764704
0.764686
0.764666
0.764643
0.764618
0.764594
0.76457
0.764549
0.764529
0.764509
0.764489
0.764467
0.764442
0.764413
0.764384
0.764361
0.764351
0.764349
0.764349
0.76435
0.764351
0.764355
0.764362
0.764371
0.764382
0.764396
0.764412
0.764429
0.764447
0.764466
0.764487
0.764509
0.764533
0.764559
0.764588
0.76462
0.764655
0.764694
0.764737
0.764786
0.76484
0.7649
0.764967
0.76504
0.765117
0.765197
0.765278
0.765356
0.765428
0.765486
0.76552
0.765531
0.765532
0.765532
0.765531
0.765531
0.76553
0.765528
0.765526
0.765524
0.76552
0.765516
0.765513
0.765511
0.765511
0.765511
0.765511
0.765512
0.765513
0.765515
0.765517
0.76552
0.765523
0.765526
0.765529
0.765531
0.765534
0.765538
0.765542
0.765547
0.765552
0.765559
0.765566
0.765573
0.765579
0.765585
0.76559
0.765594
0.765598
0.765602
0.765607
0.765609
0.765608
0.765592
0.765482
0.764768
0.760269
0.733156
0.597928
0.23226
0.0120867
4.7301e-05
1.09091e-08
3.22482e-13
3.85923e-14
3.9127e-14
3.65973e-14
3.37924e-14
2.75398e-14
2.66466e-14
2.52412e-14
3.1184e-14
3.35549e-14
3.75509e-14
4.33027e-14
4.68429e-14
4.87439e-14
5.13451e-14
5.47087e-14
5.27233e-14
5.35963e-14
5.01784e-14
4.2988e-14
4.1315e-14
3.5262e-14
3.26739e-14
3.06423e-14
3.47491e-14
4.11814e-14
4.14805e-14
3.84136e-14
3.40003e-14
3.21206e-14
2.84411e-14
2.42283e-14
2.15777e-14
1.85566e-14
1.49266e-14
1.34181e-14
1.52262e-14
1.96471e-14
2.46198e-14
3.01612e-14
3.0464e-14
3.08198e-14
3.27854e-14
2.872e-14
2.94834e-14
3.05887e-14
2.73571e-14
2.52487e-14
2.56994e-14
2.43095e-14
2.08238e-14
2.03157e-14
2.11399e-14
2.07989e-14
2.29493e-14
2.47594e-14
2.62168e-14
2.4904e-14
2.1635e-14
1.95307e-14
2.03055e-14
2.41373e-14
2.67684e-14
2.81546e-14
2.95152e-14
2.86737e-14
2.60181e-14
2.36889e-14
2.1981e-14
2.73261e-14
3.73447e-14
4.19572e-14
4.77125e-14
5.20523e-14
5.01423e-14
5.29093e-14
5.19875e-14
4.8983e-14
4.75254e-14
4.67075e-14
4.58516e-14
4.71183e-14
1.132
1.132
1.132
1.132
1.132
1.132
1.132
1.132
1.132
1.132
1.132
1.132
1.132
1.132
1.132
1.132
1.132
1.132
1.132
1.132
1.132
1.132
1.13196
1.13085
1.10949
1.03755
1.01957
1.0193
1.01934
1.01944
1.01945
1.01939
1.01929
1.01913
1.01893
1.0188
1.01878
1.01877
1.0188
1.01886
1.01894
1.01899
1.01899
1.01898
1.01895
1.01891
1.01888
1.01888
1.01891
1.01895
1.01902
1.01909
1.01914
1.01916
1.01916
1.01914
1.01911
1.01907
1.01906
1.01906
1.01908
1.01911
1.01914
1.01917
1.01917
1.01917
1.01915
1.01912
1.0191
1.01908
1.01907
1.01907
1.01909
1.0191
1.0191
1.0191
1.01908
1.01905
1.01901
1.01898
1.01897
1.01897
1.01899
1.01903
1.01906
1.01909
1.01911
1.01911
1.01911
1.01909
1.01909
1.01908
1.01908
1.0191
1.01912
1.01914
1.01915
1.01914
1.01913
1.01911
1.01909
1.01908
1.01907
1.01907
1.01908
1.01909
1.01909
1.0191
1.0191
1.0191
1.0191
1.0191
1.0191
1.0191
1.0191
1.0191
1.01909
1.01908
1.01907
1.01906
1.01905
1.01905
1.01905
1.01905
1.01906
1.01906
1.01906
1.01906
1.01907
1.01907
1.01908
1.01909
1.0191
1.01911
1.01911
1.01912
1.01912
1.01912
1.01912
1.01912
1.01911
1.01911
1.01909
1.01907
1.01906
1.01906
1.01906
1.01906
1.01907
1.01908
1.01909
1.0191
1.0191
1.01909
1.01909
1.01908
1.01908
1.01908
1.01909
1.0191
1.01911
1.01911
1.0191
1.01904
1.01892
1.01892
1.01913
1.01988
1.02135
1.02342
1.02578
1.02811
1.0302
1.03186
1.03313
1.03391
1.03435
1.03435
1.03423
1.03401
1.03375
1.03353
1.0334
1.03341
1.03347
1.03356
1.03358
1.03355
1.03349
1.03333
1.03294
1.03217
1.03092
1.02944
1.02811
1.02709
1.02629
1.02562
1.02504
1.02451
1.02402
1.02357
1.02316
1.02278
1.02245
1.02216
1.02192
1.02173
1.02157
1.02144
1.02134
1.02126
1.0212
1.02115
1.02111
1.02106
1.02103
1.02099
1.02095
1.02091
1.02087
1.02083
1.02078
1.02072
1.02067
1.02062
1.02056
1.02052
1.02048
1.02047
1.02046
1.02044
1.02044
1.02043
1.02043
1.02042
1.02041
1.02041
1.02041
1.0204
1.02039
1.02039
1.02038
1.02037
1.02036
1.02034
1.02032
1.0203
1.02027
1.02025
1.02024
1.02023
1.02021
1.0202
1.0202
1.0202
1.02019
1.02018
1.02018
1.02017
1.02017
1.02016
1.02017
1.02016
1.02016
1.02014
1.02014
1.02012
1.02011
1.02008
1.02007
1.02006
1.02004
1.02001
1.01999
1.01997
1.01995
1.01993
1.01992
1.01992
1.01991
1.0199
1.01988
1.01987
1.01987
1.01986
1.01986
1.01986
1.01986
1.01985
1.01984
1.01984
1.01983
1.01982
1.01981
1.01981
1.0198
1.01979
1.01978
1.01976
1.01976
1.01974
1.01974
1.01974
1.01975
1.01975
1.01975
1.01974
1.01974
1.01973
1.01972
1.01971
1.0197
1.01968
1.01965
1.01958
1.01949
1.01936
1.01914
1.01882
1.01833
1.01761
1.01654
1.015
1.01278
1.00967
1.00536
0.999515
0.991711
0.981545
0.968639
0.952676
0.933514
0.911284
0.886445
0.859908
0.833137
0.808279
0.7881
0.774233
0.766958
0.765808
0.765831
0.765767
0.765643
0.765534
0.765522
0.765576
0.765709
0.765894
0.766096
0.766323
0.766527
0.766588
0.766581
0.766538
0.766441
0.766296
0.766132
0.766027
0.766014
0.766033
0.766083
0.766168
0.766231
0.766245
0.766242
0.766216
0.766154
0.76608
0.766045
0.766042
0.766057
0.766096
0.766152
0.766182
0.766183
0.766171
0.766137
0.766078
0.766006
0.765958
0.765949
0.765954
0.765975
0.766014
0.766053
0.766077
0.766081
0.766077
0.76606
0.766028
0.765996
0.765986
0.765986
0.765991
0.766003
0.766013
0.766013
0.766008
0.765994
0.765967
0.765929
0.765897
0.765894
0.76591
0.765939
0.765976
0.766018
0.766059
0.766089
0.766101
0.766102
0.766089
0.76606
0.766031
0.766019
0.766015
0.766022
0.766041
0.766067
0.766099
0.766136
0.766151
0.766141
0.766124
0.766118
0.766119
0.76612
0.766117
0.766108
0.766091
0.766063
0.766026
0.765985
0.765943
0.765907
0.765878
0.76586
0.765851
0.765845
0.765839
0.765832
0.76582
0.765803
0.765781
0.765756
0.76573
0.765708
0.765692
0.765683
0.765677
0.765673
0.765667
0.765658
0.765646
0.76563
0.765609
0.765586
0.765565
0.765548
0.765534
0.765523
0.765514
0.765504
0.765492
0.765477
0.765458
0.765437
0.765414
0.765392
0.765373
0.765358
0.765346
0.765335
0.765325
0.765312
0.765297
0.765278
0.765256
0.765232
0.765208
0.765186
0.765167
0.765151
0.765136
0.765122
0.765107
0.765091
0.765072
0.765051
0.765029
0.765007
0.764986
0.764967
0.764951
0.764937
0.764922
0.764907
0.76489
0.764871
0.76485
0.764828
0.764807
0.764787
0.76477
0.764756
0.764743
0.764731
0.764718
0.764704
0.764686
0.764666
0.764643
0.764618
0.764594
0.76457
0.764549
0.764529
0.764509
0.764489
0.764467
0.764442
0.764413
0.764384
0.764361
0.76435
0.764349
0.764349
0.764349
0.764351
0.764355
0.764362
0.764371
0.764382
0.764396
0.764412
0.764429
0.764447
0.764466
0.764487
0.764509
0.764533
0.764559
0.764588
0.76462
0.764655
0.764694
0.764737
0.764786
0.76484
0.7649
0.764967
0.76504
0.765117
0.765197
0.765278
0.765356
0.765428
0.765486
0.76552
0.765531
0.765532
0.765532
0.765531
0.765531
0.76553
0.765528
0.765526
0.765524
0.76552
0.765516
0.765513
0.765511
0.765511
0.765511
0.765511
0.765512
0.765513
0.765515
0.765517
0.76552
0.765523
0.765526
0.765529
0.765531
0.765534
0.765538
0.765542
0.765547
0.765552
0.765559
0.765566
0.765573
0.765579
0.765585
0.76559
0.765594
0.765598
0.765602
0.765607
0.765609
0.765608
0.765592
0.765482
0.764768
0.760269
0.733155
0.597928
0.23226
0.0120868
4.73011e-05
1.09091e-08
3.22448e-13
3.08329e-14
2.98974e-14
2.94786e-14
2.88554e-14
2.49084e-14
2.09664e-14
2.21392e-14
2.69018e-14
3.06928e-14
3.39541e-14
3.90949e-14
4.35067e-14
4.57976e-14
4.68224e-14
4.71524e-14
4.49855e-14
4.66215e-14
4.28752e-14
3.73823e-14
3.52314e-14
2.96987e-14
2.78927e-14
3.1316e-14
3.9895e-14
4.05151e-14
3.71329e-14
3.4561e-14
3.48024e-14
3.25298e-14
2.84341e-14
2.3215e-14
1.91432e-14
1.5761e-14
1.32174e-14
1.03839e-14
1.26346e-14
1.72591e-14
2.07887e-14
2.40415e-14
2.56822e-14
2.51308e-14
2.56795e-14
2.35792e-14
2.32431e-14
2.32373e-14
2.18228e-14
1.89357e-14
1.86077e-14
1.86551e-14
1.65834e-14
1.67653e-14
1.77229e-14
1.8831e-14
1.9091e-14
2.0889e-14
2.2431e-14
2.10531e-14
1.94084e-14
1.64581e-14
1.5886e-14
1.85982e-14
2.19155e-14
2.52845e-14
2.57547e-14
2.59638e-14
2.14428e-14
2.21382e-14
2.41962e-14
3.01567e-14
3.24618e-14
3.80802e-14
4.67313e-14
5.06375e-14
5.08322e-14
4.72151e-14
4.46152e-14
4.68892e-14
4.91661e-14
4.60321e-14
4.7018e-14
4.42758e-14
1.132
1.132
1.132
1.132
1.132
1.132
1.132
1.132
1.132
1.132
1.132
1.132
1.132
1.132
1.132
1.132
1.132
1.132
1.132
1.132
1.132
1.132
1.13196
1.13085
1.10949
1.03755
1.01957
1.0193
1.01934
1.01944
1.01945
1.01939
1.01929
1.01913
1.01893
1.0188
1.01878
1.01877
1.0188
1.01886
1.01894
1.01899
1.01899
1.01898
1.01895
1.01891
1.01888
1.01888
1.01891
1.01895
1.01902
1.01909
1.01914
1.01916
1.01916
1.01914
1.01911
1.01907
1.01906
1.01906
1.01908
1.01911
1.01914
1.01917
1.01917
1.01917
1.01915
1.01912
1.0191
1.01908
1.01907
1.01907
1.01909
1.0191
1.0191
1.0191
1.01908
1.01905
1.01901
1.01898
1.01897
1.01897
1.01899
1.01903
1.01906
1.01909
1.01911
1.01911
1.01911
1.01909
1.01909
1.01908
1.01908
1.0191
1.01912
1.01914
1.01915
1.01914
1.01913
1.01911
1.01909
1.01908
1.01907
1.01907
1.01908
1.01909
1.01909
1.0191
1.0191
1.0191
1.0191
1.0191
1.0191
1.0191
1.0191
1.0191
1.01909
1.01908
1.01907
1.01906
1.01905
1.01905
1.01905
1.01905
1.01906
1.01906
1.01906
1.01906
1.01907
1.01907
1.01908
1.01909
1.0191
1.01911
1.01911
1.01912
1.01912
1.01912
1.01912
1.01912
1.01911
1.01911
1.01909
1.01907
1.01906
1.01906
1.01906
1.01906
1.01907
1.01908
1.01909
1.0191
1.0191
1.01909
1.01909
1.01908
1.01908
1.01908
1.01909
1.0191
1.01911
1.01911
1.0191
1.01904
1.01892
1.01892
1.01913
1.01988
1.02135
1.02342
1.02578
1.0281
1.03019
1.03184
1.03312
1.03392
1.03437
1.03437
1.03425
1.03401
1.03374
1.03351
1.03338
1.03339
1.03346
1.03357
1.0336
1.03356
1.03349
1.03332
1.03294
1.03217
1.03092
1.02944
1.02811
1.02709
1.02629
1.02563
1.02504
1.02451
1.02402
1.02357
1.02316
1.02278
1.02245
1.02216
1.02192
1.02173
1.02157
1.02144
1.02134
1.02126
1.0212
1.02115
1.02111
1.02106
1.02103
1.02099
1.02095
1.02091
1.02087
1.02083
1.02078
1.02072
1.02067
1.02062
1.02056
1.02052
1.02048
1.02047
1.02046
1.02044
1.02044
1.02043
1.02043
1.02042
1.02041
1.02041
1.02041
1.0204
1.02039
1.02039
1.02038
1.02037
1.02036
1.02034
1.02032
1.0203
1.02027
1.02025
1.02024
1.02023
1.02021
1.0202
1.0202
1.0202
1.02019
1.02018
1.02018
1.02017
1.02017
1.02016
1.02017
1.02016
1.02016
1.02014
1.02014
1.02012
1.0201
1.02008
1.02007
1.02006
1.02004
1.02001
1.01999
1.01997
1.01995
1.01993
1.01992
1.01992
1.01991
1.0199
1.01988
1.01987
1.01987
1.01986
1.01986
1.01986
1.01986
1.01985
1.01984
1.01984
1.01983
1.01982
1.01981
1.0198
1.0198
1.01979
1.01978
1.01976
1.01976
1.01974
1.01974
1.01974
1.01975
1.01975
1.01975
1.01974
1.01974
1.01973
1.01972
1.01971
1.0197
1.01968
1.01965
1.01959
1.0195
1.01937
1.01915
1.01883
1.01834
1.01762
1.01655
1.01502
1.01283
1.00975
1.00548
0.999684
0.991927
0.981803
0.968925
0.952969
0.933791
0.911513
0.886603
0.860008
0.833213
0.808359
0.78819
0.774318
0.767019
0.765837
0.765855
0.765789
0.765662
0.765547
0.765531
0.76558
0.765709
0.765893
0.766093
0.766319
0.766522
0.766584
0.766576
0.766533
0.766436
0.766292
0.766128
0.766023
0.76601
0.766029
0.766079
0.766164
0.766227
0.766241
0.766238
0.766213
0.766151
0.766077
0.766042
0.76604
0.766054
0.766093
0.766149
0.766179
0.76618
0.766168
0.766135
0.766075
0.766004
0.765955
0.765947
0.765952
0.765973
0.766011
0.76605
0.766074
0.766079
0.766074
0.766058
0.766026
0.765994
0.765984
0.765984
0.765988
0.765999
0.766009
0.766007
0.766001
0.765985
0.765957
0.765919
0.765888
0.765889
0.765909
0.765944
0.76599
0.766041
0.766089
0.766127
0.766147
0.76615
0.766138
0.766106
0.766069
0.766049
0.766039
0.766038
0.766048
0.766067
0.766091
0.766123
0.766137
0.766127
0.76611
0.766106
0.766111
0.766114
0.766113
0.766107
0.766092
0.766065
0.766029
0.765988
0.765947
0.76591
0.765881
0.765863
0.765854
0.765848
0.765842
0.765834
0.765822
0.765805
0.765782
0.765757
0.765731
0.765708
0.765692
0.765683
0.765677
0.765672
0.765667
0.765658
0.765646
0.76563
0.765609
0.765586
0.765565
0.765548
0.765535
0.765524
0.765514
0.765504
0.765492
0.765477
0.765458
0.765437
0.765414
0.765392
0.765373
0.765358
0.765346
0.765336
0.765325
0.765312
0.765297
0.765278
0.765256
0.765232
0.765208
0.765186
0.765167
0.765151
0.765136
0.765122
0.765107
0.765091
0.765072
0.765051
0.765029
0.765007
0.764986
0.764967
0.764951
0.764937
0.764923
0.764907
0.76489
0.764871
0.76485
0.764828
0.764806
0.764787
0.76477
0.764756
0.764743
0.764731
0.764718
0.764704
0.764686
0.764666
0.764643
0.764618
0.764594
0.76457
0.764549
0.764529
0.764509
0.764489
0.764467
0.764442
0.764413
0.764384
0.764361
0.76435
0.764349
0.764349
0.764349
0.764351
0.764355
0.764361
0.764371
0.764382
0.764396
0.764412
0.764429
0.764447
0.764466
0.764487
0.764509
0.764533
0.764559
0.764588
0.76462
0.764655
0.764694
0.764737
0.764786
0.76484
0.7649
0.764967
0.76504
0.765117
0.765197
0.765278
0.765356
0.765429
0.765486
0.76552
0.765531
0.765532
0.765532
0.765531
0.765531
0.76553
0.765528
0.765526
0.765524
0.76552
0.765516
0.765513
0.765511
0.765511
0.765511
0.765511
0.765512
0.765513
0.765515
0.765517
0.76552
0.765523
0.765526
0.765529
0.765531
0.765534
0.765538
0.765542
0.765547
0.765552
0.765559
0.765566
0.765573
0.76558
0.765585
0.76559
0.765594
0.765598
0.765602
0.765607
0.765609
0.765608
0.765592
0.765481
0.764768
0.760269
0.733155
0.597928
0.23226
0.0120868
4.73012e-05
1.09092e-08
3.23728e-13
2.49444e-14
2.49713e-14
2.35837e-14
2.4263e-14
2.55799e-14
2.27998e-14
2.261e-14
2.50861e-14
2.97075e-14
3.11266e-14
3.57667e-14
4.005e-14
4.09547e-14
3.9497e-14
3.77823e-14
3.95537e-14
3.94375e-14
3.68933e-14
3.74472e-14
3.43853e-14
2.79915e-14
2.83564e-14
3.32435e-14
3.6543e-14
3.65554e-14
3.64163e-14
3.48842e-14
3.25389e-14
2.93648e-14
2.64923e-14
2.27695e-14
1.9305e-14
1.47009e-14
1.3073e-14
1.20903e-14
1.27551e-14
1.78963e-14
1.9617e-14
2.28139e-14
2.40717e-14
2.42865e-14
2.64498e-14
2.51344e-14
2.30404e-14
2.2546e-14
1.90526e-14
1.50733e-14
1.44825e-14
1.21624e-14
1.11429e-14
1.22129e-14
1.41704e-14
1.76497e-14
1.91614e-14
2.00877e-14
2.06514e-14
1.98754e-14
1.94332e-14
1.63993e-14
1.39352e-14
1.36795e-14
1.85831e-14
2.06529e-14
2.25424e-14
2.24213e-14
1.89097e-14
2.01203e-14
2.32592e-14
2.81834e-14
3.02547e-14
3.71769e-14
4.2831e-14
4.53017e-14
4.588e-14
4.45797e-14
4.15237e-14
4.36547e-14
4.52359e-14
4.23823e-14
4.30314e-14
4.32744e-14
1.132
1.132
1.132
1.132
1.132
1.132
1.132
1.132
1.132
1.132
1.132
1.132
1.132
1.132
1.132
1.132
1.132
1.132
1.132
1.132
1.132
1.132
1.13196
1.13085
1.10949
1.03755
1.01957
1.0193
1.01934
1.01944
1.01945
1.01939
1.01929
1.01913
1.01893
1.0188
1.01878
1.01877
1.0188
1.01886
1.01894
1.01899
1.01899
1.01898
1.01895
1.01891
1.01888
1.01888
1.01891
1.01895
1.01902
1.01909
1.01914
1.01916
1.01916
1.01914
1.01911
1.01907
1.01906
1.01906
1.01908
1.01911
1.01914
1.01917
1.01917
1.01917
1.01915
1.01912
1.0191
1.01908
1.01907
1.01907
1.01909
1.0191
1.0191
1.0191
1.01908
1.01905
1.01901
1.01898
1.01897
1.01897
1.01899
1.01903
1.01906
1.01909
1.01911
1.01911
1.01911
1.01909
1.01909
1.01908
1.01908
1.0191
1.01912
1.01914
1.01915
1.01914
1.01913
1.01911
1.01909
1.01908
1.01907
1.01907
1.01908
1.01909
1.01909
1.0191
1.0191
1.0191
1.0191
1.0191
1.0191
1.0191
1.0191
1.0191
1.01909
1.01908
1.01907
1.01906
1.01905
1.01905
1.01905
1.01905
1.01906
1.01906
1.01906
1.01906
1.01907
1.01907
1.01908
1.01909
1.0191
1.01911
1.01911
1.01912
1.01912
1.01912
1.01912
1.01912
1.01911
1.01911
1.01909
1.01907
1.01906
1.01906
1.01906
1.01906
1.01907
1.01908
1.01909
1.0191
1.0191
1.01909
1.01909
1.01908
1.01908
1.01908
1.01909
1.0191
1.01911
1.01911
1.0191
1.01904
1.01892
1.01892
1.01913
1.01989
1.02135
1.02343
1.02579
1.0281
1.03018
1.03183
1.03311
1.03392
1.03439
1.03439
1.03426
1.03401
1.03373
1.03349
1.03336
1.03337
1.03345
1.03357
1.03362
1.03357
1.03348
1.03332
1.03294
1.03217
1.03092
1.02944
1.02811
1.02709
1.02629
1.02563
1.02504
1.02451
1.02402
1.02357
1.02316
1.02279
1.02245
1.02216
1.02192
1.02173
1.02157
1.02144
1.02134
1.02126
1.0212
1.02115
1.02111
1.02107
1.02103
1.02099
1.02095
1.02091
1.02087
1.02083
1.02078
1.02072
1.02067
1.02062
1.02057
1.02052
1.02048
1.02047
1.02046
1.02044
1.02044
1.02043
1.02043
1.02042
1.02041
1.02041
1.02041
1.0204
1.02039
1.02039
1.02038
1.02038
1.02036
1.02034
1.02032
1.0203
1.02027
1.02025
1.02024
1.02023
1.02021
1.0202
1.0202
1.0202
1.02019
1.02018
1.02018
1.02017
1.02017
1.02016
1.02017
1.02016
1.02016
1.02014
1.02013
1.02012
1.0201
1.02009
1.02007
1.02005
1.02004
1.02001
1.01999
1.01997
1.01995
1.01994
1.01992
1.01992
1.01991
1.0199
1.01988
1.01987
1.01987
1.01986
1.01986
1.01986
1.01986
1.01985
1.01984
1.01984
1.01983
1.01982
1.01981
1.0198
1.0198
1.01979
1.01978
1.01976
1.01976
1.01974
1.01974
1.01974
1.01975
1.01976
1.01976
1.01974
1.01974
1.01973
1.01972
1.01971
1.0197
1.01968
1.01966
1.0196
1.01951
1.01938
1.01916
1.01884
1.01835
1.01762
1.01657
1.01505
1.01286
1.0098
1.00557
0.999812
0.992084
0.981984
0.969106
0.953127
0.933894
0.911535
0.886574
0.859971
0.833212
0.808408
0.788264
0.774397
0.76707
0.765859
0.765876
0.765809
0.765682
0.765563
0.765541
0.765586
0.765711
0.765891
0.76609
0.766315
0.766516
0.766577
0.76657
0.766526
0.76643
0.766286
0.766122
0.766016
0.766004
0.766022
0.766073
0.766158
0.766221
0.766236
0.766232
0.766207
0.766146
0.766072
0.766037
0.766035
0.766049
0.766089
0.766145
0.766175
0.766176
0.766164
0.766131
0.766071
0.766
0.765951
0.765943
0.765948
0.765969
0.766007
0.766046
0.76607
0.766075
0.76607
0.766054
0.766022
0.765991
0.765981
0.76598
0.765984
0.765994
0.766001
0.765998
0.76599
0.765973
0.765943
0.765905
0.765876
0.76588
0.765905
0.765949
0.766008
0.766074
0.766136
0.766187
0.766217
0.766224
0.766211
0.766174
0.766126
0.766095
0.766076
0.766065
0.766063
0.766072
0.766087
0.76611
0.766119
0.766107
0.766091
0.766089
0.766098
0.766105
0.766108
0.766104
0.766091
0.766067
0.766032
0.765991
0.765951
0.765914
0.765886
0.765868
0.765858
0.765852
0.765845
0.765837
0.765824
0.765806
0.765784
0.765757
0.765731
0.765708
0.765692
0.765682
0.765677
0.765672
0.765666
0.765658
0.765646
0.765629
0.765609
0.765586
0.765566
0.765549
0.765535
0.765524
0.765514
0.765504
0.765492
0.765477
0.765458
0.765437
0.765414
0.765392
0.765373
0.765358
0.765346
0.765336
0.765325
0.765312
0.765297
0.765278
0.765257
0.765233
0.765208
0.765186
0.765167
0.765151
0.765136
0.765122
0.765107
0.765091
0.765072
0.765051
0.765029
0.765007
0.764986
0.764967
0.764951
0.764937
0.764923
0.764907
0.76489
0.764871
0.76485
0.764828
0.764806
0.764787
0.76477
0.764756
0.764743
0.764731
0.764718
0.764704
0.764686
0.764666
0.764643
0.764618
0.764594
0.76457
0.764549
0.764529
0.764509
0.764489
0.764467
0.764442
0.764413
0.764384
0.764361
0.76435
0.764349
0.764349
0.764349
0.764351
0.764355
0.764361
0.764371
0.764382
0.764396
0.764412
0.764429
0.764447
0.764466
0.764487
0.764509
0.764533
0.764559
0.764588
0.76462
0.764655
0.764694
0.764737
0.764786
0.76484
0.7649
0.764967
0.76504
0.765117
0.765197
0.765278
0.765356
0.765429
0.765486
0.76552
0.765531
0.765532
0.765532
0.765531
0.765531
0.76553
0.765528
0.765526
0.765524
0.76552
0.765516
0.765513
0.765511
0.765511
0.765511
0.765511
0.765512
0.765513
0.765515
0.765517
0.76552
0.765523
0.765526
0.765529
0.765531
0.765534