/*--------------------------------*- C++ -*----------------------------------*\
| =========                 |                                                 |
| \\      /  F ield         | OpenFOAM: The Open Source CFD Toolbox           |
|  \\    /   O peration     | Version:  2406                                  |
|   \\  /    A nd           | Website:  www.openfoam.com                      |
|    \\/     M anipulation  |                                                 |
\*---------------------------------------------------------------------------*/
FoamFile
{
    version     2.0;
    format      ascii;
    arch        "LSB;label=32;scalar=64";
    class       volScalarField;
    location    "0.045";
    object      rho;
}
// * * * * * * * * * * * * * * * * * * * * * * * * * * * * * * * * * * * * * //

dimensions      [1 -3 0 0 0 0 0];

internalField   nonuniform List<scalar> 
83682
(
4.32005
4.32005
4.32005
4.32005
4.32005
4.32005
4.32005
4.32005
4.32005
4.32005
4.32005
4.32005
4.32005
4.32005
4.32005
4.32005
4.32005
4.32005
4.32005
4.32005
4.32005
4.32005
4.3202
4.32411
4.40019
4.6683
4.73565
4.73729
4.73861
4.74041
4.74134
4.74155
4.74144
4.74081
4.73969
4.73895
4.73896
4.73916
4.73963
4.74043
4.74134
4.74194
4.74206
4.74192
4.74146
4.74077
4.74016
4.73986
4.73983
4.73996
4.7403
4.74068
4.74082
4.74072
4.74047
4.74003
4.73955
4.73919
4.73911
4.73919
4.73942
4.73974
4.74002
4.74026
4.74027
4.74016
4.73996
4.73981
4.73973
4.73974
4.73986
4.74009
4.74036
4.74053
4.74057
4.74052
4.74037
4.74013
4.73993
4.73979
4.73978
4.73987
4.74005
4.74025
4.74037
4.74046
4.74048
4.74038
4.74023
4.74009
4.74
4.73994
4.73996
4.74002
4.74012
4.74021
4.74022
4.7402
4.74015
4.74003
4.7399
4.73981
4.73975
4.73975
4.7398
4.73989
4.73997
4.74006
4.74015
4.74019
4.74019
4.74017
4.74016
4.74016
4.74016
4.74018
4.74021
4.74021
4.7402
4.74017
4.74011
4.74003
4.73995
4.73992
4.73992
4.73995
4.73999
4.74003
4.74006
4.74008
4.74007
4.74005
4.74004
4.74005
4.74008
4.74011
4.74017
4.74021
4.74022
4.74019
4.74012
4.74002
4.73993
4.73984
4.7398
4.73982
4.73985
4.7399
4.73996
4.74002
4.74006
4.74011
4.74013
4.74013
4.74012
4.74012
4.74012
4.74012
4.74013
4.74016
4.7402
4.74021
4.74025
4.74047
4.74087
4.74076
4.73981
4.73675
4.7309
4.72275
4.71352
4.70443
4.69633
4.68992
4.6851
4.68232
4.68084
4.68086
4.68121
4.68195
4.68284
4.6836
4.68404
4.68407
4.68388
4.68359
4.68363
4.68355
4.68366
4.68422
4.68569
4.68867
4.6935
4.69927
4.70445
4.70848
4.71164
4.71429
4.71663
4.71873
4.72066
4.72243
4.72406
4.72554
4.72685
4.72798
4.72892
4.72967
4.73027
4.73072
4.73105
4.73128
4.73145
4.7316
4.73178
4.73195
4.73211
4.73229
4.73249
4.73272
4.73295
4.73316
4.73337
4.73357
4.73378
4.73397
4.73416
4.73432
4.73443
4.73447
4.73449
4.73451
4.73452
4.73451
4.73451
4.73452
4.73454
4.73455
4.73456
4.7346
4.73466
4.73472
4.73479
4.73489
4.735
4.73508
4.73516
4.73524
4.73534
4.73538
4.7354
4.73541
4.73542
4.7354
4.73537
4.73537
4.7354
4.73543
4.73544
4.73547
4.7355
4.73553
4.73554
4.73558
4.73566
4.73576
4.73584
4.73591
4.73599
4.73607
4.73613
4.73617
4.73622
4.73628
4.7363
4.73631
4.73633
4.73638
4.73643
4.73644
4.73647
4.73654
4.73661
4.73665
4.73671
4.73677
4.73684
4.73689
4.73693
4.73698
4.73702
4.73705
4.73708
4.73711
4.73713
4.73713
4.73713
4.73713
4.73713
4.73713
4.7371
4.73712
4.73711
4.73709
4.73705
4.73709
4.73713
4.73717
4.73721
4.73728
4.73731
4.7373
4.73724
4.73711
4.73689
4.73653
4.73585
4.73467
4.73284
4.72992
4.72544
4.7186
4.70857
4.69391
4.67292
4.64331
4.60255
4.5475
4.47496
4.38182
4.26546
4.12451
3.95938
3.77285
3.5707
3.36195
3.15875
2.97623
2.83144
2.73512
2.6875
2.67735
2.67661
2.67647
2.67619
2.67617
2.67664
2.67747
2.67868
2.68006
2.68134
2.68245
2.68328
2.68348
2.68344
2.68323
2.6828
2.68219
2.68149
2.68098
2.68081
2.68076
2.68086
2.68112
2.68133
2.68139
2.68142
2.6814
2.68127
2.6811
2.68103
2.68106
2.68112
2.68126
2.68143
2.68151
2.68148
2.68141
2.68128
2.68106
2.6808
2.68063
2.68059
2.6806
2.68066
2.6808
2.68094
2.68104
2.68108
2.68109
2.68107
2.68098
2.68089
2.68086
2.68086
2.68086
2.68089
2.68092
2.68092
2.6809
2.68086
2.68078
2.68066
2.68055
2.6805
2.68048
2.6805
2.68053
2.68059
2.68064
2.68065
2.68064
2.68063
2.68063
2.68062
2.68067
2.6808
2.681
2.68128
2.68162
2.68202
2.68242
2.68281
2.68302
2.68308
2.68304
2.68298
2.68295
2.68289
2.6828
2.68267
2.68249
2.68227
2.68203
2.68178
2.68156
2.68137
2.68124
2.68116
2.68112
2.68109
2.68106
2.68103
2.68097
2.6809
2.68081
2.6807
2.6806
2.68052
2.68045
2.68041
2.68039
2.68037
2.68034
2.68031
2.68027
2.68021
2.68014
2.68006
2.67998
2.67991
2.67986
2.67981
2.67977
2.67973
2.67968
2.67962
2.67956
2.67948
2.67941
2.67934
2.67928
2.67923
2.67919
2.67916
2.67913
2.67909
2.67904
2.67898
2.67891
2.67882
2.67874
2.67866
2.67859
2.67854
2.67848
2.67843
2.67837
2.67832
2.67825
2.67819
2.67812
2.67805
2.67798
2.67792
2.67787
2.67783
2.67778
2.67774
2.67768
2.67762
2.67755
2.67747
2.6774
2.67734
2.67728
2.67723
2.67719
2.67715
2.67711
2.67707
2.67701
2.67695
2.67688
2.67681
2.67673
2.67666
2.67659
2.67653
2.67647
2.67641
2.67634
2.67626
2.67617
2.67608
2.67601
2.67597
2.67597
2.67597
2.67597
2.67598
2.67599
2.67601
2.67604
2.67608
2.67612
2.67617
2.67623
2.67629
2.67635
2.67641
2.67648
2.67656
2.67664
2.67673
2.67683
2.67694
2.67707
2.6772
2.67736
2.67753
2.67772
2.67793
2.67816
2.6784
2.67866
2.67891
2.67916
2.67939
2.67957
2.67968
2.67971
2.67972
2.67972
2.67971
2.67971
2.67971
2.6797
2.67969
2.67969
2.67967
2.67966
2.67965
2.67965
2.67965
2.67965
2.67965
2.67965
2.67965
2.67966
2.67967
2.67967
2.67968
2.67969
2.6797
2.67971
2.67972
2.67973
2.67974
2.67976
2.67978
2.6798
2.67982
2.67984
2.67986
2.67988
2.6799
2.67991
2.67992
2.67994
2.67995
2.67996
2.67996
2.67991
2.67956
2.6773
2.66305
2.57811
2.19958
1.50636
1.23475
1.22131
1.22125
1.22125
1.22125
1.22125
1.22125
1.22125
1.22125
1.22125
1.22125
1.22125
1.22125
1.22125
1.22125
1.22125
1.22125
1.22125
1.22125
1.22125
1.22125
1.22125
1.22125
1.22125
1.22125
1.22125
1.22125
1.22125
1.22125
1.22125
1.22125
1.22125
1.22125
1.22125
1.22125
1.22125
1.22125
1.22125
1.22125
1.22125
1.22125
1.22125
1.22125
1.22125
1.22125
1.22125
1.22125
1.22125
1.22125
1.22125
1.22125
1.22125
1.22125
1.22125
1.22125
1.22125
1.22125
1.22125
1.22125
1.22125
1.22125
1.22125
1.22125
1.22125
1.22125
1.22125
1.22125
1.22125
1.22125
1.22125
1.22125
1.22125
1.22125
1.22125
1.22125
1.22125
1.22125
1.22125
1.22125
1.22125
1.22125
1.22125
1.22125
1.22125
1.22125
4.32005
4.32005
4.32005
4.32005
4.32005
4.32005
4.32005
4.32005
4.32005
4.32005
4.32005
4.32005
4.32005
4.32005
4.32005
4.32005
4.32005
4.32005
4.32005
4.32005
4.32005
4.32005
4.3202
4.32411
4.40019
4.6683
4.73565
4.73729
4.73861
4.74041
4.74134
4.74155
4.74144
4.74081
4.73969
4.73895
4.73896
4.73916
4.73963
4.74043
4.74134
4.74194
4.74206
4.74192
4.74146
4.74077
4.74016
4.73986
4.73983
4.73996
4.7403
4.74068
4.74082
4.74072
4.74047
4.74003
4.73955
4.73919
4.73911
4.73919
4.73942
4.73974
4.74002
4.74026
4.74027
4.74016
4.73996
4.73981
4.73973
4.73974
4.73986
4.74009
4.74036
4.74053
4.74057
4.74052
4.74037
4.74013
4.73993
4.73979
4.73978
4.73987
4.74005
4.74025
4.74037
4.74046
4.74048
4.74038
4.74023
4.74009
4.74
4.73994
4.73996
4.74002
4.74012
4.74021
4.74022
4.7402
4.74015
4.74003
4.7399
4.73981
4.73975
4.73975
4.7398
4.73989
4.73997
4.74006
4.74015
4.74019
4.74019
4.74017
4.74016
4.74016
4.74016
4.74018
4.74021
4.74021
4.7402
4.74017
4.74011
4.74003
4.73995
4.73992
4.73992
4.73995
4.73999
4.74003
4.74006
4.74008
4.74007
4.74005
4.74004
4.74005
4.74008
4.74011
4.74017
4.74021
4.74022
4.74019
4.74012
4.74002
4.73993
4.73984
4.7398
4.73982
4.73985
4.7399
4.73996
4.74002
4.74006
4.74011
4.74013
4.74013
4.74012
4.74012
4.74012
4.74012
4.74013
4.74016
4.7402
4.74021
4.74025
4.74047
4.74087
4.74076
4.7398
4.73674
4.73089
4.72273
4.71351
4.70445
4.69638
4.69
4.68516
4.68228
4.68071
4.68074
4.68114
4.68194
4.68289
4.6837
4.68417
4.68416
4.68392
4.68357
4.68355
4.68352
4.68365
4.68421
4.68568
4.68866
4.69349
4.69926
4.70445
4.70847
4.71163
4.71428
4.71662
4.71873
4.72065
4.72243
4.72406
4.72554
4.72685
4.72798
4.72891
4.72967
4.73026
4.73072
4.73105
4.73128
4.73144
4.7316
4.73178
4.73195
4.73211
4.73229
4.73249
4.73272
4.73295
4.73316
4.73336
4.73357
4.73378
4.73397
4.73415
4.73432
4.73442
4.73447
4.73449
4.73451
4.73452
4.73451
4.73451
4.73452
4.73454
4.73455
4.73456
4.7346
4.73466
4.73472
4.73479
4.73489
4.735
4.73508
4.73516
4.73524
4.73534
4.73538
4.7354
4.73541
4.73542
4.7354
4.73537
4.73537
4.7354
4.73543
4.73544
4.73547
4.7355
4.73553
4.73554
4.73558
4.73566
4.73576
4.73584
4.73591
4.73599
4.73607
4.73613
4.73617
4.73622
4.73628
4.7363
4.73631
4.73634
4.73638
4.73643
4.73644
4.73647
4.73654
4.73661
4.73665
4.73671
4.73677
4.73684
4.73688
4.73693
4.73698
4.73703
4.73705
4.73708
4.73711
4.73713
4.73714
4.73713
4.73713
4.73713
4.73713
4.7371
4.73712
4.73711
4.73709
4.73706
4.73709
4.73713
4.73716
4.73721
4.73727
4.7373
4.73731
4.73725
4.73712
4.7369
4.73653
4.73585
4.73466
4.73283
4.72992
4.72543
4.71861
4.70858
4.69392
4.67294
4.64334
4.6026
4.54758
4.47511
4.38204
4.26579
4.12496
3.95996
3.77351
3.5714
3.36261
3.15929
2.97661
2.83167
2.73526
2.68761
2.67735
2.67661
2.67647
2.6762
2.67617
2.67664
2.67747
2.67868
2.68006
2.68134
2.68245
2.68327
2.68348
2.68343
2.68323
2.6828
2.68219
2.68149
2.68098
2.68081
2.68076
2.68086
2.68111
2.68133
2.68139
2.68142
2.6814
2.68127
2.6811
2.68103
2.68106
2.68112
2.68126
2.68143
2.68151
2.68148
2.68141
2.68128
2.68106
2.6808
2.68063
2.68059
2.6806
2.68066
2.6808
2.68094
2.68104
2.68108
2.68109
2.68107
2.68098
2.68089
2.68086
2.68086
2.68086
2.68089
2.68092
2.68092
2.6809
2.68086
2.68078
2.68066
2.68055
2.6805
2.68049
2.6805
2.68053
2.68059
2.68064
2.68066
2.68065
2.68064
2.68063
2.68062
2.68067
2.6808
2.681
2.68127
2.68162
2.68202
2.68242
2.68281
2.68302
2.68308
2.68304
2.68299
2.68295
2.68289
2.6828
2.68267
2.68249
2.68227
2.68203
2.68178
2.68155
2.68137
2.68124
2.68116
2.68112
2.68109
2.68106
2.68103
2.68097
2.6809
2.68081
2.68071
2.6806
2.68052
2.68045
2.68041
2.68039
2.68037
2.68034
2.68031
2.68027
2.68021
2.68014
2.68006
2.67998
2.67991
2.67986
2.67981
2.67977
2.67973
2.67968
2.67962
2.67956
2.67948
2.67941
2.67934
2.67928
2.67923
2.67919
2.67916
2.67913
2.67909
2.67904
2.67898
2.67891
2.67882
2.67874
2.67866
2.67859
2.67854
2.67848
2.67843
2.67837
2.67832
2.67825
2.67819
2.67812
2.67805
2.67798
2.67792
2.67788
2.67783
2.67778
2.67774
2.67768
2.67762
2.67755
2.67747
2.6774
2.67734
2.67728
2.67723
2.67719
2.67715
2.67711
2.67707
2.67701
2.67695
2.67688
2.67681
2.67673
2.67666
2.67659
2.67653
2.67647
2.67641
2.67634
2.67626
2.67617
2.67608
2.67601
2.67597
2.67597
2.67597
2.67597
2.67598
2.67599
2.67601
2.67604
2.67608
2.67612
2.67617
2.67623
2.67629
2.67635
2.67641
2.67648
2.67656
2.67664
2.67673
2.67683
2.67694
2.67707
2.6772
2.67736
2.67753
2.67772
2.67793
2.67816
2.6784
2.67866
2.67891
2.67916
2.67939
2.67957
2.67968
2.67971
2.67972
2.67972
2.67971
2.67971
2.67971
2.6797
2.67969
2.67969
2.67967
2.67966
2.67965
2.67965
2.67965
2.67965
2.67965
2.67965
2.67965
2.67966
2.67967
2.67967
2.67968
2.67969
2.6797
2.67971
2.67972
2.67973
2.67974
2.67976
2.67978
2.6798
2.67982
2.67984
2.67986
2.67988
2.6799
2.67991
2.67992
2.67994
2.67995
2.67996
2.67996
2.67991
2.67955
2.6773
2.66305
2.57811
2.19958
1.50636
1.23475
1.22131
1.22125
1.22125
1.22125
1.22125
1.22125
1.22125
1.22125
1.22125
1.22125
1.22125
1.22125
1.22125
1.22125
1.22125
1.22125
1.22125
1.22125
1.22125
1.22125
1.22125
1.22125
1.22125
1.22125
1.22125
1.22125
1.22125
1.22125
1.22125
1.22125
1.22125
1.22125
1.22125
1.22125
1.22125
1.22125
1.22125
1.22125
1.22125
1.22125
1.22125
1.22125
1.22125
1.22125
1.22125
1.22125
1.22125
1.22125
1.22125
1.22125
1.22125
1.22125
1.22125
1.22125
1.22125
1.22125
1.22125
1.22125
1.22125
1.22125
1.22125
1.22125
1.22125
1.22125
1.22125
1.22125
1.22125
1.22125
1.22125
1.22125
1.22125
1.22125
1.22125
1.22125
1.22125
1.22125
1.22125
1.22125
1.22125
1.22125
1.22125
1.22125
1.22125
1.22125
4.32005
4.32005
4.32005
4.32005
4.32005
4.32005
4.32005
4.32005
4.32005
4.32005
4.32005
4.32005
4.32005
4.32005
4.32005
4.32005
4.32005
4.32005
4.32005
4.32005
4.32005
4.32005
4.3202
4.32411
4.40019
4.6683
4.73565
4.73729
4.73861
4.74041
4.74134
4.74155
4.74144
4.74081
4.73969
4.73895
4.73896
4.73916
4.73963
4.74043
4.74134
4.74194
4.74206
4.74192
4.74146
4.74077
4.74016
4.73986
4.73983
4.73996
4.7403
4.74068
4.74082
4.74072
4.74047
4.74003
4.73955
4.73919
4.73911
4.73919
4.73942
4.73974
4.74002
4.74026
4.74027
4.74016
4.73996
4.73981
4.73973
4.73974
4.73986
4.74009
4.74036
4.74053
4.74057
4.74052
4.74037
4.74013
4.73993
4.73979
4.73978
4.73987
4.74005
4.74025
4.74037
4.74046
4.74048
4.74038
4.74023
4.74009
4.74
4.73994
4.73996
4.74002
4.74012
4.74021
4.74022
4.7402
4.74015
4.74003
4.7399
4.73981
4.73975
4.73975
4.7398
4.73989
4.73997
4.74006
4.74015
4.74019
4.74019
4.74017
4.74016
4.74016
4.74016
4.74018
4.74021
4.74021
4.7402
4.74017
4.74011
4.74003
4.73995
4.73992
4.73992
4.73995
4.73999
4.74003
4.74006
4.74008
4.74007
4.74005
4.74004
4.74005
4.74008
4.74011
4.74017
4.74021
4.74022
4.74019
4.74012
4.74002
4.73993
4.73984
4.7398
4.73982
4.73985
4.7399
4.73996
4.74002
4.74006
4.74011
4.74013
4.74013
4.74012
4.74012
4.74012
4.74012
4.74013
4.74016
4.7402
4.74021
4.74025
4.74047
4.74087
4.74077
4.7398
4.73673
4.73088
4.72272
4.7135
4.70448
4.69642
4.69007
4.68521
4.68225
4.6806
4.68063
4.68107
4.68193
4.68293
4.68379
4.68428
4.68425
4.68396
4.68356
4.68345
4.68349
4.68366
4.68422
4.68567
4.68865
4.69348
4.69926
4.70445
4.70847
4.71163
4.71428
4.71662
4.71872
4.72065
4.72243
4.72405
4.72553
4.72685
4.72798
4.72891
4.72967
4.73026
4.73072
4.73105
4.73128
4.73144
4.7316
4.73178
4.73195
4.73211
4.73229
4.73249
4.73272
4.73295
4.73316
4.73336
4.73357
4.73378
4.73397
4.73415
4.73432
4.73442
4.73447
4.73449
4.73451
4.73452
4.73451
4.73451
4.73452
4.73454
4.73455
4.73456
4.7346
4.73466
4.73472
4.73479
4.73489
4.735
4.73508
4.73516
4.73524
4.73534
4.73538
4.7354
4.73541
4.73542
4.7354
4.73537
4.73537
4.7354
4.73543
4.73544
4.73547
4.7355
4.73553
4.73554
4.73558
4.73566
4.73576
4.73584
4.73591
4.73599
4.73607
4.73613
4.73617
4.73622
4.73628
4.7363
4.73632
4.73634
4.73638
4.73642
4.73644
4.73647
4.73653
4.73661
4.73666
4.73672
4.73677
4.73684
4.73688
4.73693
4.73698
4.73703
4.73705
4.73707
4.7371
4.73713
4.73714
4.73713
4.73712
4.73713
4.73713
4.7371
4.73711
4.73711
4.7371
4.73707
4.73709
4.73711
4.73716
4.7372
4.73727
4.73731
4.73731
4.73726
4.73713
4.7369
4.73653
4.73584
4.73465
4.73282
4.7299
4.72543
4.71864
4.70862
4.69397
4.67301
4.64346
4.60279
4.54788
4.47559
4.38276
4.26675
4.12615
3.96134
3.77501
3.57289
3.36394
3.16035
2.97736
2.83209
2.73547
2.68767
2.67733
2.67659
2.67647
2.67621
2.67617
2.67665
2.67747
2.67868
2.68006
2.68134
2.68245
2.68327
2.68348
2.68343
2.68323
2.6828
2.68219
2.68149
2.68098
2.68081
2.68076
2.68086
2.68111
2.68133
2.68139
2.68142
2.6814
2.68127
2.6811
2.68103
2.68106
2.68112
2.68126
2.68143
2.68151
2.68148
2.68141
2.68128
2.68106
2.6808
2.68063
2.68059
2.6806
2.68066
2.6808
2.68094
2.68104
2.68108
2.68109
2.68106
2.68098
2.68089
2.68086
2.68086
2.68086
2.68089
2.68092
2.68092
2.6809
2.68086
2.68078
2.68066
2.68055
2.6805
2.68049
2.6805
2.68053
2.68058
2.68064
2.68066
2.68065
2.68064
2.68063
2.68062
2.68067
2.6808
2.681
2.68128
2.68163
2.68202
2.68243
2.68281
2.68303
2.68309
2.68304
2.68299
2.68295
2.6829
2.68281
2.68267
2.6825
2.68227
2.68203
2.68178
2.68155
2.68137
2.68124
2.68116
2.68112
2.68109
2.68106
2.68103
2.68097
2.6809
2.68081
2.68071
2.6806
2.68052
2.68045
2.68041
2.68039
2.68037
2.68034
2.68031
2.68027
2.68021
2.68014
2.68006
2.67998
2.67992
2.67986
2.67981
2.67977
2.67973
2.67968
2.67962
2.67956
2.67948
2.67941
2.67934
2.67928
2.67923
2.67919
2.67916
2.67913
2.67909
2.67904
2.67898
2.67891
2.67882
2.67874
2.67866
2.67859
2.67853
2.67848
2.67843
2.67837
2.67832
2.67825
2.67819
2.67812
2.67805
2.67798
2.67792
2.67788
2.67783
2.67778
2.67774
2.67768
2.67762
2.67755
2.67747
2.6774
2.67734
2.67728
2.67723
2.67719
2.67715
2.67711
2.67707
2.67701
2.67695
2.67688
2.67681
2.67673
2.67666
2.67659
2.67653
2.67647
2.67641
2.67634
2.67626
2.67617
2.67608
2.67601
2.67597
2.67597
2.67597
2.67597
2.67598
2.67599
2.67601
2.67604
2.67608
2.67612
2.67617
2.67623
2.67629
2.67635
2.67641
2.67648
2.67656
2.67664
2.67673
2.67683
2.67694
2.67707
2.6772
2.67736
2.67753
2.67772
2.67793
2.67816
2.6784
2.67866
2.67891
2.67916
2.67939
2.67957
2.67968
2.67971
2.67972
2.67972
2.67971
2.67971
2.67971
2.6797
2.67969
2.67969
2.67967
2.67966
2.67965
2.67965
2.67965
2.67965
2.67965
2.67965
2.67965
2.67966
2.67967
2.67967
2.67968
2.67969
2.6797
2.67971
2.67972
2.67973
2.67974
2.67976
2.67978
2.6798
2.67982
2.67984
2.67986
2.67988
2.6799
2.67991
2.67992
2.67994
2.67995
2.67996
2.67996
2.67991
2.67955
2.6773
2.66305
2.57811
2.19958
1.50636
1.23475
1.22131
1.22125
1.22125
1.22125
1.22125
1.22125
1.22125
1.22125
1.22125
1.22125
1.22125
1.22125
1.22125
1.22125
1.22125
1.22125
1.22125
1.22125
1.22125
1.22125
1.22125
1.22125
1.22125
1.22125
1.22125
1.22125
1.22125
1.22125
1.22125
1.22125
1.22125
1.22125
1.22125
1.22125
1.22125
1.22125
1.22125
1.22125
1.22125
1.22125
1.22125
1.22125
1.22125
1.22125
1.22125
1.22125
1.22125
1.22125
1.22125
1.22125
1.22125
1.22125
1.22125
1.22125
1.22125
1.22125
1.22125
1.22125
1.22125
1.22125
1.22125
1.22125
1.22125
1.22125
1.22125
1.22125
1.22125
1.22125
1.22125
1.22125
1.22125
1.22125
1.22125
1.22125
1.22125
1.22125
1.22125
1.22125
1.22125
1.22125
1.22125
1.22125
1.22125
1.22125
4.32005
4.32005
4.32005
4.32005
4.32005
4.32005
4.32005
4.32005
4.32005
4.32005
4.32005
4.32005
4.32005
4.32005
4.32005
4.32005
4.32005
4.32005
4.32005
4.32005
4.32005
4.32005
4.3202
4.32411
4.40019
4.6683
4.73565
4.73729
4.73861
4.74041
4.74134
4.74155
4.74144
4.74081
4.73969
4.73895
4.73896
4.73916
4.73963
4.74043
4.74134
4.74194
4.74206
4.74192
4.74146
4.74077
4.74016
4.73986
4.73983
4.73996
4.7403
4.74068
4.74082
4.74072
4.74047
4.74003
4.73955
4.73919
4.73911
4.73919
4.73942
4.73974
4.74002
4.74026
4.74027
4.74016
4.73996
4.73981
4.73973
4.73974
4.73986
4.74009
4.74036
4.74053
4.74057
4.74052
4.74037
4.74013
4.73993
4.73979
4.73978
4.73987
4.74005
4.74025
4.74037
4.74046
4.74048
4.74038
4.74023
4.74009
4.74
4.73994
4.73996
4.74002
4.74012
4.74021
4.74022
4.7402
4.74015
4.74003
4.7399
4.73981
4.73975
4.73975
4.7398
4.73989
4.73997
4.74006
4.74015
4.74019
4.74019
4.74017
4.74016
4.74016
4.74016
4.74018
4.74021
4.74021
4.7402
4.74017
4.74011
4.74003
4.73995
4.73992
4.73992
4.73995
4.73999
4.74003
4.74006
4.74008
4.74007
4.74005
4.74004
4.74005
4.74008
4.74011
4.74017
4.74021
4.74022
4.74019
4.74012
4.74002
4.73993
4.73984
4.7398
4.73982
4.73985
4.7399
4.73996
4.74002
4.74006
4.74011
4.74013
4.74013
4.74012
4.74012
4.74012
4.74012
4.74013
4.74016
4.7402
4.74021
4.74025
4.74047
4.74088
4.74077
4.7398
4.73673
4.73088
4.7227
4.71349
4.7045
4.69647
4.69012
4.68526
4.68223
4.6805
4.68053
4.68101
4.68192
4.68298
4.68387
4.68438
4.68432
4.68401
4.68354
4.68335
4.68346
4.68367
4.68423
4.68567
4.68864
4.69347
4.69926
4.70445
4.70847
4.71162
4.71427
4.71662
4.71873
4.72065
4.72242
4.72405
4.72553
4.72685
4.72798
4.72891
4.72967
4.73026
4.73071
4.73105
4.73128
4.73144
4.7316
4.73178
4.73195
4.73211
4.73229
4.73249
4.73272
4.73295
4.73316
4.73336
4.73357
4.73378
4.73397
4.73415
4.73432
4.73442
4.73447
4.73449
4.73451
4.73452
4.73451
4.73451
4.73452
4.73454
4.73454
4.73456
4.7346
4.73466
4.73472
4.73479
4.73489
4.735
4.73508
4.73516
4.73524
4.73534
4.73538
4.7354
4.73541
4.73542
4.7354
4.73537
4.73537
4.7354
4.73543
4.73544
4.73547
4.7355
4.73553
4.73554
4.73558
4.73566
4.73576
4.73584
4.73591
4.73599
4.73607
4.73613
4.73617
4.73622
4.73628
4.7363
4.73632
4.73634
4.73638
4.73642
4.73644
4.73647
4.73653
4.73662
4.73666
4.73672
4.73677
4.73684
4.73688
4.73693
4.73699
4.73703
4.73704
4.73707
4.7371
4.73714
4.73715
4.73713
4.73712
4.73712
4.73712
4.7371
4.73711
4.73711
4.73712
4.73708
4.73707
4.7371
4.73715
4.7372
4.73727
4.73731
4.73733
4.73728
4.73714
4.73691
4.73652
4.73582
4.73463
4.73281
4.72989
4.72544
4.71868
4.70867
4.69404
4.67312
4.64366
4.6031
4.54834
4.4763
4.38375
4.26801
4.12766
3.96296
3.77659
3.57429
3.36512
3.16129
2.97804
2.83252
2.73575
2.6878
2.67733
2.67658
2.67647
2.67622
2.67617
2.67665
2.67747
2.67868
2.68006
2.68134
2.68245
2.68327
2.68348
2.68343
2.68322
2.6828
2.68219
2.68149
2.68099
2.68081
2.68076
2.68086
2.68111
2.68133
2.68139
2.68142
2.6814
2.68127
2.6811
2.68103
2.68106
2.68112
2.68126
2.68143
2.68151
2.68148
2.68141
2.68128
2.68106
2.6808
2.68063
2.68059
2.6806
2.68066
2.6808
2.68094
2.68104
2.68108
2.68109
2.68106
2.68098
2.68089
2.68086
2.68086
2.68086
2.68089
2.68092
2.68092
2.6809
2.68086
2.68078
2.68066
2.68055
2.68051
2.68049
2.6805
2.68053
2.68058
2.68063
2.68066
2.68066
2.68064
2.68063
2.68063
2.68066
2.6808
2.68101
2.68129
2.68164
2.68203
2.68244
2.68282
2.68304
2.6831
2.68305
2.683
2.68297
2.68291
2.68282
2.68268
2.6825
2.68227
2.68202
2.68177
2.68155
2.68137
2.68124
2.68116
2.68112
2.68109
2.68107
2.68103
2.68098
2.6809
2.68081
2.68071
2.68061
2.68052
2.68045
2.68041
2.68039
2.68037
2.68034
2.68031
2.68027
2.68021
2.68014
2.68006
2.67998
2.67992
2.67986
2.67981
2.67977
2.67973
2.67968
2.67962
2.67956
2.67948
2.67941
2.67934
2.67928
2.67923
2.67919
2.67916
2.67913
2.67909
2.67904
2.67898
2.67891
2.67882
2.67874
2.67866
2.67859
2.67853
2.67848
2.67843
2.67837
2.67832
2.67825
2.67819
2.67812
2.67805
2.67798
2.67793
2.67788
2.67783
2.67778
2.67774
2.67768
2.67762
2.67755
2.67747
2.6774
2.67734
2.67728
2.67723
2.67719
2.67715
2.67711
2.67707
2.67701
2.67695
2.67688
2.67681
2.67673
2.67666
2.67659
2.67653
2.67647
2.67641
2.67634
2.67626
2.67617
2.67608
2.67601
2.67597
2.67597
2.67597
2.67597
2.67598
2.67599
2.67601
2.67604
2.67608
2.67612
2.67617
2.67623
2.67629
2.67635
2.67641
2.67648
2.67656
2.67664
2.67673
2.67683
2.67694
2.67707
2.6772
2.67736
2.67753
2.67772
2.67793
2.67816
2.6784
2.67866
2.67891
2.67916
2.67939
2.67957
2.67968
2.67971
2.67972
2.67972
2.67971
2.67971
2.67971
2.6797
2.67969
2.67969
2.67967
2.67966
2.67965
2.67965
2.67965
2.67965
2.67965
2.67965
2.67965
2.67966
2.67967
2.67967
2.67968
2.67969
2.6797
2.67971
2.67972
2.67973
2.67974
2.67976
2.67978
2.6798
2.67982
2.67984
2.67986
2.67988
2.6799
2.67991
2.67992
2.67994
2.67995
2.67996
2.67996
2.67991
2.67955
2.6773
2.66305
2.57811
2.19958
1.50636
1.23475
1.22131
1.22125
1.22125
1.22125
1.22125
1.22125
1.22125
1.22125
1.22125
1.22125
1.22125
1.22125
1.22125
1.22125
1.22125
1.22125
1.22125
1.22125
1.22125
1.22125
1.22125
1.22125
1.22125
1.22125
1.22125
1.22125
1.22125
1.22125
1.22125
1.22125
1.22125
1.22125
1.22125
1.22125
1.22125
1.22125
1.22125
1.22125
1.22125
1.22125
1.22125
1.22125
1.22125
1.22125
1.22125
1.22125
1.22125
1.22125
1.22125
1.22125
1.22125
1.22125
1.22125
1.22125
1.22125
1.22125
1.22125
1.22125
1.22125
1.22125
1.22125
1.22125
1.22125
1.22125
1.22125
1.22125
1.22125
1.22125
1.22125
1.22125
1.22125
1.22125
1.22125
1.22125
1.22125
1.22125
1.22125
1.22125
1.22125
1.22125
1.22125
1.22125
1.22125
1.22125
4.32005
4.32005
4.32005
4.32005
4.32005
4.32005
4.32005
4.32005
4.32005
4.32005
4.32005
4.32005
4.32005
4.32005
4.32005
4.32005
4.32005
4.32005
4.32005
4.32005
4.32005
4.32005
4.3202
4.32411
4.40019
4.6683
4.73565
4.73729
4.73861
4.74041
4.74134
4.74155
4.74144
4.74081
4.73969
4.73895
4.73896
4.73916
4.73963
4.74043
4.74134
4.74194
4.74206
4.74192
4.74146
4.74077
4.74016
4.73986
4.73983
4.73996
4.7403
4.74068
4.74082
4.74072
4.74047
4.74003
4.73955
4.73919
4.73911
4.73919
4.73942
4.73974
4.74002
4.74026
4.74027
4.74016
4.73996
4.73981
4.73973
4.73974
4.73986
4.74009
4.74036
4.74053
4.74057
4.74052
4.74037
4.74013
4.73993
4.73979
4.73978
4.73987
4.74005
4.74025
4.74037
4.74046
4.74048
4.74038
4.74023
4.74009
4.74
4.73994
4.73996
4.74002
4.74012
4.74021
4.74022
4.7402
4.74015
4.74003
4.7399
4.73981
4.73975
4.73975
4.7398
4.73989
4.73997
4.74006
4.74015
4.74019
4.74019
4.74017
4.74016
4.74016
4.74016
4.74018
4.74021
4.74021
4.7402
4.74017
4.74011
4.74003
4.73995
4.73992
4.73992
4.73995
4.73999
4.74003
4.74006
4.74008
4.74007
4.74005
4.74004
4.74005
4.74008
4.74011
4.74017
4.74021
4.74022
4.74019
4.74012
4.74002
4.73993
4.73984
4.7398
4.73982
4.73985
4.7399
4.73996
4.74002
4.74006
4.74011
4.74013
4.74013
4.74012
4.74012
4.74012
4.74012
4.74013
4.74016
4.7402
4.74021
4.74025
4.74047
4.74088
4.74077
4.7398
4.73672
4.73087
4.72269
4.71348
4.70452
4.6965
4.69017
4.6853
4.6822
4.68042
4.68045
4.68095
4.68192
4.68301
4.68393
4.68446
4.68438
4.68405
4.68353
4.68326
4.68342
4.68368
4.68425
4.68567
4.68863
4.69346
4.69925
4.70445
4.70846
4.71161
4.71427
4.71662
4.71873
4.72065
4.72242
4.72404
4.72552
4.72684
4.72798
4.72891
4.72967
4.73026
4.73071
4.73104
4.73128
4.73144
4.7316
4.73178
4.73195
4.73211
4.73228
4.73249
4.73272
4.73295
4.73316
4.73336
4.73357
4.73378
4.73397
4.73415
4.73432
4.73443
4.73447
4.73449
4.73451
4.73452
4.73451
4.73451
4.73452
4.73454
4.73454
4.73456
4.7346
4.73465
4.73472
4.73479
4.73489
4.735
4.73508
4.73516
4.73524
4.73534
4.73538
4.7354
4.73541
4.73542
4.7354
4.73537
4.73537
4.7354
4.73543
4.73545
4.73547
4.7355
4.73553
4.73554
4.73558
4.73566
4.73576
4.73584
4.73591
4.73599
4.73606
4.73612
4.73617
4.73622
4.73628
4.7363
4.73632
4.73634
4.73637
4.73642
4.73644
4.73647
4.73653
4.73662
4.73667
4.73672
4.73676
4.73683
4.73688
4.73693
4.73699
4.73704
4.73704
4.73706
4.7371
4.73715
4.73716
4.73713
4.73711
4.73712
4.73712
4.7371
4.73711
4.73711
4.73713
4.73709
4.73706
4.73708
4.73715
4.73721
4.73728
4.73732
4.73734
4.7373
4.73715
4.73691
4.73652
4.7358
4.73462
4.7328
4.72989
4.72546
4.71873
4.70873
4.69414
4.6733
4.64396
4.60351
4.54891
4.47714
4.38484
4.26932
4.12905
3.96427
3.77776
3.57522
3.36578
3.1618
2.97845
2.83286
2.73599
2.68792
2.67733
2.67657
2.67647
2.67623
2.67618
2.67665
2.67747
2.67867
2.68005
2.68134
2.68245
2.68327
2.68348
2.68343
2.68323
2.68281
2.6822
2.6815
2.68099
2.68082
2.68076
2.68086
2.68111
2.68132
2.68139
2.68142
2.6814
2.68127
2.6811
2.68103
2.68106
2.68112
2.68126
2.68143
2.68151
2.68148
2.68141
2.68128
2.68106
2.6808
2.68063
2.68059
2.6806
2.68066
2.6808
2.68094
2.68104
2.68108
2.68109
2.68106
2.68098
2.68089
2.68086
2.68086
2.68087
2.68089
2.68092
2.68092
2.6809
2.68086
2.68078
2.68066
2.68055
2.68052
2.6805
2.6805
2.68053
2.68058
2.68063
2.68066
2.68066
2.68064
2.68063
2.68064
2.68067
2.68081
2.68102
2.68129
2.68165
2.68204
2.68245
2.68284
2.68306
2.68312
2.68307
2.68302
2.68299
2.68293
2.68283
2.68269
2.6825
2.68227
2.68201
2.68176
2.68154
2.68136
2.68124
2.68116
2.68113
2.6811
2.68107
2.68104
2.68098
2.68091
2.68081
2.68071
2.68061
2.68052
2.68045
2.68041
2.68039
2.68037
2.68034
2.68031
2.68027
2.68021
2.68014
2.68006
2.67998
2.67992
2.67986
2.67981
2.67977
2.67973
2.67968
2.67962
2.67956
2.67948
2.67941
2.67934
2.67928
2.67923
2.67919
2.67916
2.67913
2.67909
2.67904
2.67898
2.67891
2.67883
2.67874
2.67866
2.67859
2.67853
2.67848
2.67843
2.67837
2.67832
2.67825
2.67819
2.67812
2.67805
2.67798
2.67793
2.67788
2.67783
2.67778
2.67774
2.67768
2.67762
2.67755
2.67747
2.6774
2.67734
2.67728
2.67723
2.67719
2.67715
2.67711
2.67707
2.67701
2.67695
2.67688
2.67681
2.67673
2.67666
2.67659
2.67653
2.67647
2.67641
2.67634
2.67626
2.67617
2.67608
2.67601
2.67597
2.67597
2.67597
2.67597
2.67598
2.67599
2.67601
2.67604
2.67608
2.67612
2.67617
2.67623
2.67629
2.67635
2.67641
2.67648
2.67656
2.67664
2.67673
2.67683
2.67694
2.67707
2.6772
2.67736
2.67753
2.67772
2.67793
2.67816
2.6784
2.67866
2.67891
2.67916
2.67939
2.67957
2.67968
2.67971
2.67972
2.67972
2.67971
2.67971
2.67971
2.6797
2.67969
2.67969
2.67967
2.67966
2.67965
2.67965
2.67965
2.67965
2.67965
2.67965
2.67965
2.67966
2.67967
2.67967
2.67968
2.67969
2.6797
2.67971
2.67972
2.67973
2.67974
2.67976
2.67978
2.6798
2.67982
2.67984
2.67986
2.67988
2.6799
2.67991
2.67992
2.67994
2.67995
2.67996
2.67996
2.67991
2.67955
2.6773
2.66305
2.57811
2.19958
1.50636
1.23475
1.22131
1.22125
1.22125
1.22125
1.22125
1.22125
1.22125
1.22125
1.22125
1.22125
1.22125
1.22125
1.22125
1.22125
1.22125
1.22125
1.22125
1.22125
1.22125
1.22125
1.22125
1.22125
1.22125
1.22125
1.22125
1.22125
1.22125
1.22125
1.22125
1.22125
1.22125
1.22125
1.22125
1.22125
1.22125
1.22125
1.22125
1.22125
1.22125
1.22125
1.22125
1.22125
1.22125
1.22125
1.22125
1.22125
1.22125
1.22125
1.22125
1.22125
1.22125
1.22125
1.22125
1.22125
1.22125
1.22125
1.22125
1.22125
1.22125
1.22125
1.22125
1.22125
1.22125
1.22125
1.22125
1.22125
1.22125
1.22125
1.22125
1.22125
1.22125
1.22125
1.22125
1.22125
1.22125
1.22125
1.22125
1.22125
1.22125
1.22125
1.22125
1.22125
1.22125
1.22125
4.32005
4.32005
4.32005
4.32005
4.32005
4.32005
4.32005
4.32005
4.32005
4.32005
4.32005
4.32005
4.32005
4.32005
4.32005
4.32005
4.32005
4.32005
4.32005
4.32005
4.32005
4.32005
4.3202
4.32411
4.40019
4.6683
4.73565
4.73729
4.73861
4.74041
4.74134
4.74155
4.74144
4.74081
4.73969
4.73895
4.73896
4.73916
4.73963
4.74043
4.74134
4.74194
4.74206
4.74192
4.74146
4.74077
4.74016
4.73986
4.73983
4.73996
4.7403
4.74068
4.74082
4.74072
4.74047
4.74003
4.73955
4.73919
4.73911
4.73919
4.73942
4.73974
4.74002
4.74025
4.74027
4.74016
4.73996
4.73981
4.73973
4.73974
4.73986
4.74009
4.74036
4.74053
4.74057
4.74052
4.74037
4.74013
4.73993
4.73979
4.73978
4.73987
4.74005
4.74025
4.74037
4.74045
4.74048
4.74038
4.74023
4.74009
4.74
4.73994
4.73996
4.74002
4.74012
4.74021
4.74022
4.7402
4.74015
4.74003
4.7399
4.73981
4.73975
4.73975
4.7398
4.73989
4.73997
4.74006
4.74015
4.74019
4.74019
4.74017
4.74016
4.74016
4.74016
4.74018
4.74021
4.74021
4.7402
4.74017
4.74011
4.74003
4.73995
4.73992
4.73992
4.73995
4.73999
4.74003
4.74006
4.74008
4.74007
4.74005
4.74004
4.74005
4.74008
4.74011
4.74017
4.74021
4.74022
4.74019
4.74012
4.74002
4.73993
4.73984
4.7398
4.73982
4.73985
4.7399
4.73996
4.74002
4.74006
4.74011
4.74013
4.74013
4.74012
4.74012
4.74012
4.74012
4.74013
4.74016
4.7402
4.74021
4.74025
4.74047
4.74088
4.74077
4.7398
4.73671
4.73086
4.72268
4.71347
4.70454
4.69653
4.6902
4.68534
4.68218
4.68035
4.68038
4.6809
4.68191
4.68304
4.68398
4.68452
4.68443
4.68409
4.68353
4.6832
4.68339
4.68369
4.68426
4.68567
4.68862
4.69345
4.69925
4.70445
4.70846
4.7116
4.71426