/*--------------------------------*- C++ -*----------------------------------*\
| =========                 |                                                 |
| \\      /  F ield         | OpenFOAM: The Open Source CFD Toolbox           |
|  \\    /   O peration     | Version:  2406                                  |
|   \\  /    A nd           | Website:  www.openfoam.com                      |
|    \\/     M anipulation  |                                                 |
\*---------------------------------------------------------------------------*/
FoamFile
{
    version     2.0;
    format      ascii;
    arch        "LSB;label=32;scalar=64";
    class       volVectorField;
    location    "0.045";
    object      U;
}
// * * * * * * * * * * * * * * * * * * * * * * * * * * * * * * * * * * * * * //

dimensions      [0 1 -1 0 0 0 0];

internalField   nonuniform List<vector> 
83682
(
(347.059 2.29551e-11 -1.2813e-11)
(347.059 2.41038e-11 -1.59001e-11)
(347.059 2.2723e-11 -1.46426e-11)
(347.059 2.29453e-11 -1.57619e-11)
(347.059 2.69515e-11 -1.75736e-11)
(347.059 2.82719e-11 -1.74626e-11)
(347.059 2.76748e-11 -1.86262e-11)
(347.059 3.14908e-11 -1.943e-11)
(347.059 3.50726e-11 -1.92655e-11)
(347.059 4.01916e-11 -2.09852e-11)
(347.059 3.94536e-11 -2.14146e-11)
(347.059 3.48725e-11 -2.14628e-11)
(347.059 3.24947e-11 -2.15489e-11)
(347.059 2.77493e-11 -2.15174e-11)
(347.059 2.06354e-11 -2.2963e-11)
(347.059 1.68558e-11 -2.26989e-11)
(347.059 1.39263e-11 -2.18345e-11)
(347.059 9.50094e-12 -2.07253e-11)
(347.059 6.95202e-12 -2.00634e-11)
(347.059 5.11961e-12 -1.99406e-11)
(347.059 -1.4043e-12 -1.97259e-11)
(347.059 -6.37583e-10 1.36941e-11)
(347.048 4.42756e-08 -2.0939e-09)
(346.771 -1.63956e-06 7.5747e-08)
(341.407 2.27169e-05 -1.08489e-06)
(323.093 -3.33831e-06 1.17027e-07)
(318.499 -4.80819e-05 2.18705e-06)
(318.412 -3.01066e-05 1.35886e-06)
(318.396 -3.63908e-06 1.48835e-07)
(318.395 2.53601e-05 -1.14244e-06)
(318.383 3.9545e-05 -1.77741e-06)
(318.365 3.98279e-05 -1.79042e-06)
(318.345 3.0946e-05 -1.37802e-06)
(318.319 1.0569e-05 -4.46939e-07)
(318.286 -1.25611e-05 5.89511e-07)
(318.264 -2.72435e-05 1.23548e-06)
(318.26 -2.86112e-05 1.29489e-06)
(318.257 -2.6839e-05 1.2035e-06)
(318.258 -2.02436e-05 8.97533e-07)
(318.261 -5.87194e-06 2.33214e-07)
(318.267 1.45881e-05 -7.29387e-07)
(318.279 2.69198e-05 -1.28309e-06)
(318.28 2.69729e-05 -1.2701e-06)
(318.281 2.33002e-05 -1.09023e-06)
(318.286 9.98098e-06 -4.5654e-07)
(318.291 -1.22334e-05 6.06391e-07)
(318.286 -2.58436e-05 1.23577e-06)
(318.285 -2.60615e-05 1.21257e-06)
(318.289 -2.25766e-05 1.03859e-06)
(318.293 -1.16155e-05 5.07803e-07)
(318.3 7.81621e-06 -4.23969e-07)
(318.312 2.63234e-05 -1.29083e-06)
(318.325 3.23076e-05 -1.53773e-06)
(318.33 3.07894e-05 -1.44542e-06)
(318.336 2.31151e-05 -1.04477e-06)
(318.34 5.891e-06 -1.78323e-07)
(318.337 -1.22692e-05 7.22942e-07)
(318.326 -2.04916e-05 1.0927e-06)
(318.32 -1.98814e-05 1.01914e-06)
(318.318 -1.57215e-05 8.03804e-07)
(318.317 -2.16847e-06 1.16745e-07)
(318.316 1.6408e-05 -8.31963e-07)
(318.321 2.41837e-05 -1.23263e-06)
(318.332 2.0749e-05 -1.05151e-06)
(318.338 1.37953e-05 -7.12983e-07)
(318.342 6.60452e-06 -3.6403e-07)
(318.346 -1.16463e-05 5.30795e-07)
(318.347 -2.61245e-05 1.24841e-06)
(318.339 -2.86471e-05 1.35473e-06)
(318.331 -2.47259e-05 1.14552e-06)
(318.326 -2.1136e-05 9.63789e-07)
(318.319 -1.08082e-05 4.46788e-07)
(318.315 3.17897e-06 -2.39041e-07)
(318.316 1.14375e-05 -6.10387e-07)
(318.317 1.26022e-05 -6.34923e-07)
(318.318 1.05937e-05 -5.18973e-07)
(318.318 4.28095e-06 -1.9139e-07)
(318.317 -3.35408e-06 2.11887e-07)
(318.313 -7.38348e-06 4.52718e-07)
(318.304 -8.84152e-06 5.22411e-07)
(318.298 -9.42168e-06 5.44769e-07)
(318.296 -8.27791e-06 4.90231e-07)
(318.294 -4.22181e-06 2.9127e-07)
(318.295 -2.07166e-06 1.80874e-07)
(318.301 -3.09069e-06 2.09845e-07)
(318.312 -4.19453e-06 2.31055e-07)
(318.321 -4.23244e-06 1.93976e-07)
(318.325 -4.11639e-06 1.50402e-07)
(318.33 -8.52487e-07 -1.36207e-07)
(318.333 5.68029e-06 -5.8747e-07)
(318.332 9.39857e-06 -7.96384e-07)
(318.329 1.18778e-05 -8.80114e-07)
(318.329 1.26815e-05 -8.87667e-07)
(318.328 1.31907e-05 -8.56806e-07)
(318.328 1.2308e-05 -7.61159e-07)
(318.329 9.00423e-06 -5.60688e-07)
(318.33 7.30454e-06 -4.82543e-07)
(318.329 6.59939e-06 -4.53823e-07)
(318.329 5.2153e-06 -4.7595e-07)
(318.327 3.98155e-06 -6.33159e-07)
(318.326 5.83533e-06 -9.85905e-07)
(318.322 7.72744e-06 -1.17745e-06)
(318.319 1.00529e-05 -1.17218e-06)
(318.319 1.12593e-05 -1.08727e-06)
(318.319 1.24083e-05 -9.93287e-07)
(318.318 1.23725e-05 -3.94881e-07)
(318.318 1.04367e-05 -1.52997e-08)
(318.319 5.92199e-06 -1.31476e-07)
(318.322 3.82065e-06 -3.49945e-07)
(318.325 3.24764e-06 -2.9284e-07)
(318.327 2.9898e-06 -6.81945e-07)
(318.33 3.27058e-06 -8.46316e-07)
(318.332 5.2371e-06 -1.21753e-06)
(318.333 6.3423e-06 -1.20922e-06)
(318.332 6.82098e-06 -7.92377e-07)
(318.33 7.31866e-06 -3.29625e-07)
(318.325 7.31331e-06 4.6369e-10)
(318.32 6.94021e-06 1.99152e-07)
(318.316 5.71436e-06 1.16122e-07)
(318.313 3.8914e-06 -1.14962e-07)
(318.312 1.55124e-06 -4.4794e-07)
(318.312 -5.58838e-07 -8.47301e-07)
(318.312 -1.7248e-06 -1.06876e-06)
(318.313 -1.83887e-06 -1.08279e-06)
(318.313 -1.65131e-06 -1.05597e-06)
(318.314 -5.77887e-07 -8.43815e-07)
(318.313 -3.06735e-07 -5.04011e-07)
(318.313 -1.6453e-07 -1.15298e-07)
(318.314 -6.54227e-07 1.00786e-07)
(318.316 -1.74991e-06 3.64665e-07)
(318.32 -2.70792e-06 2.41843e-07)
(318.325 -3.26288e-06 5.28778e-07)
(318.329 -5.25154e-06 5.26825e-08)
(318.333 -7.13279e-06 -4.22442e-07)
(318.335 -7.19938e-06 -4.8395e-07)
(318.335 -6.32343e-06 -4.52537e-07)
(318.335 -4.73319e-06 -4.31034e-07)
(318.333 -3.36012e-06 -3.69558e-07)
(318.332 -2.60395e-06 -2.67374e-07)
(318.33 -1.28598e-06 -1.92487e-08)
(318.329 1.35391e-07 2.85275e-07)
(318.326 1.80158e-06 6.77251e-07)
(318.322 2.83036e-06 1.01167e-06)
(318.318 3.91424e-06 1.18542e-06)
(318.315 4.15171e-06 1.05824e-06)
(318.314 5.09755e-06 8.40187e-07)
(318.313 2.8061e-06 5.23269e-07)
(318.313 4.15674e-06 9.79763e-08)
(318.315 1.39708e-06 -9.64329e-07)
(318.317 -8.16786e-07 -7.24897e-07)
(318.319 -4.37557e-07 2.8449e-07)
(318.321 -2.84691e-06 -5.1994e-07)
(318.323 -3.9341e-06 7.43378e-07)
(318.323 -3.28423e-06 1.34574e-06)
(318.323 -3.54148e-06 2.04334e-06)
(318.323 -3.62371e-07 2.1743e-06)
(318.324 -3.56076e-06 1.99465e-06)
(318.325 -4.99092e-06 1.64902e-06)
(318.326 1.03641e-05 6.92298e-07)
(318.327 -1.54254e-05 -2.23524e-07)
(318.329 2.84547e-06 -2.41473e-06)
(318.328 -1.05366e-05 -2.73865e-06)
(318.325 1.27995e-05 -5.63113e-06)
(318.308 -0.000211637 7.35757e-06)
(318.277 0.000292273 -1.69787e-05)
(318.277 0.000177392 -9.82344e-06)
(318.331 0.000575588 -3.17607e-05)
(318.525 5.99687e-05 -3.06948e-06)
(318.904 -0.000418778 -2.1618e-05)
(319.439 -0.00132129 7.31226e-05)
(320.051 -0.00385205 0.000127024)
(320.658 -0.00195155 0.000119456)
(321.201 -0.00052195 -2.21905e-05)
(321.633 0.00365093 3.34593e-07)
(321.961 0.0100741 -0.000334044)
(322.152 0.0090766 -0.0003716)
(322.254 0.00434592 -0.00024297)
(322.256 -0.00218366 -4.86215e-05)
(322.231 -0.00968588 0.000263783)
(322.184 -0.0122511 0.000454983)
(322.124 -0.0107424 0.000424142)
(322.073 -0.00633041 0.00031648)
(322.043 0.000801502 6.07979e-05)
(322.041 0.00761496 5.67502e-05)
(322.051 0.0123253 -0.000350295)
(322.065 0.0125332 -0.000530959)
(322.059 0.00718137 -0.000371848)
(322.06 0.00549905 -0.000276442)
(322.047 0.00455967 -0.000252084)
(322.004 0.00440647 -0.000248081)
(321.904 0.00430341 -0.000228578)
(321.703 0.00433081 -0.000244912)
(321.381 0.00480687 -0.000156091)
(320.997 0.00318128 -0.00015927)
(320.655 0.00305112 -0.000309011)
(320.391 0.00444313 -0.000371458)
(320.185 0.00352093 -0.000372352)
(320.013 0.0015797 -0.000355227)
(319.863 0.000942336 -0.000397016)
(319.727 0.00206584 -0.000363079)
(319.601 0.00265638 -0.000262574)
(319.485 0.00222953 -0.000124628)
(319.378 0.00173495 -7.44272e-06)
(319.28 0.00152674 9.30597e-06)
(319.193 0.00155124 -4.07725e-05)
(319.118 0.00162701 -7.42604e-05)
(319.055 0.00162191 -7.65357e-05)
(319.003 0.00147846 -6.4017e-05)
(318.961 0.00121608 -2.6281e-05)
(318.927 0.00102076 2.91153e-05)
(318.902 0.000970612 6.87512e-05)
(318.882 0.00100751 6.42627e-05)
(318.867 0.000990621 2.53722e-05)
(318.854 0.000879645 -1.56046e-05)
(318.842 0.000818141 -3.0078e-05)
(318.831 0.00070583 -5.27217e-05)
(318.821 0.000572051 -6.93469e-05)
(318.812 0.000444656 -7.38325e-05)
(318.802 0.000363102 -6.94017e-05)
(318.792 0.00036776 -5.81153e-05)
(318.782 0.000446457 -4.89875e-05)
(318.772 0.000564092 -7.52311e-05)
(318.76 0.000638985 -0.000128996)
(318.746 0.000639441 -0.000156249)
(318.732 0.000561201 -0.000176494)
(318.718 0.00040256 -0.000167105)
(318.705 0.000243778 -0.000140926)
(318.692 0.000114708 -0.000117353)
(318.683 -5.11116e-05 -0.000100162)
(318.678 -0.000121446 -8.81176e-05)
(318.675 -2.11303e-05 -7.8317e-05)
(318.671 0.000177614 -6.6034e-05)
(318.668 0.000318583 -5.59008e-05)
(318.667 0.000408526 -5.67497e-05)
(318.665 0.000429356 -6.83372e-05)
(318.663 0.000356407 -8.2967e-05)
(318.661 0.000193497 -8.64391e-05)
(318.661 8.2663e-05 -8.11324e-05)
(318.66 -6.55411e-05 -6.76843e-05)
(318.659 -0.000185359 -5.22141e-05)
(318.657 -0.000165518 -3.93569e-05)
(318.656 -2.88334e-05 -2.11395e-05)
(318.656 0.000114212 -4.14888e-06)
(318.654 0.000194522 8.98555e-06)
(318.651 0.000216259 1.02393e-05)
(318.646 0.000167194 4.48137e-06)
(318.641 9.61539e-05 -4.77011e-08)
(318.635 -3.27192e-05 -1.00344e-05)
(318.628 -9.92849e-05 -2.41357e-05)
(318.623 -0.000115151 -3.6947e-05)
(318.619 -9.73754e-05 -4.86989e-05)
(318.616 -6.04554e-05 -5.48597e-05)
(318.611 6.5021e-05 -6.2538e-05)
(318.609 0.000191339 -6.7453e-05)
(318.607 0.00019684 -6.47246e-05)
(318.606 0.000139142 -5.78875e-05)
(318.604 0.000107106 -5.42574e-05)
(318.602 7.54441e-05 -5.09875e-05)
(318.601 1.90196e-05 -4.68001e-05)
(318.6 -2.9374e-05 -4.22691e-05)
(318.598 -3.75068e-05 -4.03159e-05)
(318.597 -1.86968e-05 -3.88687e-05)
(318.598 2.62006e-05 -3.52822e-05)
(318.598 0.000115391 -3.46727e-05)
(318.597 0.000125868 -3.19404e-05)
(318.594 5.83882e-05 -2.43812e-05)
(318.593 6.57752e-05 -2.03995e-05)
(318.59 7.02022e-05 -1.9164e-05)
(318.586 4.98467e-06 -1.43993e-05)
(318.58 -1.64766e-05 -1.21644e-05)
(318.576 -1.0867e-05 -9.42718e-06)
(318.572 -5.88981e-05 -2.37891e-06)
(318.567 -9.52613e-05 6.81775e-06)
(318.561 -8.82657e-05 1.22643e-05)
(318.555 -0.000133977 2.10462e-05)
(318.549 -6.8486e-05 1.98783e-05)
(318.543 5.89896e-05 1.66879e-05)
(318.538 4.4855e-05 1.91548e-05)
(318.534 2.02182e-05 1.91519e-05)
(318.534 9.20592e-06 1.97524e-05)
(318.532 2.18671e-05 1.9957e-05)
(318.528 5.82691e-05 1.71423e-05)
(318.524 4.6518e-05 1.48049e-05)
(318.523 -0.000180344 2.77753e-05)
(318.521 -0.00020201 2.78592e-05)
(318.52 -2.6947e-05 2.88849e-05)
(318.519 0.000130568 2.31748e-05)
(318.52 -3.35933e-05 5.34213e-05)
(318.521 -0.000113207 7.00654e-05)
(318.52 -1.25633e-05 7.97399e-05)
(318.518 0.000132463 0.000103075)
(318.516 0.000102024 0.000125447)
(318.514 6.56422e-05 0.000141207)
(318.512 7.93695e-05 0.000162267)
(318.51 -8.83252e-05 0.000187227)
(318.508 -0.000267855 0.000205017)
(318.506 -0.00010511 0.000200586)
(318.503 0.000102036 0.000180269)
(318.498 0.000210526 0.000160387)
(318.494 9.89565e-05 0.000146514)
(318.492 -5.63326e-05 0.000134066)
(318.488 -9.12483e-05 0.000119701)
(318.489 -5.38414e-05 0.000111513)
(318.49 -0.000125027 0.000111582)
(318.493 -1.42276e-06 0.000105264)
(318.491 0.000294664 0.00010453)
(318.49 0.000343273 0.000101451)
(318.489 6.90894e-05 0.000113316)
(318.49 -0.000646728 0.000134701)
(318.489 -0.0017221 0.000196571)
(318.487 -0.0024379 0.00020637)
(318.486 -0.0032279 0.000232122)
(318.487 -0.00398869 0.000249996)
(318.487 -0.0041187 0.000255679)
(318.484 -0.00321954 0.000208266)
(318.48 -0.00175949 -8.79746e-05)
(318.476 0.000546179 -0.00033885)
(318.474 0.00377189 -0.000295678)
(318.469 0.00517522 -0.000167645)
(318.466 0.00375729 -0.000342706)
(318.463 -0.000430586 -0.000314067)
(318.466 -0.00973154 0.00028474)
(318.465 -0.0276579 0.00147519)
(318.469 -0.050689 0.00271744)
(318.475 -0.0760031 0.00279536)
(318.491 -0.101779 0.00248737)
(318.509 -0.126268 0.00294237)
(318.534 -0.143804 0.00677488)
(318.562 -0.141665 0.0119808)
(318.59 -0.126771 0.0109764)
(318.618 -0.093235 0.000729925)
(318.639 -0.0237331 -0.0182654)
(318.645 0.0678516 -0.0404054)
(318.64 0.166319 -0.0534183)
(318.619 0.262916 -0.0431131)
(318.575 0.348176 -0.00911461)
(318.497 0.384144 0.0346918)
(318.404 0.348741 0.0631038)
(318.403 0.269403 0.0561116)
(318.224 0.175262 0.0287363)
(317.828 0.0922583 0.0133641)
(318.166 0.0483609 0.00220529)
(318.296 0.042281 0.00148137)
(318.275 0.0378676 0.00115276)
(318.206 0.0328884 0.000819657)
(318.121 0.0285078 0.000669578)
(318.066 0.0262396 0.000729053)
(318.017 0.0214106 0.00100376)
(317.988 0.0148452 0.00139347)
(317.981 0.00935259 0.00170296)
(317.999 0.00593485 0.001951)
(318.062 0.00386437 0.00217658)
(318.141 0.00234567 0.00228924)
(318.168 0.001297 0.00224507)
(318.167 0.00075058 0.00218541)
(318.154 2.50434e-05 0.002092)
(318.121 -0.000529426 0.00198415)
(318.071 -0.000879004 0.00186001)
(318.013 -0.00105795 0.00172055)
(317.984 -0.00111158 0.00157097)
(317.997 -0.00109032 0.00147701)
(318.019 -0.00105602 0.00136616)
(318.052 -0.00101256 0.00122522)
(318.095 -0.000927253 0.00107729)
(318.125 -0.000813626 0.000918675)
(318.13 -0.000755545 0.000803167)
(318.124 -0.000743721 0.000734795)
(318.104 -0.000754952 0.000652939)
(318.065 -0.000797043 0.000577518)
(318.022 -0.000845885 0.000500356)
(317.999 -0.000852549 0.000411211)
(317.994 -0.000835402 0.000344759)
(317.999 -0.000794803 0.000254127)
(318.017 -0.00071332 0.000164223)
(318.045 -0.000584452 9.30163e-05)
(318.063 -0.000438636 1.99872e-05)
(318.067 -0.000362395 -1.98177e-05)
(318.066 -0.00026006 -6.64298e-05)
(318.054 -0.000150163 -0.000109401)
(318.029 -3.95174e-05 -0.000147941)
(317.998 8.17031e-05 -0.000196177)
(317.977 0.00020005 -0.000252004)
(317.975 0.000269523 -0.000295937)
(317.979 0.000304521 -0.00033753)
(317.989 0.000274907 -0.000394507)
(318.006 0.000131399 -0.000440563)
(318.023 -9.78298e-05 -0.000460872)
(318.032 -0.000366802 -0.000461105)
(318.031 -0.00057369 -0.000452625)
(318.025 -0.000750763 -0.000437393)
(318.014 -0.000868793 -0.000420375)
(317.996 -0.000719641 -0.000435313)
(317.98 -0.00015389 -0.000493498)
(317.975 0.000738588 -0.000577609)
(317.975 0.00154041 -0.00065601)
(317.979 0.00288118 -0.000780247)
(317.987 0.00439632 -0.000937846)
(317.995 0.00580065 -0.00108527)
(317.998 0.00651833 -0.00118875)
(317.998 0.0067607 -0.00127382)
(317.993 0.0062915 -0.00126226)
(317.982 0.00407545 -0.00105577)
(317.966 -0.00112541 -0.000692945)
(317.95 -0.0103092 3.9326e-05)
(317.947 -0.0212616 0.000857995)
(317.951 -0.0318286 0.00143298)
(317.961 -0.0407406 0.00174521)
(317.975 -0.0453218 0.00177455)
(317.991 -0.0459667 0.00153885)
(318.007 -0.0432621 0.00110201)
(318.015 -0.0369846 0.000165406)
(318.016 -0.0269962 -0.000260584)
(318.012 -0.010098 -0.000751556)
(318.002 0.0100754 -0.000905944)
(317.985 0.0290625 9.29862e-05)
(317.968 0.043296 0.00178988)
(317.957 0.0490336 0.002684)
(317.946 0.0528788 0.00351213)
(317.936 0.0554201 0.00439734)
(317.928 0.0544832 0.00514761)
(317.919 0.0458575 0.00557812)
(317.909 0.0351225 0.00571486)
(317.902 0.0192811 0.00569341)
(317.888 0.00563912 0.00567638)
(317.874 0.000845966 0.00570974)
(317.861 -0.00554728 0.00606499)
(317.858 -0.0113624 0.00749841)
(317.858 -0.0138343 0.00860912)
(317.86 -0.0149847 0.00957256)
(317.863 -0.0154906 0.0108619)
(317.867 -0.0149497 0.0123326)
(317.869 -0.0132829 0.0131498)
(317.869 -0.0106974 0.0123422)
(317.865 -0.0075151 0.0101364)
(317.858 -0.00425195 0.00749629)
(317.849 -0.00147222 0.00523727)
(317.84 0.00054801 0.00368839)
(317.831 0.0017343 0.00273707)
(317.826 0.00227042 0.00220823)
(317.824 0.00241697 0.00191863)
(317.823 0.00236759 0.0017172)
(317.822 0.00219187 0.00154623)
(317.821 0.00191764 0.00144141)
(317.818 0.00155467 0.00141378)
(317.813 0.00115441 0.00129773)
(317.805 0.000809345 0.00115423)
(317.796 0.000516772 0.00115096)
(317.786 0.000317722 0.00121078)
(317.778 0.000180567 0.00116876)
(317.772 7.85501e-05 0.00102497)
(317.769 1.77497e-05 0.000908325)
(317.767 -5.98584e-05 0.000815066)
(317.766 -0.000136001 0.000721785)
(317.764 -0.000216912 0.000643508)
(317.76 -0.00030061 0.000596837)
(317.755 -0.000369154 0.000580627)
(317.747 -0.000405111 0.000543061)
(317.737 -0.000419545 0.000502107)
(317.727 -0.000394648 0.000455903)
(317.718 -0.000327323 0.000391513)
(317.711 -0.000233775 0.000332669)
(317.706 -0.000136937 0.000285067)
(317.702 -5.51978e-05 0.000245962)
(317.699 -7.2667e-06 0.000215002)
(317.696 2.59297e-06 0.000188653)
(317.691 -9.90146e-06 0.000164894)
(317.685 -4.30405e-05 0.000142401)
(317.677 -8.80311e-05 0.00012033)
(317.667 -0.000129183 0.000101173)
(317.656 -0.000153988 8.58909e-05)
(317.646 -0.000154013 7.27745e-05)
(317.637 -0.000133285 6.12462e-05)
(317.629 -0.000100811 5.70021e-05)
(317.623 -6.70001e-05 5.66321e-05)
(317.617 -4.00693e-05 5.71972e-05)
(317.612 -2.92544e-05 5.8794e-05)
(317.606 -3.60156e-05 5.69356e-05)
(317.598 -5.75259e-05 5.40264e-05)
(317.589 -8.41719e-05 5.5389e-05)
(317.579 -0.000112149 5.89599e-05)
(317.568 -0.000126787 5.82797e-05)
(317.557 -0.000113578 5.44271e-05)
(317.547 -7.71924e-05 4.50107e-05)
(317.539 -4.20152e-05 3.60347e-05)
(317.532 -7.38434e-06 3.16052e-05)
(317.526 2.21179e-05 2.86466e-05)
(317.52 4.20088e-05 2.94808e-05)
(317.513 5.33093e-05 3.10175e-05)
(317.506 5.35748e-05 3.13098e-05)
(317.497 4.12188e-05 3.16762e-05)
(317.487 1.81967e-05 3.08971e-05)
(317.476 -9.4679e-06 2.91946e-05)
(317.465 -3.21709e-05 2.76097e-05)
(317.455 -4.45154e-05 2.58055e-05)
(317.445 -4.1633e-05 2.34942e-05)
(317.437 -3.01734e-05 2.04369e-05)
(317.43 -1.30357e-05 1.72692e-05)
(317.423 6.70886e-06 1.5795e-05)
(317.416 2.35775e-05 1.48704e-05)
(317.408 3.24071e-05 1.41404e-05)
(317.399 3.15983e-05 1.32304e-05)
(317.389 2.16857e-05 1.26852e-05)
(317.378 4.04581e-06 1.07653e-05)
(317.368 -1.58364e-05 9.27989e-06)
(317.359 -2.85304e-05 7.36992e-06)
(317.351 -2.90226e-05 5.02813e-06)
(317.345 -1.8884e-05 3.39827e-06)
(317.339 -5.25429e-07 1.02994e-06)
(317.333 2.03706e-05 -1.91077e-06)
(317.326 3.75346e-05 -2.4683e-06)
(317.319 4.76581e-05 -1.53054e-06)
(317.31 4.78194e-05 -5.00164e-07)
(317.3 3.87107e-05 -7.73241e-08)
(317.288 2.40251e-05 -6.99294e-07)
(317.276 7.09648e-06 -2.078e-06)
(317.264 -8.06132e-06 -2.03346e-06)
(317.252 -1.80259e-05 -8.69572e-07)
(317.241 -2.1403e-05 5.97714e-07)
(317.231 -1.70708e-05 2.11617e-06)
(317.221 -6.55864e-06 3.45463e-06)
(317.211 7.31882e-06 4.66745e-06)
(317.2 2.12779e-05 5.08527e-06)
(317.188 3.24584e-05 4.43972e-06)
(317.174 3.74462e-05 3.70359e-06)
(317.16 3.43632e-05 3.3197e-06)
(317.148 2.47927e-05 3.42438e-06)
(317.143 1.32465e-05 3.88226e-06)
(317.142 4.55129e-06 4.29645e-06)
(317.143 -7.30002e-08 4.41997e-06)
(317.143 -4.79455e-06 4.02703e-06)
(317.144 -3.90503e-06 2.39043e-06)
(317.146 3.72978e-06 -2.73568e-07)
(317.149 1.50737e-05 -3.00799e-06)
(317.153 2.64757e-05 -5.37405e-06)
(317.158 3.52385e-05 -7.46388e-06)
(317.165 3.93962e-05 -8.75213e-06)
(317.172 3.67827e-05 -9.12811e-06)
(317.181 2.93376e-05 -9.1182e-06)
(317.189 1.91887e-05 -9.15999e-06)
(317.199 8.50286e-06 -9.77943e-06)
(317.209 -4.73281e-07 -1.11595e-05)
(317.22 -5.98398e-06 -1.435e-05)
(317.231 -8.45259e-06 -1.97567e-05)
(317.244 -7.78387e-06 -2.59036e-05)
(317.259 -4.48176e-06 -3.0981e-05)
(317.274 7.47494e-08 -3.64239e-05)
(317.292 4.81599e-06 -4.24905e-05)
(317.311 7.19265e-06 -4.68671e-05)
(317.332 4.5352e-06 -4.91021e-05)
(317.356 -1.75493e-07 -5.03767e-05)
(317.382 -4.14705e-06 -5.22786e-05)
(317.412 -6.43335e-06 -5.4991e-05)
(317.444 -7.28898e-06 -5.74671e-05)
(317.48 -6.83925e-06 -6.06075e-05)
(317.518 -5.657e-06 -6.54433e-05)
(317.557 -4.67457e-06 -7.03757e-05)
(317.597 -5.38689e-06 -7.34582e-05)
(317.635 -8.13067e-06 -7.45457e-05)
(317.67 -1.0661e-05 -7.57447e-05)
(317.699 -1.24744e-05 -7.72372e-05)
(317.715 -1.34215e-05 -7.8119e-05)
(317.721 -1.32516e-05 -7.87282e-05)
(317.721 -1.24724e-05 -7.94406e-05)
(317.721 -1.1681e-05 -8.00344e-05)
(317.721 -1.01154e-05 -8.08846e-05)
(317.721 -8.58134e-06 -8.21017e-05)
(317.721 -7.61724e-06 -8.37018e-05)
(317.72 -7.22426e-06 -8.44036e-05)
(317.719 -7.26055e-06 -8.4847e-05)
(317.718 -7.3709e-06 -8.47693e-05)
(317.716 -7.40884e-06 -8.45167e-05)
(317.714 -7.45933e-06 -8.50999e-05)
(317.713 -7.56088e-06 -8.56182e-05)
(317.712 -7.35725e-06 -8.59047e-05)
(317.712 -6.91416e-06 -8.70835e-05)
(317.712 -6.50847e-06 -8.89171e-05)
(317.712 -5.93491e-06 -9.13084e-05)
(317.712 -5.39256e-06 -9.20129e-05)
(317.713 -5.28385e-06 -9.2152e-05)
(317.713 -5.54999e-06 -9.37784e-05)
(317.715 -5.85362e-06 -9.59357e-05)
(317.716 -6.03824e-06 -9.73207e-05)
(317.717 -6.24682e-06 -9.84045e-05)
(317.719 -6.6049e-06 -0.000100765)
(317.72 -6.64135e-06 -0.000103726)
(317.722 -5.52628e-06 -0.000105569)
(317.723 -4.66173e-06 -0.000106169)
(317.725 -4.79494e-06 -0.000106699)
(317.727 -5.00262e-06 -0.000107356)
(317.729 -5.08025e-06 -0.000107782)
(317.732 -5.06783e-06 -0.000108109)
(317.735 -4.87381e-06 -0.000108741)
(317.739 -4.42792e-06 -0.000109627)
(317.742 -3.70946e-06 -0.000110598)
(317.745 -2.67586e-06 -0.000111793)
(317.748 -1.18366e-06 -0.000113281)
(317.751 8.17543e-07 -0.000115161)
(317.752 3.50144e-06 -0.000117637)
(317.754 7.00036e-06 -0.00012083)
(317.756 1.17773e-05 -0.000125118)
(317.759 1.95016e-05 -0.000132813)
(317.76 2.79761e-05 -0.000143764)
(317.759 3.63049e-05 -0.000156884)
(317.751 5.13727e-05 -0.000183514)
(317.697 6.78042e-05 -0.000210615)
(317.347 8.39704e-05 -0.000234722)
(315.142 0.000102545 -0.000274792)
(301.918 0.000120578 -0.000329559)
(238.275 0.000107518 -0.000304066)
(84.6974 3.79288e-05 -0.00010677)
(4.16611 1.55093e-06 -4.21608e-06)
(0.0162557 5.18643e-09 -1.21493e-08)
(3.74904e-06 1.04627e-11 -3.22167e-12)
(1.11992e-10 1.0682e-11 1.7719e-12)
(2.26982e-12 1.21035e-11 6.40951e-12)
(1.85059e-12 1.12963e-11 9.29318e-12)
(3.05242e-12 1.06641e-11 8.6695e-12)
(3.13402e-12 1.1034e-11 5.71985e-12)
(2.90468e-12 9.88994e-12 1.63788e-12)
(1.8734e-12 9.79191e-12 -1.25461e-12)
(3.19345e-12 8.36366e-12 -2.58969e-12)
(4.85266e-12 8.88926e-12 -4.1988e-12)
(4.94909e-12 8.97378e-12 -6.28302e-12)
(5.7822e-12 9.02475e-12 -8.28425e-12)
(6.66861e-12 9.66957e-12 -9.18428e-12)
(7.32523e-12 9.70992e-12 -9.77431e-12)
(5.86594e-12 1.08086e-11 -1.06277e-11)
(4.34117e-12 1.11315e-11 -1.2277e-11)
(3.90449e-12 1.27882e-11 -1.32269e-11)
(2.09996e-12 1.40709e-11 -1.24825e-11)
(7.56526e-13 1.4363e-11 -1.2545e-11)
(-1.48289e-12 1.43529e-11 -1.00368e-11)
(-5.66991e-12 1.26519e-11 -6.77485e-12)
(-8.20268e-12 1.06771e-11 -3.17095e-12)
(-8.7109e-12 8.8617e-12 -1.08912e-12)
(-8.62105e-12 8.20366e-12 -1.92296e-12)
(-9.1514e-12 7.23782e-12 -3.05151e-12)
(-8.75812e-12 6.40504e-12 -3.40486e-12)
(-1.0639e-11 7.37739e-12 -3.43709e-12)
(-1.25257e-11 6.68173e-12 -3.31691e-12)
(-1.19052e-11 5.64047e-12 -3.00858e-12)
(-1.02825e-11 4.66539e-12 -3.0482e-12)
(-9.823e-12 4.41848e-12 -1.83349e-12)
(-9.16828e-12 3.64429e-12 -2.17076e-13)
(-7.12957e-12 3.33704e-12 -1.78075e-12)
(-5.12633e-12 4.03435e-12 -3.22905e-12)
(-3.89184e-12 3.52735e-12 -3.82076e-12)
(-2.68553e-12 3.33857e-12 -3.11257e-12)
(-1.28126e-12 3.793e-12 -2.22671e-12)
(4.24624e-13 4.22901e-12 -2.18969e-12)
(1.51765e-12 5.56638e-12 -2.21145e-12)
(3.61368e-12 7.80296e-12 -3.60706e-12)
(4.61289e-12 9.33219e-12 -5.95003e-12)
(3.80399e-12 9.68008e-12 -3.53387e-12)
(4.871e-12 1.01333e-11 -1.83892e-12)
(2.83117e-12 1.12503e-11 -1.16764e-12)
(6.05891e-13 1.03103e-11 -1.43623e-12)
(7.94273e-13 1.01661e-11 -1.69081e-12)
(-1.17655e-12 1.05091e-11 -1.92953e-12)
(-3.03691e-12 9.13118e-12 -2.04689e-12)
(-3.33222e-12 7.72037e-12 -3.75243e-12)
(-4.82113e-12 6.32131e-12 -4.6065e-12)
(-4.25326e-12 5.26336e-12 -5.30655e-12)
(-2.27505e-12 3.82594e-12 -5.87655e-12)
(-1.73484e-13 3.29614e-12 -6.4934e-12)
(1.787e-13 2.71198e-12 -6.96245e-12)
(1.94982e-12 2.31624e-12 -5.8889e-12)
(3.31388e-12 3.57235e-12 -6.96849e-12)
(2.46184e-12 5.15066e-12 -6.60764e-12)
(-7.62692e-13 6.47993e-12 -6.22327e-12)
(-3.10671e-12 6.46294e-12 -5.78076e-12)
(-2.61292e-12 5.60296e-12 -4.81062e-12)
(-1.9648e-12 4.99928e-12 -5.40141e-12)
(-8.55942e-13 4.79942e-12 -5.48032e-12)
(-2.34437e-13 5.22482e-12 -6.35549e-12)
(-8.75131e-13 6.11481e-12 -6.85768e-12)
(-3.13377e-13 7.03816e-12 -6.70879e-12)
(-1.80799e-12 8.32064e-12 -5.32264e-12)
(-2.92021e-12 8.65657e-12 -2.04157e-12)
(-4.12046e-12 7.79995e-12 -1.84131e-12)
(-5.63191e-12 6.2646e-12 -1.40121e-12)
(-4.99501e-12 5.54695e-12 -2.39512e-13)
(-4.90838e-12 6.6433e-12 8.59797e-13)
(-8.00268e-12 8.52555e-12 3.96219e-12)
(-8.96841e-12 8.33153e-12 8.88107e-12)
(-1.20121e-11 7.84963e-12 9.33172e-12)
(-1.44248e-11 6.93563e-12 8.84336e-12)
(-1.45651e-11 5.23011e-12 8.81613e-12)
(-1.5654e-11 4.14918e-12 8.10394e-12)
(-1.48429e-11 3.94002e-12 9.53466e-12)
(-1.41334e-11 3.72289e-12 1.11715e-11)
(-1.29278e-11 3.45163e-12 9.13502e-12)
(-1.23069e-11 4.20401e-12 8.13844e-12)
(-1.32525e-11 3.49131e-12 1.01925e-11)
(-1.44794e-11 3.98367e-13 1.25166e-11)
(347.059 1.68955e-11 -1.52618e-11)
(347.059 2.01387e-11 -1.45859e-11)
(347.059 1.86793e-11 -1.57497e-11)
(347.059 2.01228e-11 -1.77763e-11)
(347.059 1.99266e-11 -1.84007e-11)
(347.059 2.32625e-11 -1.85711e-11)
(347.059 2.76077e-11 -1.94594e-11)
(347.059 2.87092e-11 -1.98598e-11)
(347.059 3.0962e-11 -2.0232e-11)
(347.059 3.55041e-11 -2.06677e-11)
(347.059 3.60083e-11 -2.17715e-11)
(347.059 3.25486e-11 -2.25509e-11)
(347.059 2.88882e-11 -2.21725e-11)
(347.059 2.34344e-11 -2.22835e-11)
(347.059 1.53341e-11 -2.40933e-11)
(347.059 1.10823e-11 -2.08131e-11)
(347.059 7.96778e-12 -1.94041e-11)
(347.059 4.92218e-12 -1.88325e-11)
(347.059 2.80717e-12 -1.83966e-11)
(347.059 1.28594e-12 -1.83983e-11)
(347.059 -9.49545e-12 -1.83304e-11)
(347.059 -6.04904e-10 1.02128e-11)
(347.048 4.37344e-08 -2.01052e-09)
(346.771 -1.60939e-06 7.29903e-08)
(341.407 2.19043e-05 -1.03069e-06)
(323.093 -2.63794e-06 1.06145e-07)
(318.499 -4.6833e-05 2.10695e-06)
(318.412 -2.91572e-05 1.30226e-06)
(318.396 -3.15821e-06 1.28077e-07)
(318.395 2.48438e-05 -1.10809e-06)
(318.383 3.84681e-05 -1.70692e-06)
(318.365 3.87786e-05 -1.71819e-06)
(318.345 3.00975e-05 -1.31999e-06)
(318.319 9.65273e-06 -3.99233e-07)
(318.286 -1.29542e-05 6.00615e-07)
(318.264 -2.64465e-05 1.188e-06)
(318.26 -2.75489e-05 1.2346e-06)
(318.257 -2.57249e-05 1.1412e-06)
(318.258 -1.89752e-05 8.32947e-07)
(318.261 -4.79555e-06 1.94504e-07)
(318.267 1.45931e-05 -7.00791e-07)
(318.279 2.60385e-05 -1.2237e-06)
(318.28 2.60685e-05 -1.21774e-06)
(318.281 2.25684e-05 -1.05048e-06)
(318.286 9.5113e-06 -4.44777e-07)
(318.291 -1.20516e-05 5.66363e-07)
(318.286 -2.49616e-05 1.1662e-06)
(318.285 -2.51457e-05 1.15485e-06)
(318.289 -2.18933e-05 9.97752e-07)
(318.293 -1.13064e-05 5.00119e-07)
(318.3 7.44541e-06 -3.79906e-07)
(318.312 2.50141e-05 -1.1893e-06)
(318.325 3.06778e-05 -1.41652e-06)
(318.33 2.91679e-05 -1.32703e-06)
(318.336 2.1468e-05 -9.3904e-07)
(318.34 4.44103e-06 -1.054e-07)
(318.337 -1.3001e-05 7.46814e-07)
(318.326 -2.05045e-05 1.08329e-06)
(318.32 -1.96421e-05 1.00649e-06)
(318.318 -1.54948e-05 7.96625e-07)
(318.317 -2.06833e-06 1.30998e-07)
(318.316 1.65447e-05 -7.97205e-07)
(318.321 2.40397e-05 -1.18247e-06)
(318.332 2.0238e-05 -9.96546e-07)
(318.338 1.30288e-05 -6.61644e-07)
(318.342 5.89497e-06 -3.24114e-07)
(318.346 -1.25177e-05 5.53228e-07)
(318.347 -2.74761e-05 1.26372e-06)
(318.339 -3.0057e-05 1.37804e-06)
(318.331 -2.59723e-05 1.17188e-06)
(318.326 -2.23225e-05 9.97264e-07)
(318.319 -1.21365e-05 5.06397e-07)
(318.315 1.839e-06 -1.53109e-07)
(318.316 1.04138e-05 -5.29803e-07)
(318.317 1.19653e-05 -5.69216e-07)
(318.318 1.01093e-05 -4.654e-07)
(318.318 4.14642e-06 -1.65824e-07)
(318.317 -2.79855e-06 1.88521e-07)
(318.313 -6.01786e-06 3.7973e-07)
(318.304 -6.86449e-06 4.19658e-07)
(318.298 -7.17909e-06 4.30791e-07)
(318.296 -5.99452e-06 3.75353e-07)
(318.294 -1.8075e-06 1.64465e-07)
(318.295 3.05512e-07 5.18947e-08)
(318.301 -1.0185e-06 9.47952e-08)
(318.312 -2.59201e-06 1.44926e-07)
(318.321 -2.84941e-06 1.2535e-07)
(318.325 -2.7325e-06 8.33852e-08)
(318.33 2.734e-07 -1.73401e-07)
(318.333 6.31735e-06 -5.73015e-07)
(318.332 9.88991e-06 -7.57768e-07)
(318.329 1.20967e-05 -8.2714e-07)
(318.329 1.27994e-05 -8.33475e-07)
(318.328 1.31587e-05 -8.06945e-07)
(318.328 1.20442e-05 -7.17839e-07)
(318.329 8.69094e-06 -5.38569e-07)
(318.33 7.13606e-06 -4.69994e-07)
(318.329 6.48396e-06 -4.42165e-07)
(318.329 5.1945e-06 -4.71526e-07)
(318.327 4.19252e-06 -6.42988e-07)
(318.326 5.95494e-06 -9.83242e-07)
(318.322 7.60982e-06 -1.14082e-06)
(318.319 9.6618e-06 -1.0982e-06)
(318.319 1.079e-05 -1.01049e-06)
(318.319 1.18449e-05 -9.14676e-07)
(318.318 1.1648e-05 -3.35513e-07)
(318.318 9.55658e-06 2.06728e-08)
(318.319 5.15637e-06 -1.18371e-07)
(318.322 3.43531e-06 -3.72727e-07)
(318.325 3.13642e-06 -3.50831e-07)
(318.327 3.11501e-06 -7.21628e-07)
(318.33 3.35568e-06 -8.65679e-07)
(318.332 5.56429e-06 -1.2038e-06)
(318.333 6.73158e-06 -1.17652e-06)
(318.332 7.12722e-06 -7.47853e-07)
(318.33 7.60793e-06 -2.97917e-07)
(318.325 7.63344e-06 1.07463e-08)
(318.32 7.19697e-06 1.95108e-07)
(318.316 5.80951e-06 1.16801e-07)
(318.313 4.00205e-06 -9.75001e-08)
(318.312 1.82847e-06 -4.12564e-07)
(318.312 -1.44817e-07 -8.01394e-07)
(318.312 -1.49918e-06 -1.01944e-06)
(318.313 -1.7712e-06 -1.03404e-06)
(318.313 -1.62292e-06 -1.01203e-06)
(318.314 -6.5814e-07 -8.06198e-07)
(318.313 -4.14005e-07 -4.84834e-07)
(318.313 -3.923e-07 -9.68431e-08)
(318.314 -8.16053e-07 9.37735e-08)
(318.316 -1.8518e-06 3.07771e-07)
(318.32 -3.01264e-06 2.11989e-07)
(318.325 -3.71179e-06 5.10563e-07)
(318.329 -5.64169e-06 8.13681e-08)
(318.333 -7.31278e-06 -3.42662e-07)
(318.335 -7.40529e-06 -3.78613e-07)
(318.335 -6.53623e-06 -3.33407e-07)
(318.335 -4.8563e-06 -3.04375e-07)
(318.333 -3.39331e-06 -2.4293e-07)
(318.332 -2.59743e-06 -1.47887e-07)
(318.33 -1.23789e-06 7.65526e-08)
(318.329 1.77171e-07 3.4721e-07)
(318.326 1.74612e-06 7.15006e-07)