/*--------------------------------*- C++ -*----------------------------------*\
| =========                 |                                                 |
| \\      /  F ield         | OpenFOAM: The Open Source CFD Toolbox           |
|  \\    /   O peration     | Version:  2406                                  |
|   \\  /    A nd           | Website:  www.openfoam.com                      |
|    \\/     M anipulation  |                                                 |
\*---------------------------------------------------------------------------*/
FoamFile
{
    version     2.0;
    format      ascii;
    arch        "LSB;label=32;scalar=64";
    class       volScalarField;
    location    "0.011";
    object      Ma;
}
// * * * * * * * * * * * * * * * * * * * * * * * * * * * * * * * * * * * * * //

dimensions      [0 0 0 0 0 0 0];

internalField   nonuniform List<scalar> 
81000
(
0.00117868
0.0011784
0.00117796
0.00117729
0.00117646
0.00117557
0.00117472
0.00117398
0.00117339
0.00117294
0.00117261
0.00117239
0.00117225
0.00117216
0.00117211
0.00117209
0.00117209
0.00117212
0.00117219
0.00117234
0.00117259
0.00117293
0.00117334
0.0011738
0.00117427
0.00117473
0.00117514
0.0011755
0.00117578
0.001176
0.00117617
0.00117629
0.00117639
0.00117648
0.00117656
0.00117663
0.00117669
0.00117674
0.00117679
0.00117684
0.00117688
0.00117688
0.0011768
0.00117662
0.00117632
0.00117589
0.00117534
0.00117467
0.00117385
0.00117289
0.00117176
0.00117047
0.00116899
0.00116732
0.00116545
0.00116337
0.00116109
0.00115859
0.0011559
0.00115302
0.00114995
0.00114672
0.00114334
0.00113983
0.00113622
0.00113252
0.00112875
0.00112496
0.00112116
0.00111739
0.00111368
0.00111006
0.00110656
0.00110317
0.00109989
0.00109672
0.00109366
0.00109074
0.00108797
0.0010854
0.00108309
0.00108106
0.00107934
0.00107795
0.00107686
0.00107605
0.0010755
0.00107516
0.00107498
0.00107491
0.00107489
0.00107493
0.00107511
0.00107557
0.0010764
0.00107757
0.00107888
0.00108004
0.00108083
0.00108123
0.0032251
0.00322438
0.00322359
0.00322251
0.00322136
0.00322034
0.00321952
0.00321891
0.0032185
0.00321823
0.00321807
0.00321798
0.00321794
0.00321795
0.00321801
0.00321811
0.00321827
0.00321849
0.00321877
0.00321912
0.00321951
0.00321994
0.0032204
0.00322085
0.00322129
0.0032217
0.00322205
0.00322236
0.00322263
0.00322287
0.00322309
0.00322333
0.00322358
0.00322387
0.00322418
0.00322451
0.00322485
0.0032252
0.00322555
0.00322589
0.0032262
0.00322648
0.00322671
0.00322687
0.00322697
0.00322701
0.00322701
0.00322697
0.00322688
0.00322674
0.00322652
0.00322621
0.0032258
0.00322526
0.00322459
0.00322377
0.00322279
0.00322165
0.00322033
0.00321886
0.00321722
0.00321543
0.00321351
0.00321147
0.00320933
0.00320711
0.00320481
0.00320241
0.00319988
0.00319717
0.00319426
0.00319114
0.00318781
0.00318428
0.00318058
0.00317672
0.00317276
0.00316873
0.00316472
0.00316079
0.00315704
0.00315357
0.00315049
0.00314791
0.00314593
0.00314457
0.0031438
0.00314346
0.00314338
0.00314344
0.00314373
0.00314441
0.00314566
0.00314762
0.00315031
0.0031536
0.00315716
0.00316043
0.00316279
0.00316423
0.00387279
0.00387197
0.00387138
0.00387035
0.00386908
0.00386786
0.00386694
0.00386639
0.00386614
0.00386607
0.00386606
0.00386608
0.00386613
0.00386621
0.00386634
0.00386651
0.00386674
0.00386703
0.00386739
0.0038678
0.00386826
0.00386874
0.00386923
0.00386971
0.00387017
0.00387061
0.00387103
0.00387142
0.00387178
0.00387211
0.00387241
0.00387277
0.00387321
0.00387373
0.00387434
0.00387502
0.00387579
0.00387663
0.00387756
0.00387856
0.00387964
0.00388079
0.00388202
0.0038833
0.00388462
0.00388598
0.00388738
0.00388878
0.00389016
0.0038915
0.00389276
0.00389392
0.00389498
0.00389592
0.00389675
0.00389749
0.00389818
0.00389888
0.00389969
0.00390069
0.00390201
0.00390373
0.00390594
0.0039087
0.00391203
0.00391586
0.00392008
0.00392453
0.00392906
0.0039335
0.00393775
0.00394174
0.00394542
0.00394874
0.00395165
0.00395401
0.00395575
0.00395671
0.00395682
0.00395614
0.00395482
0.00395323
0.00395185
0.00395112
0.00395105
0.00395156
0.00395247
0.00395391
0.00395596
0.0039587
0.00396219
0.00396651
0.00397168
0.0039778
0.00398483
0.00399267
0.00400081
0.00400844
0.00401417
0.00401769
0.00660647
0.00660431
0.00660352
0.00660276
0.00660198
0.00660136
0.00660091
0.00660049
0.00660012
0.00659983
0.00659963
0.00659952
0.00659945
0.00659945
0.00659952
0.00659966
0.00659985
0.00660006
0.00660027
0.00660043
0.00660056
0.00660064
0.00660068
0.00660069
0.0066007
0.00660069
0.00660067
0.0066006
0.00660048
0.0066003
0.00660007
0.00659981
0.00659953
0.00659926
0.00659901
0.0065988
0.00659862
0.0065985
0.00659845
0.00659848
0.0065986
0.00659883
0.00659919
0.00659969
0.00660038
0.00660129
0.00660245
0.00660391
0.00660567
0.00660769
0.00660992
0.00661231
0.00661482
0.00661744
0.00662018
0.00662305
0.00662608
0.0066293
0.00663274
0.00663644
0.00664041
0.0066447
0.00664934
0.00665435
0.00665974
0.00666552
0.00667168
0.00667821
0.00668507
0.00669222
0.0066996
0.00670714
0.00671478
0.00672245
0.00673008
0.0067376
0.00674495
0.00675208
0.00675893
0.00676547
0.00677166
0.00677746
0.00678285
0.00678781
0.00679234
0.00679647
0.00680025
0.00680375
0.00680695
0.00680974
0.00681209
0.00681418
0.00681606
0.00681777
0.00681932
0.00682074
0.00682203
0.00682313
0.00682395
0.0068254
0.0140934
0.0140964
0.0140964
0.0140963
0.0140962
0.0140959
0.0140955
0.0140952
0.0140949
0.0140947
0.0140946
0.0140945
0.0140945
0.0140944
0.0140944
0.0140944
0.0140943
0.0140943
0.0140943
0.0140943
0.0140944
0.0140944
0.0140945
0.0140946
0.0140948
0.0140949
0.0140951
0.0140953
0.0140956
0.0140958
0.0140961
0.0140964
0.0140967
0.0140971
0.0140976
0.0140981
0.0140987
0.0140994
0.0141002
0.0141012
0.0141023
0.0141035
0.0141048
0.0141063
0.0141079
0.0141096
0.0141113
0.0141132
0.0141151
0.014117
0.0141189
0.0141207
0.0141224
0.014124
0.0141254
0.0141266
0.0141277
0.0141285
0.0141292
0.0141298
0.0141302
0.0141306
0.0141311
0.0141316
0.0141322
0.014133
0.0141341
0.0141353
0.0141368
0.0141385
0.0141405
0.0141426
0.0141449
0.0141474
0.0141499
0.0141525
0.0141551
0.0141577
0.0141602
0.0141626
0.0141649
0.0141671
0.0141692
0.0141712
0.0141731
0.014175
0.0141768
0.0141786
0.0141802
0.0141818
0.0141832
0.0141846
0.0141863
0.0141875
0.0141895
0.0141915
0.0141936
0.0141955
0.0141969
0.0142011
0.0267096
0.0268082
0.0268085
0.0268085
0.0268085
0.0268085
0.0268085
0.0268085
0.0268085
0.0268084
0.0268084
0.0268084
0.0268084
0.0268084
0.0268084
0.0268084
0.0268083
0.0268083
0.0268082
0.0268082
0.0268081
0.0268081
0.026808
0.026808
0.0268079
0.0268077
0.0268076
0.0268073
0.0268071
0.0268068
0.0268065
0.0268061
0.0268058
0.0268054
0.0268051
0.0268048
0.0268047
0.0268046
0.0268046
0.0268048
0.0268051
0.0268056
0.0268062
0.0268069
0.0268078
0.0268088
0.02681
0.0268112
0.0268126
0.0268142
0.0268158
0.0268175
0.0268193
0.0268212
0.0268232
0.0268253
0.0268276
0.0268301
0.0268327
0.0268354
0.0268382
0.0268412
0.0268442
0.0268473
0.0268505
0.0268537
0.0268569
0.0268602
0.0268634
0.0268666
0.0268697
0.0268728
0.0268758
0.0268787
0.0268815
0.0268842
0.0268867
0.0268891
0.0268914
0.0268936
0.0268956
0.0268974
0.0268991
0.0269007
0.026902
0.0269032
0.0269042
0.0269051
0.0269059
0.0269065
0.0269071
0.0269076
0.026908
0.0269084
0.0269086
0.0269089
0.0269089
0.0269095
0.0269108
0.0268417
0.0422884
0.0424628
0.0424632
0.0424632
0.0424632
0.0424632
0.0424632
0.0424631
0.0424631
0.0424631
0.042463
0.042463
0.0424629
0.0424628
0.0424627
0.0424626
0.0424625
0.0424624
0.0424623
0.0424622
0.0424622
0.0424621
0.0424621
0.0424621
0.0424622
0.0424622
0.0424623
0.0424624
0.0424626
0.0424628
0.042463
0.0424633
0.0424636
0.042464
0.0424644
0.0424649
0.0424655
0.0424661
0.0424667
0.0424674
0.0424682
0.042469
0.0424698
0.0424706
0.0424714
0.0424722
0.0424729
0.0424736
0.0424742
0.0424749
0.0424755
0.0424762
0.0424768
0.0424774
0.0424779
0.0424785
0.0424789
0.0424792
0.0424793
0.0424793
0.0424792
0.0424791
0.0424789
0.0424787
0.0424785
0.0424783
0.0424783
0.0424784
0.0424786
0.0424791
0.0424799
0.042481
0.0424823
0.0424837
0.0424853
0.0424871
0.042489
0.0424911
0.0424931
0.0424951
0.042497
0.0424989
0.0425006
0.0425021
0.0425035
0.0425048
0.0425058
0.0425068
0.0425076
0.0425082
0.0425088
0.0425093
0.0425096
0.0425099
0.0425101
0.0425103
0.0425105
0.0425107
0.0425096
0.0423649
0.0543562
0.0545671
0.0545679
0.0545675
0.0545673
0.054567
0.0545667
0.0545664
0.0545661
0.0545658
0.0545655
0.0545651
0.0545648
0.0545644
0.054564
0.0545636
0.0545632
0.0545628
0.0545623
0.0545619
0.0545615
0.054561
0.0545605
0.0545601
0.0545596
0.0545592
0.0545588
0.0545583
0.0545579
0.0545576
0.0545572
0.0545569
0.0545567
0.0545565
0.0545564
0.0545563
0.0545563
0.0545563
0.0545563
0.0545564
0.0545565
0.0545567
0.0545568
0.0545568
0.0545568
0.0545568
0.0545567
0.0545567
0.0545566
0.0545565
0.0545564
0.0545562
0.054556
0.0545557
0.0545553
0.0545547
0.054554
0.0545533
0.0545527
0.0545521
0.0545515
0.0545509
0.0545504
0.05455
0.0545497
0.0545497
0.05455
0.0545508
0.054552
0.0545537
0.0545557
0.054558
0.0545606
0.0545634
0.0545664
0.0545695
0.0545727
0.0545758
0.0545788
0.0545817
0.0545843
0.0545868
0.054589
0.0545909
0.0545926
0.0545941
0.0545954
0.0545965
0.0545974
0.0545982
0.0545989
0.0545994
0.0545998
0.0546001
0.0546004
0.0546006
0.0546007
0.0546008
0.0546
0.0543851
0.0587047
0.0588647
0.058865
0.0588651
0.0588649
0.0588646
0.0588643
0.058864
0.0588636
0.0588632
0.0588628
0.0588624
0.0588619
0.0588613
0.0588608
0.0588602
0.0588595
0.0588588
0.0588581
0.0588573
0.0588566
0.0588558
0.058855
0.0588541
0.0588533
0.0588524
0.0588516
0.0588507
0.0588499
0.0588491
0.0588482
0.0588474
0.0588466
0.0588458
0.058845
0.0588442
0.0588434
0.0588426
0.0588418
0.058841
0.0588402
0.0588393
0.0588385
0.0588376
0.0588367
0.0588358
0.0588348
0.0588339
0.058833
0.0588321
0.0588313
0.0588304
0.0588296
0.0588287
0.0588279
0.0588272
0.0588268
0.0588265
0.0588264
0.0588264
0.0588265
0.0588267
0.0588269
0.0588273
0.058828
0.0588289
0.0588301
0.0588316
0.0588333
0.0588354
0.0588377
0.0588402
0.0588429
0.0588457
0.0588486
0.0588515
0.0588543
0.0588571
0.0588597
0.0588621
0.0588643
0.0588663
0.0588681
0.0588697
0.0588711
0.0588723
0.0588734
0.0588742
0.058875
0.0588757
0.0588762
0.0588766
0.058877
0.0588773
0.0588775
0.0588776
0.0588777
0.058878
0.0588778
0.0587193
0.0572252
0.0572562
0.0572561
0.0572561
0.0572561
0.0572561
0.057256
0.0572559
0.0572558
0.0572556
0.0572554
0.0572551
0.0572547
0.0572543
0.0572538
0.0572533
0.0572527
0.057252
0.0572514
0.0572506
0.0572499
0.0572492
0.0572484
0.0572477
0.0572469
0.0572462
0.0572455
0.0572449
0.0572443
0.0572437
0.0572431
0.0572426
0.0572421
0.0572415
0.057241
0.0572404
0.0572397
0.057239
0.0572381
0.0572372
0.0572361
0.0572349
0.0572335
0.057232
0.0572303
0.0572285
0.0572265
0.0572244
0.0572223
0.05722
0.0572178
0.0572156
0.0572135
0.0572116
0.0572099
0.0572086
0.0572077
0.0572074
0.0572073
0.0572076
0.0572082
0.0572093
0.0572109
0.057213
0.0572155
0.0572183
0.0572215
0.0572249
0.0572284
0.0572321
0.0572358
0.0572396
0.0572433
0.057247
0.0572506
0.057254
0.0572573
0.0572604
0.0572633
0.0572659
0.0572683
0.0572705
0.0572725
0.0572742
0.0572758
0.0572771
0.0572782
0.0572792
0.0572799
0.0572805
0.057281
0.0572813
0.0572815
0.0572817
0.0572817
0.0572818
0.0572818
0.0572818
0.0572818
0.057261
0.0011828
0.00118252
0.00118231
0.00118187
0.00118121
0.00118042
0.00117962
0.00117893
0.0011784
0.00117805
0.00117785
0.00117776
0.00117773
0.00117774
0.00117777
0.00117787
0.00117806
0.00117837
0.0011788
0.00117934
0.00117997
0.00118066
0.00118139
0.00118213
0.00118285
0.00118353
0.00118415
0.00118469
0.00118516
0.00118555
0.00118587
0.00118613
0.00118636
0.00118656
0.00118675
0.00118692
0.00118708
0.00118723
0.00118738
0.00118751
0.00118763
0.0011877
0.0011877
0.0011876
0.00118737
0.00118703
0.00118657
0.00118599
0.00118529
0.00118445
0.00118346
0.00118232
0.001181
0.0011795
0.0011778
0.00117591
0.00117381
0.00117151
0.001169
0.00116629
0.00116339
0.00116032
0.00115709
0.00115371
0.00115021
0.0011466
0.00114289
0.00113912
0.00113528
0.00113142
0.00112755
0.00112369
0.00111987
0.00111608
0.00111233
0.00110861
0.00110493
0.00110131
0.00109778
0.0010944
0.00109122
0.00108829
0.00108568
0.00108342
0.00108153
0.00108003
0.00107891
0.00107814
0.00107768
0.00107745
0.00107738
0.00107737
0.00107744
0.00107772
0.00107835
0.00107933
0.00108051
0.00108162
0.00108239
0.00108292
0.00320814
0.00321069
0.00321061
0.00321037
0.00320992
0.00320931
0.00320868
0.00320814
0.00320775
0.00320753
0.00320744
0.00320745
0.00320753
0.0032077
0.00320797
0.00320835
0.00320883
0.00320942
0.00321008
0.00321082
0.00321159
0.00321238
0.00321317
0.00321394
0.00321467
0.00321535
0.00321596
0.0032165
0.00321697
0.00321738
0.00321775
0.00321809
0.00321843
0.00321876
0.00321909
0.00321941
0.00321971
0.00322
0.00322026
0.00322048
0.00322065
0.00322078
0.00322085
0.00322085
0.00322078
0.00322063
0.0032204
0.00322009
0.00321967
0.00321915
0.00321851
0.00321774
0.00321683
0.00321578
0.00321457
0.00321322
0.0032117
0.00321004
0.00320822
0.00320626
0.00320416
0.00320192
0.00319957
0.00319709
0.00319452
0.00319185
0.00318908
0.00318619
0.00318314
0.00317991
0.00317647
0.00317281
0.00316895
0.00316492
0.00316075
0.00315649
0.00315221
0.00314797
0.00314385
0.00313994
0.00313632
0.0031331
0.00313038
0.00312824
0.00312674
0.00312583
0.00312541
0.00312528
0.00312531
0.00312551
0.00312602
0.003127
0.00312858
0.00313083
0.00313366
0.00313679
0.0031398
0.00314223
0.00314377
0.00314535
0.003772
0.00377435
0.00377426
0.00377396
0.0037734
0.00377265
0.0037719
0.0037713
0.00377093
0.00377076
0.00377072
0.00377072
0.00377075
0.00377084
0.00377102
0.0037713
0.00377169
0.00377216
0.0037727
0.00377328
0.00377388
0.00377448
0.00377505
0.0037756
0.0037761
0.00377655
0.00377695
0.00377731
0.00377761
0.00377784
0.00377803
0.00377825
0.00377852
0.00377886
0.00377925
0.00377969
0.00378015
0.00378064
0.00378115
0.00378168
0.00378221
0.00378274
0.00378326
0.00378375
0.00378421
0.00378462
0.00378497
0.00378524
0.00378544
0.00378558
0.00378566
0.00378568
0.00378565
0.00378558
0.00378551
0.00378549
0.00378558
0.00378585
0.00378637
0.00378722
0.00378849
0.00379024
0.00379245
0.00379511
0.00379816
0.00380159
0.00380527
0.00380913
0.00381301
0.00381684
0.00382046
0.00382379
0.00382673
0.00382926
0.0038314
0.0038332
0.00383465
0.00383569
0.00383627
0.00383655
0.00383673
0.00383699
0.00383754
0.00383853
0.00384
0.00384207
0.00384484
0.00384827
0.00385235
0.00385699
0.00386226
0.00386809
0.0038746
0.0038816
0.00388902
0.00389636
0.00390315
0.00390857
0.00391207
0.00391536
0.00657367
0.00658795
0.00658771
0.00658757
0.00658724
0.00658673
0.00658616
0.00658563
0.00658523
0.00658498
0.00658484
0.00658476
0.00658475
0.00658478
0.00658484
0.00658493
0.00658505
0.0065852
0.00658535
0.00658551
0.00658564
0.00658575
0.00658584
0.00658589
0.00658592
0.00658594
0.00658594
0.00658593
0.00658589
0.00658581
0.00658569
0.00658555
0.0065854
0.00658527
0.00658517
0.00658512
0.00658513
0.00658521
0.00658539
0.00658567
0.00658607
0.00658659
0.00658726
0.00658808
0.00658909
0.00659031
0.00659176
0.00659346
0.0065954
0.00659758
0.00659997
0.00660253
0.00660525
0.00660809
0.00661106
0.00661414
0.00661734
0.00662065
0.00662409
0.00662764
0.0066313
0.00663508
0.00663898
0.00664302
0.00664723
0.00665164
0.00665626
0.00666106
0.00666604
0.00667116
0.00667638
0.00668165
0.00668691
0.00669212
0.00669721
0.00670214
0.00670685
0.00671132
0.00671552
0.00671943
0.00672304
0.00672638
0.00672945
0.00673231
0.006735
0.00673755
0.00674
0.00674235
0.00674461
0.00674673
0.00674873
0.00675067
0.0067526
0.0067545
0.00675627
0.00675774
0.00675877
0.0067593
0.00675945
0.00675297
0.0140093
0.014017
0.014017
0.014017
0.0140168
0.0140166
0.0140162
0.0140158
0.0140154
0.0140152
0.0140151
0.014015
0.014015
0.014015
0.014015
0.014015
0.014015
0.0140151
0.0140151
0.0140152
0.0140153
0.0140153
0.0140154
0.0140155
0.0140156
0.0140157
0.0140159
0.014016
0.0140162
0.0140163
0.0140165
0.0140168
0.014017
0.0140173
0.0140177
0.0140182
0.0140188
0.0140194
0.0140202
0.0140212
0.0140223
0.0140235
0.0140249
0.0140264
0.014028
0.0140298
0.0140317
0.0140338
0.014036
0.0140383
0.0140407
0.0140432
0.0140458
0.0140485
0.0140512
0.014054
0.0140567
0.0140594
0.0140621
0.0140648
0.0140674
0.01407
0.0140726
0.0140753
0.014078
0.0140808
0.0140837
0.0140867
0.0140898
0.014093
0.0140963
0.0140997
0.0141031
0.0141065
0.0141099
0.0141132
0.0141165
0.0141197
0.0141227
0.0141256
0.0141284
0.0141309
0.0141333
0.0141354
0.0141373
0.0141391
0.0141407
0.0141423
0.0141438
0.0141451
0.0141465
0.0141477
0.0141491
0.0141504
0.0141517
0.0141527
0.0141535
0.0141538
0.0141546
0.0141446
0.0266516
0.0267492
0.0267495
0.0267495
0.0267495
0.0267494
0.0267494
0.0267494
0.0267494
0.0267494
0.0267494
0.0267494
0.0267495
0.0267495
0.0267495
0.0267496
0.0267496
0.0267497
0.0267498
0.0267499
0.02675
0.0267502
0.0267503
0.0267506
0.0267508
0.0267511
0.0267513
0.0267516
0.0267519
0.0267522
0.0267525
0.0267528
0.0267532
0.0267535
0.0267539
0.0267543
0.0267548
0.0267553
0.0267558
0.0267564
0.0267571
0.0267578
0.0267586
0.0267595
0.0267605
0.0267616
0.0267628
0.0267641
0.0267654
0.0267667
0.0267681
0.0267694
0.0267707
0.026772
0.0267733
0.0267745
0.0267757
0.0267769
0.026778
0.0267792
0.0267805
0.0267818
0.0267832
0.0267848
0.0267864
0.0267882
0.02679
0.026792
0.0267941
0.0267963
0.0267986
0.0268009
0.0268033
0.0268056
0.026808
0.0268103
0.0268126
0.0268148
0.0268169
0.0268189
0.0268208
0.0268226
0.0268243
0.0268258
0.0268272
0.0268284
0.0268294
0.0268303
0.026831
0.0268317
0.0268322
0.0268326
0.026833
0.0268333
0.0268336
0.0268339
0.0268338
0.0268345
0.0268359
0.0267655
0.0422632
0.0424396
0.04244
0.04244
0.04244
0.04244
0.04244
0.0424399
0.0424399
0.0424399
0.0424398
0.0424398
0.0424397
0.0424396
0.0424395
0.0424394
0.0424393
0.0424392
0.0424392
0.0424391
0.042439
0.042439
0.042439
0.042439
0.042439
0.042439
0.0424391
0.0424391
0.0424392
0.0424393
0.0424394
0.0424395
0.0424396
0.0424396
0.0424397
0.0424398
0.0424399
0.0424399
0.04244
0.0424401
0.0424402
0.0424403
0.0424404
0.0424405
0.0424407
0.0424409
0.0424411
0.0424413
0.0424416
0.042442
0.0424424
0.0424429
0.0424434
0.0424439
0.0424445
0.042445
0.0424455
0.0424459
0.0424463
0.0424466
0.0424469
0.0424472
0.0424476
0.042448
0.0424485
0.0424491
0.0424497
0.0424505
0.0424514
0.0424524
0.0424536
0.0424549
0.0424565
0.0424583
0.0424601
0.0424619
0.0424638
0.0424656
0.0424674
0.0424691
0.0424708
0.0424723
0.0424737
0.042475
0.0424761
0.0424771
0.042478
0.0424787
0.0424793
0.0424798
0.0424803
0.0424806
0.042481
0.0424812
0.0424814
0.0424816
0.0424818
0.0424821
0.0424816
0.0423256
0.0543452
0.0545554
0.0545562
0.0545559
0.0545557
0.0545554
0.0545551
0.0545548
0.0545545
0.0545541
0.0545538
0.0545534
0.054553
0.0545526
0.0545522
0.0545517
0.0545513
0.0545508
0.0545502
0.0545497
0.0545491
0.0545485
0.0545479
0.0545473
0.0545466
0.0545459
0.0545452
0.0545445
0.0545438
0.054543
0.0545423
0.0545415
0.0545408
0.0545401
0.0545393
0.0545387
0.054538
0.0545374
0.0545368
0.0545362
0.0545357
0.0545353
0.0545349
0.0545345
0.0545342
0.0545338
0.0545335
0.0545333
0.054533
0.0545328
0.0545326
0.0545324
0.0545321
0.0545318
0.0545314
0.0545309
0.0545304
0.0545299
0.0545295
0.0545292
0.054529
0.0545288
0.0545288
0.054529
0.0545294
0.0545302
0.0545314
0.0545331
0.0545354
0.0545381
0.0545413
0.0545447
0.0545485
0.0545526
0.0545567
0.054561
0.0545652
0.0545693
0.0545732
0.0545769
0.0545803
0.0545834
0.0545861
0.0545885
0.0545906
0.0545924
0.0545939
0.0545952
0.0545963
0.0545972
0.0545979
0.0545984
0.0545989
0.0545992
0.0545995
0.0545997
0.0545998
0.0546
0.0545992
0.054381
0.0587048
0.0588716
0.0588719
0.058872
0.0588718
0.0588715
0.0588712
0.0588709
0.0588705
0.0588701
0.0588697
0.0588692
0.0588687
0.0588682
0.0588676
0.0588669
0.0588663
0.0588655
0.0588648
0.058864
0.0588631
0.0588623
0.0588614
0.0588605
0.0588596
0.0588586
0.0588577
0.0588567
0.0588557
0.0588547
0.0588538
0.0588528
0.0588518
0.0588508
0.0588498
0.0588488
0.0588478
0.0588468
0.0588458
0.0588448
0.0588438
0.0588428
0.0588418
0.0588408
0.0588399
0.058839
0.0588381
0.0588373
0.0588365
0.0588357
0.0588349
0.0588342
0.0588335
0.0588327
0.0588321
0.0588315
0.0588312
0.058831
0.058831
0.0588311
0.0588312
0.0588315
0.0588318
0.0588324
0.0588331
0.0588342
0.0588356
0.0588373
0.0588394
0.0588418
0.0588444
0.0588472
0.0588501
0.0588532
0.0588562
0.0588592
0.0588622
0.058865
0.0588677
0.0588703
0.0588726
0.0588747
0.0588767
0.0588784
0.0588799
0.0588811
0.0588823
0.0588832
0.058884
0.0588847
0.0588853
0.0588857
0.0588861
0.0588863
0.0588865
0.0588867
0.0588868
0.058887
0.0588864
0.0587309
0.0572328
0.057262
0.057262
0.0572619
0.0572619
0.0572618
0.0572618
0.0572616
0.0572615
0.0572613
0.0572611
0.0572607
0.0572604
0.05726
0.0572595
0.0572589
0.0572583
0.0572576
0.0572569
0.0572562
0.0572554
0.0572546
0.0572539
0.0572531
0.0572523
0.0572515
0.0572508
0.0572501
0.0572494
0.0572488
0.0572481
0.0572476
0.057247
0.0572465
0.0572459
0.0572453
0.0572447
0.0572441
0.0572434
0.0572426
0.0572417
0.0572407
0.0572396
0.0572383
0.057237
0.0572355
0.057234
0.0572324
0.0572309
0.0572293
0.0572278
0.0572264
0.0572253
0.0572243
0.0572236
0.0572231
0.057223
0.0572231
0.0572234
0.057224
0.0572248
0.0572257
0.0572268
0.0572283
0.05723
0.057232
0.0572343
0.0572369
0.0572398
0.0572429
0.0572462
0.0572496
0.0572529
0.0572563
0.0572596
0.0572627
0.0572658
0.0572686
0.0572713
0.0572738
0.057276
0.0572781
0.0572799
0.0572816
0.057283
0.0572843
0.0572853
0.0572862
0.0572869
0.0572875
0.0572879
0.0572882
0.0572885
0.0572886
0.0572887
0.0572888
0.0572888
0.0572888
0.0572887
0.0572704
0.0011829
0.00118239
0.00118193
0.00118124
0.00118042
0.00117957
0.00117878
0.00117814
0.00117768
0.00117741
0.00117729
0.00117727
0.00117728
0.00117734
0.00117751
0.00117785
0.00117836
0.00117904
0.00117988
0.00118084
0.00118188
0.00118296
0.00118406
0.00118513
0.00118616
0.00118711
0.00118797
0.00118875
0.00118943
0.00119002
0.00119052
0.00119095
0.00119133
0.00119168
0.001192
0.0011923
0.00119258
0.00119286
0.00119311
0.00119335
0.00119355
0.0011937
0.00119378
0.00119376
0.00119364
0.00119339
0.00119304
0.00119257
0.00119199
0.00119128
0.00119044
0.00118945
0.00118829
0.00118697
0.00118546
0.00118376
0.00118186
0.00117975
0.00117743
0.00117491
0.00117219
0.00116927
0.00116618
0.00116291
0.0011595
0.00115594
0.00115225
0.00114845
0.00114453
0.00114053
0.00113644
0.0011323
0.00112811
0.00112388
0.00111958
0.00111523
0.00111085
0.00110646
0.00110211
0.00109787
0.00109378
0.00108993
0.00108637
0.00108319
0.00108044
0.00107818
0.00107643
0.00107519
0.00107441
0.00107401
0.00107386
0.00107383
0.00107387
0.00107407
0.00107454
0.00107533
0.00107637
0.00107745
0.00107829
0.001079
0.00318258
0.0031817
0.00318165
0.00318146
0.00318107
0.00318049
0.0031798
0.00317914
0.0031786
0.00317824
0.00317805
0.00317799
0.00317806
0.00317824
0.00317858
0.00317909
0.00317979
0.00318063
0.0031816
0.00318265
0.00318375
0.00318486
0.00318597
0.00318704
0.00318805
0.00318899
0.00318985
0.00319061
0.00319128
0.00319186
0.00319237
0.00319282
0.00319323
0.00319362
0.00319398
0.00319432
0.00319462
0.00319488
0.0031951
0.00319527
0.00319539
0.00319546
0.00319549
0.00319545
0.00319533
0.00319514
0.00319488
0.00319453
0.00319409
0.00319353
0.00319284
0.00319202
0.00319106
0.00318995
0.00318868
0.00318726
0.00318568
0.00318393
0.00318202
0.00317995
0.00317772
0.00317532
0.00317277
0.00317006
0.00316719
0.00316416
0.00316094
0.00315754
0.00315392
0.00315005
0.00314593
0.00314154
0.00313691
0.00313207
0.00312708
0.00312201
0.00311694
0.00311197
0.00310722
0.00310282
0.00309887
0.00309547
0.00309269
0.00309056
0.00308905
0.0030881
0.00308757
0.00308734
0.00308728
0.00308737
0.00308773
0.00308857
0.00309008
0.00309234
0.00309526
0.00309855
0.00310175
0.00310437
0.00310604
0.0031082
0.00366001
0.00367225
0.0036723
0.00367219
0.00367186
0.00367127
0.00367054
0.00366985
0.00366933
0.00366901
0.00366887
0.00366884
0.00366885
0.00366891
0.0036691
0.00366944
0.00366997
0.00367061
0.00367135
0.00367212
0.0036729
0.00367364
0.00367434
0.00367497
0.00367555
0.00367604
0.00367646
0.00367682
0.0036771
0.00367731
0.00367748
0.00367765
0.00367783
0.00367806
0.00367833
0.00367864
0.00367895
0.00367926
0.00367957
0.00367988
0.00368016
0.0036804
0.0036806
0.00368076
0.00368089
0.00368101
0.00368113
0.00368128
0.00368146
0.0036817
0.00368202
0.00368244
0.00368303
0.00368382
0.00368483
0.0036861
0.00368765
0.00368952
0.0036917
0.00369419
0.00369689
0.00369977
0.0037028
0.00370598
0.0037093
0.00371276
0.0037163
0.00371984
0.00372325
0.00372645
0.00372929
0.00373165
0.00373337
0.00373434
0.00373445
0.00373374
0.00373234
0.00373049
0.00372851
0.00372661
0.00372506
0.00372405
0.00372367
0.00372406
0.00372516
0.00372717
0.0037301
0.00373402
0.0037387
0.00374432
0.00375056
0.00375764
0.00376498
0.00377251
0.00377929
0.00378492
0.0037886
0.00379045
0.00379096
0.00379004
0.00658283
0.00658001
0.00657976
0.00657908
0.00657803
0.00657683
0.00657575
0.00657491
0.00657434
0.00657398
0.00657377
0.00657365
0.0065736
0.00657358
0.00657357
0.00657358
0.0065736
0.00657363
0.00657369
0.00657377
0.00657387
0.00657396
0.00657404
0.0065741
0.00657416
0.0065742
0.00657423
0.00657425
0.00657427
0.00657427
0.00657427
0.00657426
0.00657426
0.00657429
0.00657436
0.00657451
0.00657477
0.00657515
0.00657567
0.00657632
0.00657712
0.00657805
0.00657914
0.00658038
0.00658181
0.00658342
0.00658523
0.00658725
0.00658947
0.0065919
0.00659452
0.0065973
0.00660023
0.00660326
0.00660636
0.00660951
0.0066127
0.0066159
0.00661911
0.00662231
0.00662552
0.00662874
0.006632
0.00663533
0.00663871
0.00664214
0.00664564
0.0066492
0.00665282
0.00665653
0.00666029
0.00666402
0.00666769
0.00667124
0.00667465
0.00667787
0.00668089
0.00668369
0.00668625
0.0066886
0.00669076
0.00669275
0.00669464
0.00669649
0.00669835
0.00670021
0.00670205
0.00670385
0.00670562
0.0067073
0.00670893
0.00671061
0.00671241
0.00671436
0.00671648
0.00671875
0.00672108
0.00672326
0.00672493
0.00672922
0.0139162
0.0139146
0.0139146
0.0139145
0.0139144
0.0139142
0.0139139
0.0139137
0.0139135
0.0139133
0.0139133
0.0139133
0.0139133
0.0139133
0.0139134
0.0139135
0.0139135
0.0139136
0.0139137
0.0139138
0.0139139
0.013914
0.013914
0.0139141
0.0139142
0.0139143
0.0139143
0.0139144
0.0139146
0.0139147
0.0139149
0.0139151
0.0139153
0.0139156
0.013916
0.0139165
0.0139171
0.0139177
0.0139185
0.0139195
0.0139205
0.0139217
0.0139231
0.0139246
0.0139263
0.0139281
0.0139301
0.0139323
0.0139346
0.0139371
0.0139397
0.0139425
0.0139455
0.0139486
0.013952
0.0139556
0.0139595
0.0139637
0.0139681
0.0139728
0.0139779
0.0139832
0.0139888
0.0139946
0.0140007
0.0140069
0.0140132
0.0140196
0.014026
0.0140324
0.0140386
0.0140448
0.0140508
0.0140566
0.0140621
0.0140674
0.0140723
0.0140769
0.0140812
0.0140852
0.0140888
0.014092
0.0140948
0.0140973
0.0140994
0.0141011
0.0141025
0.0141037
0.0141046
0.0141054
0.0141061
0.0141066
0.0141069
0.0141072
0.0141074
0.0141075
0.0141075
0.0141074
0.0141066
0.014073
0.0267222
0.0268009
0.0268017
0.0268017
0.0268017
0.0268016
0.0268016
0.0268016
0.0268015
0.0268015
0.0268015
0.0268015
0.0268015
0.0268016
0.0268016
0.0268016
0.0268017
0.0268018
0.0268019
0.026802
0.0268022
0.0268024
0.0268027
0.026803
0.0268034
0.0268038
0.0268043
0.0268048
0.0268054
0.026806
0.0268066
0.0268073
0.026808
0.0268087
0.0268095
0.0268103
0.0268111
0.026812
0.0268128
0.0268137
0.0268146
0.0268155
0.0268165
0.0268175
0.0268186
0.0268198
0.0268211
0.0268224
0.0268238
0.0268251
0.0268265
0.0268278
0.0268291
0.0268302
0.0268312
0.0268321
0.0268329
0.0268336
0.0268341
0.0268347
0.0268351
0.0268356
0.0268361
0.0268367
0.0268374
0.0268382
0.0268392
0.0268404
0.0268418
0.0268433
0.026845
0.0268468
0.0268487
0.0268506
0.0268526
0.0268546
0.0268567
0.0268588
0.0268608
0.0268627
0.0268646
0.0268663
0.0268679
0.0268693
0.0268706
0.0268718
0.0268728
0.0268737
0.0268744
0.026875
0.0268755
0.0268759
0.0268762
0.0268765
0.0268766
0.026877
0.0268772
0.0268779
0.0268785
0.0268218
0.0423484
0.0425198
0.0425202
0.0425202
0.0425202
0.0425202
0.0425202
0.0425201
0.0425201
0.0425201
0.04252
0.04252
0.0425199
0.0425198
0.0425197
0.0425196
0.0425195
0.0425194
0.0425193
0.0425192
0.0425192
0.0425191
0.0425191
0.042519
0.042519
0.042519
0.0425191
0.0425191
0.0425191
0.0425191
0.0425191
0.0425191
0.0425191
0.0425191
0.042519
0.042519
0.0425189
0.0425189
0.0425188
0.0425187
0.0425186
0.0425185
0.0425184
0.0425184
0.0425184
0.0425184
0.0425185
0.0425187
0.0425189
0.0425193
0.0425197
0.0425203
0.0425209
0.0425216
0.0425223
0.0425229
0.0425235
0.0425241
0.0425247
0.0425252
0.0425258
0.0425264
0.0425271
0.0425278
0.0425285
0.0425294
0.0425303
0.0425312
0.0425322
0.0425332
0.0425344
0.0425355
0.0425368
0.0425382
0.0425398
0.0425415
0.0425432
0.0425449
0.0425466
0.0425482
0.0425497
0.042551
0.0425523
0.0425534
0.0425543
0.0425552
0.0425559
0.0425565
0.0425571
0.0425575
0.0425579
0.0425583
0.0425586
0.0425588
0.0425591
0.0425593
0.0425595
0.0425598
0.0425596
0.0424075
0.054405
0.0546083
0.0546085
0.0546083
0.0546081
0.0546078
0.0546075
0.0546073
0.0546069
0.0546066
0.0546063
0.0546059
0.0546055
0.0546051
0.0546047
0.0546042
0.0546037
0.0546032
0.0546027
0.0546022
0.0546016
0.0546011
0.0546005
0.0545999
0.0545993
0.0545987
0.0545981
0.0545975
0.0545969
0.0545964
0.0545959
0.0545954
0.0545949
0.0545945
0.0545941
0.0545938
0.0545935
0.0545932
0.0545929
0.0545927
0.0545925
0.0545923
0.0545922
0.0545921
0.0545919
0.0545918
0.0545917
0.0545916
0.0545915
0.0545914
0.0545913
0.0545913
0.0545913
0.0545912
0.0545911
0.0545911
0.0545911
0.0545912
0.0545913
0.0545915
0.0545917
0.0545919
0.0545922
0.0545925
0.0545931
0.0545938
0.0545947
0.0545958
0.0545972
0.0545989
0.0546008
0.0546028
0.0546051
0.0546075
0.05461
0.0546126
0.0546153
0.054618
0.0546206
0.0546232
0.0546257
0.054628
0.0546302
0.0546322
0.054634
0.0546356
0.0546371
0.0546383
0.0546394
0.0546403
0.0546411
0.0546417
0.0546422
0.0546426
0.054643
0.0546432
0.0546434
0.0546437
0.0546431
0.0544458
0.0587429
0.0589171
0.0589178
0.0589179
0.0589177
0.0589174
0.0589171
0.0589168
0.0589165
0.0589161
0.0589157
0.0589152
0.0589147
0.0589141
0.0589136
0.0589129
0.0589123
0.0589116
0.0589108
0.05891