/*--------------------------------*- C++ -*----------------------------------*\
| =========                 |                                                 |
| \\      /  F ield         | OpenFOAM: The Open Source CFD Toolbox           |
|  \\    /   O peration     | Version:  2406                                  |
|   \\  /    A nd           | Website:  www.openfoam.com                      |
|    \\/     M anipulation  |                                                 |
\*---------------------------------------------------------------------------*/
FoamFile
{
    version     2.0;
    format      ascii;
    arch        "LSB;label=32;scalar=64";
    class       volVectorField;
    location    "0.011";
    object      U;
}
// * * * * * * * * * * * * * * * * * * * * * * * * * * * * * * * * * * * * * //

dimensions      [0 1 -1 0 0 0 0];

internalField   nonuniform List<vector> 
81000
(
(0.169428 0.367958 0)
(0.1694 0.36783 0)
(0.169398 0.367666 0)
(0.169394 0.367413 0)
(0.169389 0.367101 0)
(0.169383 0.366767 0)
(0.169379 0.366449 0)
(0.169377 0.36617 0)
(0.169377 0.365945 0)
(0.169379 0.365773 0)
(0.169383 0.365649 0)
(0.169388 0.365563 0)
(0.169394 0.365505 0)
(0.169399 0.365468 0)
(0.169404 0.365447 0)
(0.169408 0.365438 0)
(0.169413 0.365437 0)
(0.169417 0.365445 0)
(0.169427 0.365468 0)
(0.169442 0.365517 0)
(0.169465 0.365601 0)
(0.169497 0.365715 0)
(0.169537 0.365855 0)
(0.169586 0.366005 0)
(0.169648 0.366156 0)
(0.169724 0.366292 0)
(0.169819 0.366405 0)
(0.169934 0.366486 0)
(0.170068 0.366532 0)
(0.170216 0.366546 0)
(0.170374 0.366535 0)
(0.17054 0.366506 0)
(0.170713 0.366464 0)
(0.170889 0.366415 0)
(0.171067 0.366361 0)
(0.171244 0.366304 0)
(0.17142 0.366246 0)
(0.171593 0.366186 0)
(0.171762 0.366126 0)
(0.171927 0.366066 0)
(0.172088 0.366004 0)
(0.172242 0.365931 0)
(0.172385 0.365836 0)
(0.172508 0.365709 0)
(0.172611 0.365545 0)
(0.172696 0.365343 0)
(0.172765 0.365102 0)
(0.172821 0.364818 0)
(0.172866 0.364486 0)
(0.172903 0.364103 0)
(0.17293 0.363662 0)
(0.172948 0.363161 0)
(0.172957 0.362594 0)
(0.172956 0.361958 0)
(0.172944 0.361251 0)
(0.17292 0.36047 0)
(0.172884 0.359617 0)
(0.172833 0.358691 0)
(0.172769 0.357694 0)
(0.17269 0.356631 0)
(0.172596 0.355506 0)
(0.172486 0.354325 0)
(0.172359 0.353095 0)
(0.172213 0.351824 0)
(0.172047 0.350522 0)
(0.171859 0.349196 0)
(0.171649 0.347858 0)
(0.171418 0.346517 0)
(0.171171 0.345182 0)
(0.17092 0.34386 0)
(0.170683 0.342554 0)
(0.170481 0.341265 0)
(0.170325 0.339997 0)
(0.170213 0.338751 0)
(0.170134 0.33753 0)
(0.170078 0.336338 0)
(0.170035 0.335181 0)
(0.170002 0.334069 0)
(0.169976 0.333015 0)
(0.169955 0.332036 0)
(0.169939 0.331149 0)
(0.169926 0.330373 0)
(0.169917 0.329715 0)
(0.169911 0.329177 0)
(0.169907 0.328758 0)
(0.169904 0.328449 0)
(0.169902 0.328237 0)
(0.1699 0.328106 0)
(0.169899 0.328036 0)
(0.169899 0.328007 0)
(0.169899 0.328001 0)
(0.169899 0.328015 0)
(0.1699 0.328084 0)
(0.169901 0.328262 0)
(0.169906 0.328583 0)
(0.169912 0.329031 0)
(0.169918 0.329533 0)
(0.169924 0.329982 0)
(0.169928 0.330283 0)
(0.169953 0.330451 0)
(0.186021 1.09272 0)
(0.185981 1.09236 0)
(0.185985 1.09208 0)
(0.185996 1.0917 0)
(0.186014 1.0913 0)
(0.186036 1.09094 0)
(0.186064 1.09065 0)
(0.186096 1.09043 0)
(0.18613 1.09028 0)
(0.186163 1.09018 0)
(0.186195 1.09012 0)
(0.186225 1.09009 0)
(0.186254 1.09007 0)
(0.186283 1.09006 0)
(0.186312 1.09008 0)
(0.186344 1.09011 0)
(0.186378 1.09016 0)
(0.186418 1.09023 0)
(0.186464 1.09032 0)
(0.186516 1.09043 0)
(0.186575 1.09056 0)
(0.186643 1.0907 0)
(0.186722 1.09084 0)
(0.186815 1.09099 0)
(0.186926 1.09112 0)
(0.187058 1.09124 0)
(0.187211 1.09134 0)
(0.187384 1.09142 0)
(0.187571 1.09148 0)
(0.187769 1.09153 0)
(0.187973 1.09157 0)
(0.188177 1.09162 0)
(0.188378 1.09167 0)
(0.188571 1.09174 0)
(0.188753 1.09181 0)
(0.188922 1.0919 0)
(0.189078 1.09199 0)
(0.189219 1.09209 0)
(0.189347 1.09219 0)
(0.189463 1.09229 0)
(0.189566 1.09238 0)
(0.189654 1.09246 0)
(0.189727 1.09253 0)
(0.189781 1.09258 0)
(0.189819 1.0926 0)
(0.189842 1.09261 0)
(0.189858 1.09261 0)
(0.189865 1.09259 0)
(0.189867 1.09256 0)
(0.189864 1.09251 0)
(0.189854 1.09244 0)
(0.189837 1.09234 0)
(0.189809 1.0922 0)
(0.189771 1.09202 0)
(0.18972 1.09179 0)
(0.189654 1.09152 0)
(0.189571 1.09119 0)
(0.189469 1.09081 0)
(0.189344 1.09037 0)
(0.189193 1.08988 0)
(0.18901 1.08934 0)
(0.188791 1.08876 0)
(0.188528 1.08813 0)
(0.188212 1.08747 0)
(0.187836 1.08679 0)
(0.187397 1.08609 0)
(0.186902 1.08538 0)
(0.18637 1.08463 0)
(0.18583 1.08384 0)
(0.185312 1.08299 0)
(0.184845 1.08205 0)
(0.184446 1.08103 0)
(0.184117 1.07993 0)
(0.183849 1.07874 0)
(0.183636 1.07749 0)
(0.183466 1.07617 0)
(0.183331 1.07481 0)
(0.18322 1.07343 0)
(0.183126 1.07204 0)
(0.183043 1.07069 0)
(0.182965 1.06939 0)
(0.18289 1.0682 0)
(0.182813 1.06713 0)
(0.182732 1.06625 0)
(0.18265 1.06557 0)
(0.182574 1.06511 0)
(0.182512 1.06485 0)
(0.182467 1.06474 0)
(0.182436 1.06472 0)
(0.182408 1.06474 0)
(0.182369 1.06485 0)
(0.182321 1.0651 0)
(0.182262 1.06554 0)
(0.182194 1.06624 0)
(0.182125 1.06719 0)
(0.182065 1.06834 0)
(0.182024 1.06959 0)
(0.182005 1.07073 0)
(0.182 1.07156 0)
(0.18204 1.07216 0)
(0.63899 1.16768 0)
(0.638781 1.16722 0)
(0.638781 1.16699 0)
(0.638779 1.16659 0)
(0.638777 1.16609 0)
(0.638775 1.16562 0)
(0.638774 1.16526 0)
(0.638775 1.16504 0)
(0.638776 1.16494 0)
(0.638777 1.16491 0)
(0.638777 1.16491 0)
(0.638778 1.16492 0)
(0.638778 1.16494 0)
(0.638779 1.16497 0)
(0.638779 1.16502 0)
(0.63878 1.16508 0)
(0.638782 1.16517 0)
(0.638785 1.16529 0)
(0.638789 1.16543 0)
(0.638796 1.16558 0)
(0.638806 1.16576 0)
(0.63882 1.16594 0)
(0.638838 1.16612 0)
(0.638862 1.1663 0)
(0.638892 1.16646 0)
(0.638932 1.16661 0)
(0.638984 1.16675 0)
(0.639053 1.16687 0)
(0.639142 1.16696 0)
(0.639257 1.16702 0)
(0.639391 1.16707 0)
(0.63953 1.16713 0)
(0.639671 1.16723 0)
(0.639813 1.16736 0)
(0.639962 1.16751 0)
(0.640123 1.16769 0)
(0.640303 1.16789 0)
(0.640505 1.16811 0)
(0.640731 1.16835 0)
(0.640976 1.16861 0)
(0.641241 1.16889 0)
(0.641526 1.16919 0)
(0.641835 1.1695 0)
(0.642166 1.16981 0)
(0.642522 1.17014 0)
(0.642905 1.17046 0)
(0.643318 1.17078 0)
(0.64376 1.17109 0)
(0.644235 1.17137 0)
(0.644744 1.17161 0)
(0.645292 1.17181 0)
(0.645882 1.17194 0)
(0.646517 1.172 0)
(0.647202 1.172 0)
(0.647939 1.17192 0)
(0.648733 1.17177 0)
(0.649588 1.17156 0)
(0.650506 1.17133 0)
(0.651492 1.1711 0)
(0.652545 1.17091 0)
(0.653664 1.1708 0)
(0.654838 1.17082 0)
(0.656051 1.17102 0)
(0.657276 1.17142 0)
(0.658483 1.17205 0)
(0.659642 1.17291 0)
(0.660745 1.17395 0)
(0.661797 1.17511 0)
(0.662821 1.17632 0)
(0.663837 1.1775 0)
(0.664862 1.1786 0)
(0.665879 1.1796 0)
(0.666873 1.18049 0)
(0.667824 1.18126 0)
(0.668734 1.18189 0)
(0.669595 1.18234 0)
(0.670416 1.18255 0)
(0.671178 1.1825 0)
(0.671871 1.18215 0)
(0.672472 1.18154 0)
(0.673001 1.18071 0)
(0.673449 1.17982 0)
(0.673828 1.17906 0)
(0.674123 1.1786 0)
(0.674346 1.17844 0)
(0.674535 1.17853 0)
(0.674665 1.17882 0)
(0.674783 1.17932 0)
(0.67489 1.18007 0)
(0.674993 1.18109 0)
(0.675096 1.18241 0)
(0.675207 1.18406 0)
(0.675331 1.18603 0)
(0.675469 1.18837 0)
(0.675607 1.19107 0)
(0.675716 1.1941 0)
(0.675777 1.19728 0)
(0.675801 1.20028 0)
(0.675805 1.20253 0)
(0.676055 1.20405 0)
(1.88488 1.26622 0)
(1.88403 1.26538 0)
(1.88399 1.26495 0)
(1.88393 1.26457 0)
(1.88378 1.26432 0)
(1.88367 1.2641 0)
(1.88362 1.26389 0)
(1.88358 1.2637 0)
(1.88354 1.26353 0)
(1.8835 1.26341 0)
(1.88347 1.26333 0)
(1.88345 1.26329 0)
(1.88343 1.26329 0)
(1.8834 1.26332 0)
(1.88338 1.2634 0)
(1.88336 1.26352 0)
(1.88334 1.26367 0)
(1.88332 1.26382 0)
(1.88332 1.26396 0)
(1.88332 1.26407 0)
(1.88332 1.26415 0)
(1.88332 1.26419 0)
(1.88332 1.26421 0)
(1.88333 1.26422 0)
(1.88333 1.26422 0)
(1.88333 1.26421 0)
(1.88334 1.26419 0)
(1.88335 1.26413 0)
(1.88337 1.26403 0)
(1.8834 1.26387 0)
(1.88345 1.26367 0)
(1.88351 1.26341 0)
(1.88359 1.26312 0)
(1.88371 1.26278 0)
(1.88385 1.26241 0)
(1.88403 1.26201 0)
(1.88424 1.26159 0)
(1.88449 1.26114 0)
(1.88478 1.26068 0)
(1.88511 1.2602 0)
(1.88549 1.25972 0)
(1.8859 1.25923 0)
(1.88637 1.25875 0)
(1.88689 1.25829 0)
(1.88747 1.25784 0)
(1.88811 1.25744 0)
(1.88882 1.2571 0)
(1.88961 1.25682 0)
(1.89047 1.25661 0)
(1.8914 1.25646 0)
(1.8924 1.25634 0)
(1.89347 1.25622 0)
(1.89459 1.25609 0)
(1.89578 1.25592 0)
(1.89704 1.25573 0)
(1.89836 1.25553 0)
(1.89973 1.25533 0)
(1.90117 1.25517 0)
(1.90266 1.25505 0)
(1.9042 1.25502 0)
(1.90579 1.2551 0)
(1.90742 1.2553 0)
(1.90909 1.25567 0)
(1.91079 1.25621 0)
(1.91252 1.25695 0)
(1.91428 1.25789 0)
(1.91606 1.25904 0)
(1.91785 1.2604 0)
(1.91964 1.26196 0)
(1.92143 1.26371 0)
(1.9232 1.26562 0)
(1.92494 1.26769 0)
(1.92665 1.26987 0)
(1.92831 1.27214 0)
(1.92992 1.27446 0)
(1.93147 1.27679 0)
(1.93296 1.27912 0)
(1.93438 1.2814 0)
(1.93573 1.28361 0)
(1.93701 1.28574 0)
(1.93821 1.28777 0)
(1.93933 1.28969 0)
(1.94036 1.29149 0)
(1.94128 1.29316 0)
(1.94212 1.29471 0)
(1.94288 1.29612 0)
(1.94358 1.29741 0)
(1.94425 1.29857 0)
(1.94486 1.29964 0)
(1.9453 1.30069 0)
(1.94557 1.30175 0)
(1.94575 1.30277 0)
(1.94587 1.30376 0)
(1.94595 1.30468 0)
(1.94601 1.30555 0)
(1.94607 1.30634 0)
(1.94612 1.30706 0)
(1.94615 1.3077 0)
(1.94616 1.30818 0)
(1.94679 1.30884 0)
(4.55663 1.64332 0)
(4.5544 1.6496 0)
(4.55439 1.64961 0)
(4.55439 1.64957 0)
(4.55438 1.64944 0)
(4.55436 1.64921 0)
(4.55434 1.64891 0)
(4.55432 1.64863 0)
(4.55431 1.64839 0)
(4.5543 1.64822 0)
(4.55429 1.6481 0)
(4.5543 1.64802 0)
(4.55431 1.64794 0)
(4.55432 1.64788 0)
(4.55433 1.64782 0)
(4.55434 1.64776 0)
(4.55434 1.64771 0)
(4.55435 1.64766 0)
(4.55437 1.64763 0)
(4.55438 1.64761 0)
(4.55441 1.64759 0)
(4.55444 1.64759 0)
(4.55447 1.64758 0)
(4.55452 1.64757 0)
(4.55457 1.64758 0)
(4.55463 1.64759 0)
(4.55469 1.64762 0)
(4.55476 1.64765 0)
(4.55484 1.64769 0)
(4.55491 1.64774 0)
(4.55499 1.64779 0)
(4.55508 1.64785 0)
(4.55518 1.64792 0)
(4.55529 1.64801 0)
(4.55542 1.6481 0)
(4.55557 1.6482 0)
(4.55575 1.64832 0)
(4.55596 1.64845 0)
(4.55621 1.64859 0)
(4.55651 1.64872 0)
(4.55686 1.64887 0)
(4.55725 1.64903 0)
(4.55767 1.64922 0)
(4.55813 1.64943 0)
(4.55863 1.64965 0)
(4.55916 1.64988 0)
(4.55973 1.65011 0)
(4.56034 1.6503 0)
(4.56098 1.65045 0)
(4.56166 1.6505 0)
(4.56238 1.65045 0)
(4.56311 1.65025 0)
(4.56387 1.6499 0)
(4.56463 1.64936 0)
(4.56541 1.64862 0)
(4.5662 1.64766 0)
(4.567 1.64648 0)
(4.56782 1.64507 0)
(4.56865 1.64344 0)
(4.5695 1.64163 0)
(4.57037 1.63966 0)
(4.57126 1.63758 0)
(4.57218 1.63544 0)
(4.57314 1.63328 0)
(4.57412 1.63116 0)
(4.57515 1.62911 0)
(4.57621 1.62717 0)
(4.57731 1.62535 0)
(4.57845 1.62368 0)
(4.57961 1.62217 0)
(4.58081 1.6208 0)
(4.58202 1.61957 0)
(4.58324 1.61849 0)
(4.58446 1.61753 0)
(4.58567 1.61669 0)
(4.58687 1.61596 0)
(4.58805 1.6153 0)
(4.5892 1.6147 0)
(4.5903 1.61414 0)
(4.59137 1.61361 0)
(4.59238 1.61311 0)
(4.59333 1.61266 0)
(4.59423 1.61227 0)
(4.59506 1.61194 0)
(4.59582 1.61173 0)
(4.59651 1.61167 0)
(4.59713 1.61182 0)
(4.59765 1.61215 0)
(4.59808 1.61264 0)
(4.59843 1.61324 0)
(4.59873 1.61391 0)
(4.59895 1.61468 0)
(4.59928 1.6155 0)
(4.59934 1.61656 0)
(4.59961 1.6179 0)
(4.59974 1.6196 0)
(4.59983 1.6215 0)
(4.59991 1.62327 0)
(4.59997 1.62449 0)
(4.60203 1.62569 0)
(8.94888 2.04215 0)
(8.9837 2.03699 0)
(8.98379 2.03703 0)
(8.98379 2.03703 0)
(8.98379 2.03704 0)
(8.98378 2.03705 0)
(8.98378 2.03705 0)
(8.98377 2.03706 0)
(8.98377 2.03707 0)
(8.98377 2.03707 0)
(8.98377 2.03707 0)
(8.98377 2.03706 0)
(8.98377 2.03704 0)
(8.98377 2.037 0)
(8.98378 2.03695 0)
(8.98379 2.03687 0)
(8.9838 2.03676 0)
(8.98381 2.03663 0)
(8.98384 2.03647 0)
(8.98387 2.03627 0)
(8.98391 2.03603 0)
(8.98396 2.03575 0)
(8.98401 2.03542 0)
(8.98408 2.03502 0)
(8.98415 2.03456 0)
(8.98423 2.03403 0)
(8.98431 2.03343 0)
(8.98439 2.03275 0)
(8.98447 2.03202 0)
(8.98455 2.03122 0)
(8.98462 2.03039 0)
(8.9847 2.02952 0)
(8.98477 2.02865 0)
(8.98484 2.0278 0)
(8.98492 2.02698 0)
(8.985 2.02624 0)
(8.98509 2.0256 0)
(8.98518 2.02506 0)
(8.98529 2.02465 0)
(8.98541 2.02435 0)
(8.98556 2.02415 0)
(8.98575 2.02406 0)
(8.98597 2.02407 0)
(8.98621 2.02416 0)
(8.98649 2.0243 0)
(8.9868 2.02447 0)
(8.98716 2.02467 0)
(8.98756 2.02488 0)
(8.988 2.02514 0)
(8.98846 2.02549 0)
(8.98892 2.02595 0)
(8.98939 2.02655 0)
(8.98984 2.02732 0)
(8.99029 2.02829 0)
(8.99074 2.02946 0)
(8.99118 2.03084 0)
(8.99162 2.03245 0)
(8.99207 2.03426 0)
(8.99253 2.03626 0)
(8.99299 2.03841 0)
(8.99347 2.04068 0)
(8.99396 2.04304 0)
(8.99448 2.04544 0)
(8.99502 2.04786 0)
(8.99558 2.05025 0)
(8.99616 2.0526 0)
(8.99676 2.05488 0)
(8.99738 2.05709 0)
(8.99802 2.05921 0)
(8.99867 2.06124 0)
(8.99932 2.06318 0)
(8.99998 2.06501 0)
(9.00063 2.06674 0)
(9.00126 2.06837 0)
(9.00188 2.06989 0)
(9.00249 2.07129 0)
(9.00308 2.07256 0)
(9.00366 2.07369 0)
(9.00423 2.07468 0)
(9.00478 2.07553 0)
(9.00533 2.07622 0)
(9.00585 2.07678 0)
(9.00634 2.07719 0)
(9.0068 2.07749 0)
(9.00723 2.07768 0)
(9.00762 2.07778 0)
(9.00797 2.07781 0)
(9.00828 2.07778 0)
(9.00857 2.07771 0)
(9.00882 2.07761 0)
(9.00904 2.07749 0)
(9.00925 2.07735 0)
(9.00943 2.0772 0)
(9.00959 2.07705 0)
(9.00972 2.07689 0)
(9.00986 2.07674 0)
(9.00989 2.07652 0)
(9.01018 2.07627 0)
(9.01078 2.0756 0)
(8.99255 2.05447 0)
(14.3435 2.32329 0)
(14.4042 2.31654 0)
(14.4044 2.31652 0)
(14.4044 2.31652 0)
(14.4044 2.31652 0)
(14.4044 2.31652 0)
(14.4044 2.31653 0)
(14.4044 2.31653 0)
(14.4043 2.31654 0)
(14.4043 2.31655 0)
(14.4043 2.31656 0)
(14.4043 2.31658 0)
(14.4042 2.3166 0)
(14.4042 2.31662 0)
(14.4042 2.31665 0)
(14.4041 2.31668 0)
(14.4041 2.31671 0)
(14.4041 2.31674 0)
(14.404 2.31678 0)
(14.404 2.31681 0)
(14.404 2.31685 0)
(14.4039 2.31689 0)
(14.4039 2.31692 0)
(14.4039 2.31696 0)
(14.4039 2.31701 0)
(14.4039 2.31707 0)
(14.404 2.31714 0)
(14.404 2.31724 0)
(14.404 2.31737 0)
(14.404 2.31755 0)
(14.4041 2.31778 0)
(14.4041 2.31808 0)
(14.4042 2.31846 0)
(14.4042 2.31892 0)
(14.4043 2.31947 0)
(14.4043 2.32013 0)
(14.4044 2.32088 0)
(14.4045 2.32173 0)
(14.4045 2.32266 0)
(14.4046 2.32367 0)
(14.4047 2.32472 0)
(14.4048 2.3258 0)
(14.4049 2.32688 0)
(14.405 2.32792 0)
(14.4051 2.32888 0)
(14.4053 2.32974 0)
(14.4054 2.33047 0)
(14.4055 2.33106 0)
(14.4057 2.33151 0)
(14.4059 2.33183 0)
(14.4061 2.33204 0)
(14.4063 2.33215 0)
(14.4065 2.33217 0)
(14.4067 2.33213 0)
(14.4069 2.33202 0)
(14.4071 2.33182 0)
(14.4073 2.33151 0)
(14.4075 2.33105 0)
(14.4077 2.33042 0)
(14.4078 2.3296 0)
(14.4079 2.32857 0)
(14.4081 2.32732 0)
(14.4083 2.32587 0)
(14.4085 2.32424 0)
(14.4087 2.32248 0)
(14.4089 2.32061 0)
(14.4092 2.31872 0)
(14.4096 2.31684 0)
(14.4099 2.31504 0)
(14.4104 2.31337 0)
(14.4109 2.31187 0)
(14.4115 2.31057 0)
(14.4121 2.30946 0)
(14.4127 2.30855 0)
(14.4134 2.30785 0)
(14.4141 2.30736 0)
(14.4148 2.30711 0)
(14.4155 2.30705 0)
(14.4162 2.30712 0)
(14.4169 2.30729 0)
(14.4175 2.30752 0)
(14.4181 2.30776 0)
(14.4186 2.30801 0)
(14.4191 2.30824 0)
(14.4196 2.30843 0)
(14.42 2.30858 0)
(14.4203 2.30869 0)
(14.4206 2.30876 0)
(14.4209 2.30878 0)
(14.4211 2.30878 0)
(14.4213 2.30874 0)
(14.4215 2.30867 0)
(14.4217 2.30858 0)
(14.4218 2.30848 0)
(14.4219 2.30838 0)
(14.422 2.30828 0)
(14.422 2.30819 0)
(14.4221 2.30811 0)
(14.4218 2.3077 0)
(14.3691 2.3294 0)
(18.5174 2.41596 0)
(18.5889 2.42033 0)
(18.5889 2.42208 0)
(18.5887 2.4226 0)
(18.5886 2.42276 0)
(18.5885 2.42278 0)
(18.5884 2.42276 0)
(18.5883 2.42276 0)
(18.5882 2.42277 0)
(18.5881 2.42279 0)
(18.588 2.42282 0)
(18.5879 2.42285 0)
(18.5877 2.42289 0)
(18.5876 2.42294 0)
(18.5874 2.42301 0)
(18.5873 2.42309 0)
(18.5871 2.42319 0)
(18.587 2.4233 0)
(18.5868 2.42343 0)
(18.5866 2.42358 0)
(18.5865 2.42375 0)
(18.5863 2.42394 0)
(18.5861 2.42414 0)
(18.5859 2.42437 0)
(18.5857 2.42462 0)
(18.5855 2.4249 0)
(18.5853 2.4252 0)
(18.5851 2.42554 0)
(18.585 2.42591 0)
(18.5848 2.42632 0)
(18.5846 2.42676 0)
(18.5844 2.42725 0)
(18.5843 2.42776 0)
(18.5842 2.42831 0)
(18.584 2.42889 0)
(18.5839 2.42948 0)
(18.5838 2.43009 0)
(18.5838 2.43071 0)
(18.5837 2.43133 0)
(18.5837 2.43193 0)
(18.5836 2.43243 0)
(18.5837 2.43276 0)
(18.5837 2.4329 0)
(18.5837 2.43292 0)
(18.5837 2.43289 0)
(18.5837 2.43278 0)
(18.5837 2.4326 0)
(18.5837 2.43232 0)
(18.5838 2.43197 0)
(18.5838 2.43153 0)
(18.5838 2.43102 0)
(18.5839 2.43044 0)
(18.5839 2.42978 0)
(18.5839 2.42904 0)
(18.5838 2.42821 0)
(18.5837 2.42727 0)
(18.5837 2.42622 0)
(18.5836 2.42505 0)
(18.5835 2.42374 0)
(18.5835 2.4223 0)
(18.5835 2.42072 0)
(18.5836 2.41898 0)
(18.5836 2.41709 0)
(18.5837 2.41504 0)
(18.5839 2.41283 0)
(18.5842 2.41048 0)
(18.5847 2.40802 0)
(18.5853 2.40546 0)
(18.586 2.40283 0)
(18.5869 2.40017 0)
(18.5879 2.39749 0)
(18.5891 2.39482 0)
(18.5903 2.39218 0)
(18.5916 2.3896 0)
(18.5929 2.38712 0)
(18.5943 2.38474 0)
(18.5956 2.38248 0)
(18.597 2.38036 0)
(18.5982 2.37838 0)
(18.5995 2.37656 0)
(18.6006 2.3749 0)
(18.6016 2.37338 0)
(18.6025 2.372 0)
(18.6034 2.37076 0)
(18.6041 2.36967 0)
(18.6047 2.3687 0)
(18.6053 2.36786 0)
(18.6057 2.36715 0)
(18.6061 2.36655 0)
(18.6065 2.36606 0)
(18.6067 2.36566 0)
(18.607 2.36534 0)
(18.6071 2.3651 0)
(18.6073 2.36491 0)
(18.6074 2.36477 0)
(18.6074 2.36467 0)
(18.6075 2.3646 0)
(18.6075 2.36456 0)
(18.6073 2.36421 0)
(18.5326 2.37638 0)
(20.0811 1.86675 0)
(20.1354 1.87079 0)
(20.1354 1.8719 0)
(20.1354 1.87222 0)
(20.1353 1.87232 0)
(20.1352 1.87233 0)
(20.1351 1.87236 0)
(20.135 1.87236 0)
(20.1349 1.87238 0)
(20.1348 1.87239 0)
(20.1346 1.87241 0)
(20.1344 1.87243 0)
(20.1343 1.87246 0)
(20.1341 1.87249 0)
(20.1339 1.87252 0)
(20.1337 1.87256 0)
(20.1334 1.87261 0)
(20.1332 1.87266 0)
(20.1329 1.87272 0)
(20.1327 1.87278 0)
(20.1324 1.87285 0)
(20.1321 1.87291 0)
(20.1318 1.87298 0)
(20.1316 1.87305 0)
(20.1313 1.8731 0)
(20.131 1.87315 0)
(20.1307 1.87317 0)
(20.1304 1.87318 0)
(20.1301 1.87316 0)
(20.1298 1.87311 0)
(20.1295 1.87302 0)
(20.1293 1.87288 0)
(20.129 1.87268 0)
(20.1288 1.87242 0)
(20.1285 1.87208 0)
(20.1283 1.87166 0)
(20.1281 1.87115 0)
(20.1279 1.87054 0)
(20.1277 1.86982 0)
(20.1275 1.869 0)
(20.1273 1.86809 0)
(20.1271 1.86707 0)
(20.1269 1.86596 0)
(20.1267 1.86478 0)
(20.1265 1.86355 0)
(20.1263 1.86228 0)
(20.1261 1.86101 0)
(20.1259 1.85976 0)
(20.1257 1.85856 0)
(20.1255 1.85745 0)
(20.1253 1.85642 0)
(20.1251 1.85549 0)
(20.1249 1.85466 0)
(20.1247 1.8539 0)
(20.1245 1.85321 0)
(20.1243 1.85255 0)
(20.1242 1.85192 0)
(20.1242 1.85132 0)
(20.1242 1.85076 0)
(20.1242 1.85027 0)
(20.1243 1.84986 0)
(20.1244 1.84953 0)
(20.1245 1.84927 0)
(20.1246 1.84908 0)
(20.1249 1.84897 0)
(20.1252 1.84894 0)
(20.1256 1.84895 0)
(20.1261 1.84896 0)
(20.1267 1.84894 0)
(20.1274 1.84886 0)
(20.1282 1.84868 0)
(20.1291 1.8484 0)
(20.13 1.84801 0)
(20.131 1.84752 0)
(20.132 1.84694 0)
(20.1331 1.84627 0)
(20.1341 1.84554 0)
(20.1351 1.84476 0)
(20.1361 1.84395 0)
(20.137 1.84311 0)
(20.1378 1.84226 0)
(20.1386 1.84142 0)
(20.1393 1.84059 0)
(20.1399 1.83979 0)
(20.1405 1.83903 0)
(20.1409 1.83833 0)
(20.1414 1.83769 0)
(20.1417 1.83713 0)
(20.142 1.83664 0)
(20.1423 1.83622 0)
(20.1425 1.83588 0)
(20.1427 1.83559 0)
(20.1428 1.83536 0)
(20.1429 1.83517 0)
(20.143 1.83503 0)
(20.1431 1.83491 0)
(20.1431 1.83483 0)
(20.1432 1.8348 0)
(20.1432 1.83432 0)
(20.0896 1.82846 0)
(19.6591 0.161123 0)
(19.6688 0.172859 0)
(19.6688 0.172889 0)
(19.6688 0.172887 0)
(19.6688 0.172888 0)
(19.6688 0.172891 0)
(19.6688 0.172897 0)
(19.6687 0.172904 0)
(19.6687 0.172913 0)
(19.6686 0.172923 0)
(19.6685 0.172933 0)
(19.6684 0.172943 0)
(19.6683 0.172954 0)
(19.6682 0.172964 0)
(19.668 0.172972 0)
(19.6678 0.172976 0)
(19.6676 0.172974 0)
(19.6674 0.172964 0)
(19.6672 0.172943 0)
(19.6669 0.17291 0)
(19.6667 0.172861 0)
(19.6664 0.172795 0)
(19.6662 0.172706 0)
(19.6659 0.172591 0)
(19.6657 0.172446 0)
(19.6654 0.172266 0)
(19.6652 0.172051 0)
(19.665 0.171798 0)
(19.6648 0.171509 0)
(19.6646 0.171184 0)
(19.6644 0.170826 0)
(19.6642 0.17044 0)
(19.6641 0.17003 0)
(19.6639 0.169602 0)
(19.6637 0.169162 0)
(19.6635 0.168721 0)
(19.6633 0.168287 0)
(19.663 0.16787 0)
(19.6627 0.167479 0)
(19.6624 0.16712 0)
(19.6621 0.166801 0)
(19.6616 0.166527 0)
(19.6612 0.166301 0)
(19.6606 0.16612 0)
(19.6601 0.165976 0)
(19.6594 0.165859 0)
(19.6588 0.165761 0)
(19.6581 0.165682 0)
(19.6573 0.165629 0)
(19.6566 0.165611 0)
(19.6558 0.165636 0)
(19.655 0.165708 0)
(19.6543 0.165822 0)
(19.6536 0.165966 0)
(19.6531 0.16612 0)
(19.6526 0.166256 0)
(19.6523 0.166349 0)
(19.6522 0.166383 0)
(19.6521 0.16638 0)
(19.6522 0.166346 0)
(19.6524 0.166249 0)
(19.6528 0.166082 0)
(19.6533 0.165878 0)
(19.654 0.165657 0)
(19.6549 0.165421 0)
(19.6559 0.165167 0)
(19.657 0.164892 0)
(19.6581 0.164592 0)
(19.6593 0.164269 0)
(19.6606 0.163923 0)
(19.6619 0.16356 0)
(19.6631 0.163183 0)
(19.6644 0.162793 0)
(19.6657 0.162393 0)
(19.6669 0.161984 0)
(19.6681 0.161566 0)
(19.6692 0.161141 0)
(19.6703 0.160709 0)
(19.6713 0.160276 0)
(19.6722 0.159847 0)
(19.673 0.15943 0)
(19.6738 0.159032 0)
(19.6744 0.158661 0)
(19.675 0.158321 0)
(19.6756 0.158017 0)
(19.676 0.157751 0)
(19.6764 0.15752 0)
(19.6767 0.157321 0)
(19.677 0.15715 0)
(19.6772 0.157002 0)
(19.6774 0.156874 0)
(19.6775 0.156767 0)
(19.6775 0.156682 0)
(19.6776 0.15662 0)
(19.6776 0.15658 0)
(19.6776 0.156559 0)
(19.6776 0.15655 0)
(19.6776 0.156548 0)
(19.6776 0.15655 0)
(19.6713 0.163012 0)
(0.169925 0.369326 0)
(0.169856 0.369169 0)
(0.169848 0.369092 0)
(0.169837 0.368931 0)
(0.169826 0.368685 0)
(0.169816 0.368391 0)
(0.169811 0.368091 0)
(0.16981 0.367829 0)
(0.169814 0.367627 0)
(0.169819 0.367492 0)
(0.169825 0.367413 0)
(0.16983 0.367378 0)
(0.169832 0.367367 0)
(0.169836 0.367367 0)
(0.16984 0.367378 0)
(0.169845 0.367412 0)
(0.169855 0.367481 0)
(0.169868 0.367593 0)
(0.169885 0.367747 0)
(0.169909 0.36794 0)
(0.16994 0.368163 0)
(0.169978 0.368409 0)
(0.170024 0.368664 0)
(0.170079 0.368919 0)
(0.170145 0.369161 0)
(0.170224 0.369381 0)
(0.170319 0.369571 0)
(0.170434 0.369725 0)
(0.170569 0.36984 0)
(0.170721 0.369918 0)
(0.170883 0.369963 0)
(0.171052 0.369984 0)
(0.171226 0.36999 0)
(0.171402 0.369985 0)
(0.171579 0.369973 0)
(0.171757 0.369956 0)
(0.171933 0.369935 0)
(0.172107 0.369912 0)
(0.172277 0.369888 0)
(0.172443 0.369862 0)
(0.172603 0.369831 0)
(0.172756 0.369788 0)
(0.172897 0.369722 0)
(0.173022 0.369624 0)
(0.173126 0.36949 0)
(0.173211 0.369319 0)
(0.173281 0.369113 0)
(0.173338 0.368867 0)
(0.173384 0.368578 0)
(0.173421 0.368242 0)
(0.173449 0.367853 0)
(0.173467 0.367409 0)
(0.173477 0.366903 0)
(0.173476 0.366333 0)
(0.173464 0.365694 0)
(0.17344 0.364985 0)
(0.173403 0.364204 0)
(0.173352 0.363351 0)
(0.173287 0.362427 0)
(0.173207 0.361433 0)
(0.173112 0.360375 0)
(0.173001 0.359258 0)
(0.172873 0.358086 0)
(0.172727 0.356868 0)
(0.172561 0.35561 0)
(0.172374 0.35432 0)
(0.172164 0.353006 0)
(0.171934 0.351674 0)
(0.171687 0.350329 0)
(0.171435 0.348973 0)
(0.171197 0.347606 0)
(0.170996 0.346227 0)
(0.170843 0.344837 0)
(0.170735 0.343439 0)
(0.170658 0.342036 0)
(0.170602 0.340635 0)
(0.170559 0.339241 0)
(0.170523 0.337866 0)
(0.17049 0.336524 0)
(0.170459 0.335236 0)
(0.170429 0.334025 0)
(0.170403 0.332909 0)
(0.170384 0.33191 0)
(0.170368 0.331044 0)
(0.170353 0.330323 0)
(0.17034 0.32975 0)
(0.170329 0.329321 0)
(0.170321 0.329028 0)
(0.170316 0.328851 0)
(0.170314 0.328765 0)
(0.170313 0.328737 0)
(0.170312 0.328735 0)
(0.170311 0.328762 0)
(0.170312 0.328871 0)
(0.170314 0.329112 0)
(0.170319 0.329489 0)
(0.170326 0.329943 0)
(0.170332 0.330369 0)
(0.170337 0.330664 0)
(0.1704 0.330907 0)
(0.186868 1.08679 0)
(0.186773 1.08742 0)
(0.186775 1.08739 0)
(0.186781 1.0873 0)
(0.186792 1.08714 0)
(0.186809 1.08693 0)
(0.186833 1.08671 0)
(0.186865 1.08651 0)
(0.186898 1.08637 0)
(0.186931 1.08629 0)
(0.186961 1.08625 0)
(0.186991 1.08625 0)
(0.187018 1.08627 0)
(0.187045 1.08633 0)
(0.187076 1.08642 0)
(0.187109 1.08654 0)
(0.187146 1.08671 0)
(0.187188 1.0869 0)
(0.187233 1.08713 0)
(0.187284 1.08737 0)
(0.187342 1.08763 0)
(0.187407 1.0879 0)
(0.187483 1.08816 0)
(0.187572 1.08842 0)
(0.187679 1.08865 0)
(0.187806 1.08887 0)
(0.187955 1.08905 0)
(0.188125 1.08921 0)
(0.188312 1.08934 0)
(0.18851 1.08945 0)
(0.188714 1.08955 0)
(0.188918 1.08963 0)
(0.189118 1.08971 0)
(0.189311 1.0898 0)
(0.189492 1.08988 0)
(0.189662 1.08996 0)
(0.189818 1.09004 0)
(0.189959 1.09012 0)
(0.190085 1.09019 0)
(0.190195 1.09024 0)
(0.190291 1.09029 0)
(0.190374 1.09032 0)
(0.190445 1.09033 0)
(0.190505 1.09032 0)
(0.190553 1.09029 0)
(0.190587 1.09023 0)
(0.190609 1.09015 0)
(0.190621 1.09003 0)
(0.190624 1.08989 0)
(0.19062 1.08971 0)
(0.190609 1.08949 0)
(0.190589 1.08922 0)
(0.190558 1.08891 0)
(0.190516 1.08855 0)
(0.19046 1.08814 0)
(0.19039 1.08768 0)
(0.190302 1.08716 0)
(0.190195 1.0866 0)
(0.190064 1.08599 0)
(0.189906 1.08534 0)
(0.189715 1.08464 0)
(0.189486 1.0839 0)
(0.189215 1.08312 0)
(0.188896 1.08231 0)
(0.188522 1.08148 0)
(0.188088 1.08062 0)
(0.1876 1.07974 0)
(0.187074 1.07882 0)
(0.186535 1.07786 0)
(0.186018 1.07682 0)
(0.185552 1.0757 0)
(0.185157 1.07449 0)
(0.184834 1.0732 0)
(0.184575 1.07184 0)
(0.184371 1.07042 0)
(0.184211 1.06896 0)
(0.184085 1.06749 0)
(0.183985 1.06602 0)
(0.183901 1.0646 0)
(0.183827 1.06325 0)
(0.183756 1.062 0)
(0.183685 1.06089 0)
(0.183611 1.05995 0)
(0.183535 1.05922 0)
(0.183463 1.0587 0)
(0.183404 1.0584 0)
(0.183361 1.05826 0)
(0.183333 1.05822 0)
(0.183303 1.05823 0)
(0.183272 1.0583 0)
(0.183231 1.05849 0)
(0.183176 1.05884 0)
(0.183111 1.0594 0)
(0.183042 1.0602 0)
(0.182977 1.06119 0)
(0.182926 1.06229 0)
(0.182894 1.06335 0)
(0.182884 1.0642 0)
(0.18289 1.06474 0)
(0.183004 1.06557 0)
(0.63826 1.12866 0)
(0.638057 1.12923 0)
(0.638057 1.1292 0)
(0.638057 1.12908 0)
(0.638057 1.12886 0)
(0.638058 1.12856 0)
(0.63806 1.12827 0)
(0.638063 1.12803 0)
(0.638065 1.12788 0)
(0.638068 1.12781 0)
(0.638069 1.12779 0)
(0.638071 1.12779 0)
(0.638072 1.12781 0)
(0.638074 1.12784 0)
(0.638077 1.12791 0)
(0.63808 1.12802 0)
(0.638085 1.12817 0)
(0.638092 1.12835 0)
(0.638101 1.12856 0)
(0.638113 1.12879 0)
(0.638128 1.12901 0)
(0.638147 1.12924 0)
(0.63817 1.12945 0)
(0.638198 1.12965 0)
(0.638232 1.12983 0)
(0.638275 1.12999 0)
(0.638329 1.13012 0)
(0.638401 1.13022 0)
(0.638494 1.13028 0)
(0.638607 1.13031 0)
(0.638734 1.13031 0)
(0.638871 1.13032 0)
(0.639016 1.13035 0)
(0.639166 1.1304 0)
(0.639322 1.13046 0)
(0.639488 1.13054 0)
(0.63967 1.13062 0)
(0.639871 1.1307 0)
(0.640091 1.13078 0)
(0.640332 1.13085 0)
(0.640593 1.13092 0)
(0.640876 1.13097 0)
(0.641181 1.131 0)
(0.64151 1.13101 0)
(0.641863 1.13099 0)
(0.642243 1.13094 0)
(0.642652 1.13084 0)
(0.643091 1.1307 0)
(0.643562 1.13052 0)
(0.644068 1.13028 0)
(0.644611 1.13 0)
(0.6452 1.12968 0)
(0.645832 1.12931 0)
(0.646513 1.12889 0)
(0.647246 1.12845 0)
(0.648038 1.12799 0)
(0.648889 1.12753 0)
(0.649808 1.12711 0)
(0.650792 1.12675 0)
(0.651844 1.12648 0)
(0.652953 1.12635 0)
(0.654113 1.12637 0)
(0.655301 1.12656 0)
(0.656502 1.12691 0)
(0.657686 1.12744 0)
(0.658839 1.12813 0)
(0.659942 1.12895 0)
(0.661007 1.12986 0)
(0.662037 1.13081 0)
(0.663055 1.13173 0)
(0.664062 1.13258 0)
(0.665074 1.13332 0)
(0.666077 1.1339 0)
(0.667067 1.13432 0)
(0.668018 1.13461 0)
(0.668929 1.13479 0)
(0.66978 1.13486 0)
(0.670568 1.13481 0)
(0.67126 1.13463 0)
(0.671848 1.13439 0)
(0.672331 1.13417 0)
(0.672731 1.13403 0)
(0.673074 1.13404 0)
(0.67336 1.13426 0)
(0.673569 1.13472 0)
(0.673745 1.13544 0)
(0.673899 1.13645 0)
(0.674036 1.13773 0)
(0.674164 1.13928 0)
(0.674291 1.14105 0)
(0.674432 1.14307 0)
(0.674591 1.1453 0)
(0.674765 1.14779 0)
(0.674937 1.15047 0)
(0.675083 1.15334 0)
(0.675182 1.15621 0)
(0.675236 1.15887 0)
(0.675257 1.16102 0)
(0.67526 1.16241 0)
(0.67584 1.16397 0)
(1.88461 1.24691 0)
(1.88363 1.25591 0)
(1.88351 1.25594 0)
(1.88349 1.25588 0)
(1.88345 1.25573 0)
(1.88339 1.2555 0)
(1.88333 1.25525 0)
(1.88327 1.25501 0)
(1.88322 1.25484 0)
(1.88318 1.25474 0)
(1.88315 1.2547 0)
(1.88312 1.2547 0)
(1.8831 1.25473 0)
(1.88307 1.25479 0)
(1.88305 1.25486 0)
(1.88303 1.25495 0)
(1.88301 1.25505 0)
(1.883 1.25517 0)
(1.88299 1.25527 0)
(1.88299 1.25537 0)
(1.88299 1.25546 0)
(1.88299 1.25553 0)
(1.883 1.25557 0)
(1.883 1.2556 0)
(1.88301 1.25561 0)
(1.88302 1.25562 0)
(1.88302 1.25561 0)
(1.88303 1.25558 0)
(1.88305 1.25553 0)
(1.88308 1.25544 0)
(1.88312 1.2553 0)
(1.88319 1.25513 0)
(1.88327 1.25491 0)
(1.88338 1.25466 0)
(1.88352 1.25439 0)
(1.88369 1.25409 0)
(1.8839 1.25378 0)
(1.88416 1.25346 0)
(1.88445 1.25313 0)
(1.88478 1.2528 0)
(1.88516 1.25247 0)
(1.88559 1.25215 0)
(1.88607 1.25185 0)
(1.8866 1.25156 0)
(1.88718 1.25131 0)
(1.88783 1.25108 0)
(1.88855 1.25091 0)
(1.88933 1.25078 0)
(1.89018 1.2507 0)
(1.89111 1.25066 0)
(1.8921 1.25065 0)
(1.89316 1.25064 0)
(1.89429 1.25062 0)
(1.89549 1.25057 0)
(1.89676 1.2505 0)
(1.89809 1.2504 0)
(1.89949 1.25028 0)
(1.90094 1.25015 0)
(1.90245 1.25 0)
(1.90401 1.24986 0)
(1.9056 1.24972 0)
(1.90724 1.24959 0)
(1.90891 1.24949 0)
(1.91062 1.24941 0)
(1.91236 1.2494 0)
(1.91413 1.24947 0)
(1.91591 1.24964 0)
(1.9177 1.24991 0)
(1.91949 1.2503 0)
(1.92127 1.25079 0)
(1.92303 1.25138 0)
(1.92476 1.25204 0)
(1.92645 1.25276 0)
(1.92809 1.25352 0)
(1.92968 1.25429 0)
(1.93121 1.25504 0)
(1.93267 1.25575 0)
(1.93408 1.25641 0)
(1.93541 1.25701 0)
(1.93666 1.25754 0)
(1.93784 1.258 0)
(1.93894 1.2584 0)
(1.93996 1.25877 0)
(1.9409 1.25912 0)
(1.94175 1.25951 0)
(1.94251 1.25994 0)
(1.94321 1.2604 0)
(1.94384 1.26091 0)
(1.94439 1.26149 0)
(1.94479 1.26221 0)
(1.94507 1.26304 0)
(1.94525 1.26399 0)
(1.94537 1.26502 0)
(1.94545 1.26608 0)
(1.94551 1.2671 0)
(1.94555 1.26797 0)
(1.94558 1.26857 0)
(1.94559 1.26889 0)
(1.9456 1.26898 0)
(1.94705 1.26413 0)
(4.55797 1.55424 0)
(4.55524 1.56568 0)
(4.55521 1.56572 0)
(4.55521 1.56568 0)
(4.55521 1.56556 0)
(4.55519 1.5653 0)
(4.55518 1.56496 0)
(4.55516 1.56457 0)
(4.55515 1.56425 0)
(4.55514 1.56401 0)
(4.55514 1.56387 0)
(4.55514 1.5638 0)
(4.55515 1.56378 0)
(4.55515 1.56378 0)
(4.55515 1.56378 0)
(4.55516 1.56379 0)
(4.55516 1.56381 0)
(4.55517 1.56383 0)
(4.55518 1.56386 0)
(4.5552 1.56389 0)
(4.55522 1.56391 0)
(4.55525 1.56393 0)
(4.55529 1.56393 0)
(4.55533 1.56391 0)