/*--------------------------------*- C++ -*----------------------------------*\
| =========                 |                                                 |
| \\      /  F ield         | OpenFOAM: The Open Source CFD Toolbox           |
|  \\    /   O peration     | Version:  2406                                  |
|   \\  /    A nd           | Website:  www.openfoam.com                      |
|    \\/     M anipulation  |                                                 |
\*---------------------------------------------------------------------------*/
FoamFile
{
    version     2.0;
    format      ascii;
    arch        "LSB;label=32;scalar=64";
    class       volVectorField;
    location    "0.09";
    object      U;
}
// * * * * * * * * * * * * * * * * * * * * * * * * * * * * * * * * * * * * * //

dimensions      [0 1 -1 0 0 0 0];

internalField   nonuniform List<vector> 
13962
(
(347.059 -4.58782e-11 -3.30087e-11)
(347.059 -4.02182e-11 -3.29667e-11)
(347.059 -3.74963e-11 -3.26312e-11)
(347.059 -3.47681e-11 -3.23859e-11)
(347.059 -3.37018e-11 -3.35648e-11)
(347.059 -2.81771e-11 -3.02882e-11)
(347.059 -3.03673e-11 -2.94769e-11)
(347.059 -3.22585e-11 -2.5934e-11)
(347.059 -3.43879e-11 -2.56748e-11)
(347.059 -3.22353e-11 -2.71193e-11)
(347.059 -2.9606e-11 -2.33845e-11)
(347.059 -2.208e-11 -2.18843e-11)
(347.059 -1.68823e-11 -2.29544e-11)
(347.059 -1.54759e-11 -2.37799e-11)
(347.059 -1.50735e-11 -2.38125e-11)
(347.059 -1.45336e-11 -2.22393e-11)
(347.059 -1.4166e-11 -2.03342e-11)
(347.059 -1.19031e-11 -2.06235e-11)
(347.059 -2.95666e-12 -2.26992e-11)
(347.059 8.86036e-12 -2.26029e-11)
(347.059 1.32195e-11 -2.44405e-11)
(347.059 9.29035e-12 -2.46741e-11)
(347.059 9.13105e-13 -2.40048e-11)
(347.059 -1.26229e-11 -2.59792e-11)
(347.059 -2.40511e-11 -2.56625e-11)
(347.059 -3.94469e-11 -2.8941e-11)
(347.059 -4.12305e-11 -2.78312e-11)
(347.059 -4.29323e-11 -2.75057e-11)
(347.059 -4.33704e-11 -2.81606e-11)
(347.059 -4.09601e-11 -2.77952e-11)
(347.059 -3.47447e-11 -3.00698e-11)
(347.059 -2.58511e-11 -2.98016e-11)
(347.059 -2.55519e-11 -2.99538e-11)
(347.059 -3.06743e-11 -2.83881e-11)
(347.059 -3.10754e-11 -3.02745e-11)
(347.059 -3.22866e-11 -3.04611e-11)
(347.059 -2.87317e-11 -2.95468e-11)
(347.059 -2.47615e-11 -2.71179e-11)
(347.059 -2.17841e-11 -2.79522e-11)
(347.059 -2.03608e-11 -2.58521e-11)
(347.059 -2.14587e-11 -2.52048e-11)
(347.059 -2.2835e-11 -2.5132e-11)
(347.059 -2.28126e-11 -2.59608e-11)
(347.059 -2.50058e-11 -2.6729e-11)
(347.059 2.95795e-11 -2.93394e-11)
(347.059 -1.46139e-09 3.24121e-11)
(347.046 3.51992e-08 -1.57439e-09)
(346.702 -1.12252e-06 4.57699e-08)
(340.274 8.46885e-06 -3.77607e-07)
(321.914 1.65866e-06 -6.90346e-08)
(318.29 -1.2627e-05 5.47992e-07)
(318.262 -6.75514e-06 2.95042e-07)
(318.273 -1.55171e-06 7.51234e-08)
(318.292 2.05432e-06 -7.29054e-08)
(318.306 6.61627e-06 -2.71131e-07)
(318.309 9.12582e-06 -3.85652e-07)
(318.312 1.31083e-05 -5.66449e-07)
(318.312 1.25822e-05 -5.48856e-07)
(318.307 6.4901e-06 -2.9086e-07)
(318.298 -1.51816e-06 6.36607e-08)
(318.303 -8.43517e-06 3.65569e-07)
(318.312 -1.27878e-05 5.50205e-07)
(318.32 -1.65255e-05 7.07491e-07)
(318.329 -1.70327e-05 7.2306e-07)
(318.338 -1.56104e-05 6.55451e-07)
(318.346 -7.94426e-06 3.2151e-07)
(318.354 6.78965e-06 -3.02557e-07)
(318.349 1.51279e-05 -6.48733e-07)
(318.346 1.78081e-05 -7.60526e-07)
(318.343 1.89438e-05 -8.05203e-07)
(318.339 1.39289e-05 -5.7747e-07)
(318.336 4.343e-06 -1.57107e-07)
(318.332 -4.73986e-06 2.33591e-07)
(318.328 -1.34024e-05 6.01966e-07)
(318.326 -1.68287e-05 7.44539e-07)
(318.323 -1.71843e-05 7.61061e-07)
(318.32 -1.23589e-05 5.54167e-07)
(318.318 -2.00796e-06 1.06353e-07)
(318.318 7.10072e-06 -2.89473e-07)
(318.321 1.42437e-05 -6.05602e-07)
(318.32 1.72554e-05 -7.34257e-07)
(318.32 1.65794e-05 -7.01186e-07)
(318.318 1.1398e-05 -4.6759e-07)
(318.315 1.0795e-06 -1.21515e-08)
(318.309 -9.54172e-06 4.5844e-07)
(318.299 -1.57753e-05 7.2986e-07)
(318.293 -1.58046e-05 7.4047e-07)
(318.293 -1.42788e-05 6.77912e-07)
(318.294 -8.89896e-06 4.42952e-07)
(318.298 1.00015e-07 4.95162e-08)
(318.305 9.95639e-06 -3.80003e-07)
(318.314 1.66586e-05 -6.77194e-07)
(318.325 1.64965e-05 -7.0723e-07)
(318.33 1.28985e-05 -5.77935e-07)
(318.331 9.97085e-06 -4.55666e-07)
(318.332 3.3149e-06 -1.66146e-07)
(318.331 -4.42661e-06 1.77569e-07)
(318.329 -1.05569e-05 4.60087e-07)
(318.325 -1.18977e-05 5.20117e-07)
(318.322 -1.00905e-05 4.37165e-07)
(318.324 -8.52313e-06 3.69016e-07)
(318.325 -4.53527e-06 2.01268e-07)
(318.326 1.63821e-06 -3.92453e-08)
(318.327 5.12471e-06 -1.7735e-07)
(318.33 3.43535e-06 -1.12848e-07)
(318.331 7.29021e-07 -7.15085e-09)
(318.331 -1.12692e-06 6.21249e-08)
(318.33 -4.82328e-06 2.0756e-07)
(318.33 -7.15892e-06 3.15392e-07)
(318.328 -6.48644e-06 3.17611e-07)
(318.323 -4.34605e-06 2.46781e-07)
(318.319 -8.39092e-07 9.27862e-08)
(318.317 7.75908e-07 1.52666e-08)
(318.314 2.50869e-06 -6.88201e-08)
(318.312 3.70949e-06 -1.36375e-07)
(318.311 3.4352e-06 -1.18692e-07)
(318.314 1.80204e-06 -5.33493e-08)
(318.318 -9.39898e-07 5.09697e-08)
(318.323 -3.10308e-06 1.43709e-07)
(318.327 -4.88317e-06 2.09168e-07)
(318.329 -4.98588e-06 2.11856e-07)
(318.33 -3.96114e-06 1.73131e-07)
(318.329 -1.94875e-06 8.59812e-08)
(318.325 -8.69968e-07 4.50455e-08)
(318.322 3.52206e-06 -1.63867e-07)
(318.318 4.14568e-06 -1.9337e-07)
(318.316 4.07265e-06 -1.99387e-07)
(318.316 2.06117e-06 -1.13399e-07)
(318.317 1.20763e-06 -7.33712e-08)
(318.318 -6.26327e-08 -1.71389e-08)
(318.32 -2.621e-06 9.66393e-08)
(318.322 -4.32408e-06 1.83596e-07)
(318.322 -3.97079e-06 1.81703e-07)
(318.321 -2.68272e-06 1.35006e-07)
(318.32 -2.55775e-06 1.35261e-07)
(318.318 6.88482e-07 5.69967e-09)
(318.317 1.58502e-06 -3.26407e-08)
(318.316 2.53674e-06 -8.10153e-08)
(318.315 2.65568e-06 -1.02739e-07)
(318.316 1.95537e-06 -7.7891e-08)
(318.316 1.13063e-06 -3.90548e-08)
(318.317 2.2658e-07 -5.48361e-09)
(318.319 -4.29333e-07 1.17772e-08)
(318.322 -3.85001e-07 2.36519e-09)
(318.325 -1.24214e-06 2.67845e-08)
(318.328 -1.77154e-07 -1.64653e-08)
(318.331 6.47072e-07 -6.07379e-08)
(318.333 1.07632e-07 -5.13423e-08)
(318.333 -5.64297e-07 -3.62651e-08)
(318.33 -8.16591e-07 -3.44183e-08)
(318.328 -1.16464e-06 -1.61745e-08)
(318.326 -1.72129e-06 2.24303e-08)
(318.324 -2.19227e-06 5.57407e-08)
(318.323 -3.16538e-06 1.0516e-07)
(318.322 -2.387e-06 7.73052e-08)
(318.324 -2.79821e-07 -2.35625e-08)
(318.324 7.72339e-07 -7.50252e-08)
(318.324 3.8246e-06 -2.09307e-07)
(318.323 4.19261e-06 -2.25425e-07)
(318.321 4.91866e-06 -2.56333e-07)
(318.319 5.57122e-06 -2.6762e-07)
(318.316 5.73509e-06 -2.698e-07)
(318.314 5.08822e-06 -2.31199e-07)
(318.313 1.99221e-06 -1.00126e-07)
(318.314 8.4405e-07 -4.56352e-08)
(318.315 7.74476e-07 -3.03065e-08)
(318.317 -7.95044e-07 3.47243e-08)
(318.318 5.50063e-07 -5.87581e-08)
(318.313 -1.29572e-05 4.98493e-07)
(318.305 -2.31579e-07 -3.85729e-08)
(318.305 -4.67678e-06 2.4751e-07)
(318.317 -3.85248e-06 1.21878e-07)
(318.361 1.83161e-05 -6.10309e-07)
(318.462 1.40564e-06 -1.67268e-07)
(318.639 9.69865e-05 -4.33507e-06)
(318.888 -0.00017561 8.1394e-06)
(319.19 2.00599e-05 -2.28718e-06)
(319.523 0.000136797 -5.13447e-06)
(319.873 -0.000248391 1.13016e-05)
(320.227 0.000395805 -1.704e-05)
(320.58 -0.000817953 3.54117e-05)
(320.921 0.000927975 -4.51008e-05)
(321.245 -0.000949364 4.442e-05)
(321.541 -0.000749931 3.01773e-05)
(321.806 0.00209688 -6.96678e-05)
(322.027 0.00128396 -5.1379e-05)
(322.152 -0.000361843 -1.45011e-06)
(322.178 -0.00027221 -9.03407e-07)
(322.176 -0.000183818 -2.17469e-06)
(322.168 -0.000356767 8.1218e-06)
(322.152 -0.000643033 2.04247e-05)
(322.132 -0.000530974 1.78478e-05)
(322.109 -0.000369714 1.2104e-05)
(322.085 -0.000150397 1.58326e-06)
(322.063 3.46475e-05 -7.10347e-07)
(322.045 0.000129433 -5.62238e-06)
(322.033 0.000131842 -2.26338e-05)
(322.023 0.000148908 2.44824e-05)
(322.007 6.8373e-05 -2.97575e-05)
(321.973 2.64348e-05 -2.63817e-05)
(321.893 -2.32436e-05 5.65911e-05)
(321.713 0.000100281 -8.81989e-05)
(321.369 -0.000191075 -0.000145184)
(320.877 -0.000602073 0.00116421)
(320.394 0.00100007 -0.000670013)
(320.058 0.000136148 -0.00142577)
(319.845 -0.0010884 0.00030577)
(319.688 -0.000992462 0.00120799)
(319.55 -9.60351e-05 0.000741083)
(319.423 0.000592908 -0.000399486)
(319.308 0.000403396 -0.0009869)
(319.207 -0.000168611 -0.000578202)
(319.123 -0.000421057 0.000221242)
(319.055 -0.000221706 0.000573923)
(319.002 8.57562e-05 0.000297002)
(318.962 0.000159797 -0.000135211)
(318.931 -3.15152e-05 -0.000288366)
(318.909 -0.000256478 -6.99436e-05)
(318.892 -0.000329712 0.000184717)
(318.878 -0.000251 0.000246609)
(318.866 -0.000132334 0.000148837)
(318.854 -9.36618e-05 8.22086e-05)
(318.843 -6.48923e-05 -9.81577e-06)
(318.832 -5.28546e-05 -3.09644e-05)
(318.821 -1.3781e-06 5.15446e-06)
(318.809 8.80202e-05 2.55514e-06)
(318.797 0.000139106 -5.71686e-05)
(318.784 0.000113455 -0.000108499)
(318.77 4.05977e-05 -0.000107137)
(318.757 -4.09231e-05 -6.58715e-05)
(318.742 -0.00010212 -1.84061e-05)
(318.728 -0.000115786 -8.12673e-06)
(318.713 -0.000149633 1.38285e-05)
(318.7 -0.000160214 2.55582e-05)
(318.69 -0.000150533 4.41818e-05)
(318.683 -0.000118842 5.96725e-05)
(318.68 -6.75579e-05 6.09426e-05)
(318.678 1.14653e-06 4.39378e-05)
(318.678 4.681e-05 1.76077e-05)
(318.679 5.75371e-05 -4.31526e-06)
(318.681 3.66195e-05 -1.90562e-05)
(318.682 -2.844e-06 -3.08223e-05)
(318.681 -4.2648e-05 -3.80295e-05)
(318.68 -6.43873e-05 -3.94126e-05)
(318.679 -9.32231e-05 -3.71869e-05)
(318.677 -0.000125528 -2.35536e-05)
(318.674 -0.00012779 1.5715e-06)
(318.671 -0.000101909 2.99191e-05)
(318.666 -5.73945e-05 4.89067e-05)
(318.661 -1.78108e-05 5.32817e-05)
(318.656 1.01264e-05 4.61279e-05)
(318.651 1.615e-05 4.42361e-05)
(318.645 4.96164e-05 2.20479e-05)
(318.639 5.69331e-05 3.75499e-06)
(318.633 1.222e-05 4.5259e-06)
(318.628 -1.23769e-05 7.81681e-06)
(318.624 -2.22491e-05 1.1497e-05)
(318.621 -4.34206e-05 2.0662e-05)
(318.619 -6.21073e-05 3.09452e-05)
(318.618 -6.48334e-05 3.7013e-05)
(318.618 -5.8561e-05 3.66665e-05)
(318.618 -3.43453e-05 2.90516e-05)
(318.617 6.68255e-07 1.29409e-05)
(318.617 2.90927e-05 -3.4473e-06)
(318.617 4.53195e-05 -1.61724e-05)
(318.617 4.62754e-05 -2.55964e-05)
(318.618 3.19976e-05 -3.14476e-05)
(318.617 1.39081e-05 -3.38369e-05)
(318.616 -3.86296e-06 -3.51323e-05)
(318.614 -3.04934e-05 -3.64017e-05)
(318.612 -5.30951e-05 -2.73245e-05)
(318.608 -5.93561e-05 -1.55654e-05)
(318.603 -4.46153e-05 -7.4043e-06)
(318.596 -2.80091e-05 7.93473e-06)
(318.591 -1.86539e-05 2.16936e-05)
(318.585 3.8252e-07 1.07338e-05)
(318.58 1.66863e-05 8.72565e-06)
(318.575 -2.32232e-07 2.98045e-05)
(318.571 -7.73537e-06 1.50047e-05)
(318.567 1.34643e-05 -5.16919e-05)
(318.562 2.33492e-05 -7.91656e-05)
(318.558 2.53894e-05 -8.48555e-05)
(318.555 2.53248e-05 -8.37354e-05)
(318.551 2.48155e-05 -7.30182e-05)
(318.549 2.44422e-05 -6.70468e-05)
(318.547 1.83189e-05 -5.14702e-05)
(318.545 -4.41771e-06 -1.95845e-05)
(318.543 -3.99974e-05 2.32325e-05)
(318.541 -7.15258e-05 6.01334e-05)
(318.539 -8.52703e-05 7.92663e-05)
(318.538 -7.89924e-05 7.97404e-05)
(318.537 -5.78074e-05 6.77078e-05)
(318.535 -4.34262e-05 5.91015e-05)
(318.533 -1.82062e-05 4.33132e-05)
(318.531 2.03887e-05 1.56104e-05)
(318.529 4.56696e-05 -6.67549e-06)
(318.526 6.18956e-05 -2.45994e-05)
(318.523 6.42909e-05 -3.56431e-05)
(318.519 4.21618e-05 -3.30837e-05)
(318.514 7.14793e-06 -2.16829e-05)
(318.512 -1.7198e-05 -1.4493e-05)
(318.51 -4.63729e-05 -7.33177e-07)
(318.508 -6.51883e-05 1.4502e-05)
(318.507 -7.2144e-05 2.84945e-05)
(318.505 -6.18398e-05 3.88865e-05)
(318.504 -3.72159e-05 3.86391e-05)
(318.502 -1.52106e-05 3.35693e-05)
(318.501 3.84999e-06 2.45246e-05)
(318.502 1.56195e-05 1.63067e-05)
(318.503 1.83341e-05 7.62792e-06)
(318.505 1.22197e-05 -3.35355e-06)
(318.506 2.9528e-06 -1.36629e-05)
(318.506 -2.97622e-06 -2.1373e-05)
(318.506 -2.41347e-06 -2.58373e-05)
(318.505 3.99159e-06 -2.67123e-05)
(318.502 1.10236e-05 -2.38183e-05)
(318.498 1.33866e-05 -2.13334e-05)
(318.496 1.63858e-05 -1.56604e-05)
(318.494 1.75118e-05 -7.71728e-06)
(318.492 1.38466e-05 -1.45401e-07)
(318.489 5.92857e-06 6.28433e-06)
(318.486 -3.35543e-06 1.16932e-05)
(318.481 -1.07123e-05 1.38309e-05)
(318.477 -1.43156e-05 1.30915e-05)
(318.473 -1.23505e-05 1.04163e-05)
(318.471 -5.89243e-06 3.60021e-06)
(318.469 2.81052e-07 -4.62186e-06)
(318.469 2.76964e-06 -8.72167e-06)
(318.468 3.90764e-06 -1.07833e-05)
(318.467 2.797e-06 -1.03438e-05)
(318.466 -1.10255e-06 -6.9365e-06)
(318.464 -5.97493e-06 -1.22171e-06)
(318.464 -8.40084e-06 8.45526e-06)
(318.464 -9.87952e-06 1.93577e-05)
(318.464 -1.07051e-05 2.97304e-05)
(318.464 -2.72944e-06 4.03631e-05)
(318.464 -3.92988e-06 5.03477e-05)
(318.462 7.74797e-06 5.99e-05)
(318.46 1.18935e-05 6.27693e-05)
(318.458 1.4875e-05 6.3308e-05)
(318.456 1.52303e-05 6.22665e-05)
(318.455 9.644e-06 5.88057e-05)
(318.455 2.74109e-06 5.50781e-05)
(318.455 -9.31391e-07 5.3267e-05)
(318.456 -6.20741e-06 5.07663e-05)
(318.459 -9.60238e-06 4.9297e-05)
(318.461 -8.25155e-06 4.83695e-05)
(318.462 -4.16676e-06 4.76874e-05)
(318.461 8.63954e-07 4.66782e-05)
(318.46 6.55553e-06 4.43211e-05)
(318.459 1.13301e-05 3.9035e-05)
(318.459 1.33709e-05 3.50122e-05)
(318.46 1.39077e-05 3.08537e-05)
(318.461 1.13893e-05 2.56232e-05)
(318.462 7.18648e-06 2.0124e-05)
(318.463 7.80411e-08 1.60866e-05)
(318.464 -8.64597e-06 1.35785e-05)
(318.464 -1.86487e-05 1.29945e-05)
(318.464 -2.38186e-05 1.49926e-05)
(318.465 -2.73153e-05 1.50788e-05)
(318.466 -3.11906e-05 1.83583e-05)
(318.467 -2.98276e-05 2.23479e-05)
(318.467 -2.63258e-05 2.39479e-05)
(318.467 -2.0785e-05 2.41644e-05)
(318.465 -1.36703e-05 2.41353e-05)
(318.463 -2.95184e-06 2.35772e-05)
(318.461 7.68976e-06 2.11995e-05)
(318.458 1.55853e-05 1.66078e-05)
(318.456 1.94562e-05 1.0973e-05)
(318.454 1.88967e-05 5.76512e-06)
(318.453 1.38787e-05 1.69266e-06)
(318.451 4.29897e-06 -1.02753e-06)
(318.449 -8.25527e-06 -2.36375e-06)
(318.448 -2.0687e-05 -2.29377e-06)
(318.447 -2.94448e-05 -1.03698e-06)
(318.446 -3.3083e-05 7.99717e-07)
(318.445 -3.33014e-05 1.78632e-06)
(318.444 -3.06064e-05 4.19474e-06)
(318.443 -2.26367e-05 7.47839e-06)
(318.442 -1.11242e-05 1.07334e-05)
(318.44 3.75519e-06 1.3524e-05)
(318.438 2.00806e-05 1.55055e-05)
(318.436 3.43929e-05 1.64457e-05)
(318.435 4.41123e-05 1.63859e-05)
(318.434 4.75051e-05 1.553e-05)
(318.432 4.629e-05 1.35774e-05)
(318.431 4.23695e-05 9.91387e-06)
(318.43 3.45365e-05 6.32518e-06)
(318.427 2.31308e-05 3.69638e-06)
(318.424 1.37242e-05 2.0109e-06)
(318.42 1.94038e-06 -8.27747e-07)
(318.417 -9.40731e-06 -4.20926e-06)
(318.414 -1.58268e-05 -7.85357e-06)
(318.412 -2.17019e-05 -1.09629e-05)
(318.409 -2.24713e-05 -1.49395e-05)
(318.407 -1.84075e-05 -1.90749e-05)
(318.404 -1.39465e-05 -2.35791e-05)
(318.401 -7.58836e-06 -2.62446e-05)
(318.399 1.4688e-06 -2.72546e-05)
(318.397 6.44167e-06 -2.76094e-05)
(318.396 1.02833e-05 -2.70897e-05)
(318.396 1.43641e-05 -2.57287e-05)
(318.398 1.66515e-05 -2.38504e-05)
(318.401 1.49421e-05 -1.79165e-05)
(318.405 1.12311e-05 -1.32399e-05)
(318.408 8.08947e-06 -9.78023e-06)
(318.41 5.18089e-06 -4.47915e-06)
(318.411 6.01892e-07 3.29062e-06)
(318.411 -4.41786e-06 1.20217e-05)
(318.411 -5.63738e-06 2.0521e-05)
(318.412 -6.57312e-06 2.8499e-05)
(318.413 -7.40821e-06 3.21099e-05)
(318.414 -8.41462e-06 3.81738e-05)
(318.414 -6.89288e-06 4.35952e-05)
(318.413 -2.09406e-06 4.7021e-05)
(318.411 1.94444e-07 4.64143e-05)
(318.408 2.2154e-06 4.25086e-05)
(318.405 7.22471e-06 4.0022e-05)
(318.403 1.0343e-05 3.61152e-05)
(318.402 7.21709e-06 2.67698e-05)
(318.402 3.61016e-06 2.0616e-05)
(318.401 -1.24224e-06 1.39129e-05)
(318.4 -7.80087e-06 6.99423e-06)
(318.398 -1.62026e-05 -6.64343e-07)
(318.398 -2.47528e-05 -9.62566e-06)
(318.397 -2.91409e-05 -1.72724e-05)
(318.397 -3.2031e-05 -2.57364e-05)
(318.397 -3.42439e-05 -3.39926e-05)
(318.398 -3.24379e-05 -4.2798e-05)
(318.398 -2.28691e-05 -5.14491e-05)
(318.398 -8.55139e-06 -5.94036e-05)
(318.396 5.25088e-06 -6.65951e-05)
(318.395 1.50049e-05 -7.22071e-05)
(318.393 1.95366e-05 -7.53149e-05)
(318.391 2.55677e-05 -7.92567e-05)
(318.391 3.26976e-05 -8.299e-05)
(318.391 3.4193e-05 -8.52252e-05)
(318.391 3.5217e-05 -8.72054e-05)
(318.39 3.59566e-05 -8.99697e-05)
(318.389 3.40236e-05 -8.67756e-05)
(318.386 2.86356e-05 -8.38929e-05)
(318.384 2.37374e-05 -8.49312e-05)
(318.383 1.64148e-05 -8.14072e-05)
(318.382 6.21775e-06 -7.44217e-05)
(318.382 -2.23605e-06 -6.74725e-05)
(318.382 -6.32542e-06 -6.31015e-05)
(318.381 -1.08724e-05 -5.82503e-05)
(318.379 -1.79167e-05 -5.07823e-05)
(318.377 -2.07742e-05 -4.25184e-05)
(318.376 -1.83018e-05 -3.57337e-05)
(318.376 -1.71834e-05 -2.99789e-05)
(318.376 -1.66292e-05 -2.54175e-05)
(318.377 -1.53718e-05 -2.23094e-05)
(318.378 -9.31374e-06 -2.06987e-05)
(318.379 -5.01301e-06 -2.00089e-05)
(318.378 -4.56944e-06 -2.03543e-05)
(318.377 -4.67394e-06 -2.06924e-05)
(318.376 -3.56271e-06 -2.12986e-05)
(318.376 -1.51949e-06 -2.19956e-05)
(318.376 -7.40611e-07 -2.19434e-05)
(318.376 -1.59297e-06 -2.16159e-05)
(318.377 -8.72265e-07 -2.10923e-05)
(318.378 2.55665e-07 -1.92473e-05)
(318.377 4.92663e-07 -1.71448e-05)
(347.059 -3.78643e-11 -3.78136e-11)
(347.059 -3.30773e-11 -3.40525e-11)
(347.059 -2.79058e-11 -3.62626e-11)
(347.059 -2.87777e-11 -3.54164e-11)
(347.059 -3.1311e-11 -3.63332e-11)
(347.059 -3.14409e-11 -3.44162e-11)
(347.059 -2.80498e-11 -3.37635e-11)
(347.059 -2.56183e-11 -3.02202e-11)
(347.059 -2.44521e-11 -2.89323e-11)
(347.059 -2.36512e-11 -2.94819e-11)
(347.059 -2.68873e-11 -2.91552e-11)
(347.059 -2.49452e-11 -2.90201e-11)
(347.059 -1.84819e-11 -2.80752e-11)
(347.059 -1.47934e-11 -2.75812e-11)
(347.059 -1.17914e-11 -2.61671e-11)
(347.059 -9.91177e-12 -2.52805e-11)
(347.059 -9.57538e-12 -2.34752e-11)
(347.059 -7.16536e-12 -2.47044e-11)
(347.059 -3.75392e-13 -2.61686e-11)
(347.059 8.28839e-12 -2.61943e-11)
(347.059 1.94538e-11 -2.63586e-11)
(347.059 2.15608e-11 -2.68465e-11)
(347.059 1.35863e-11 -2.6092e-11)
(347.059 -1.04358e-11 -2.7541e-11)
(347.059 -2.51476e-11 -2.70976e-11)
(347.059 -4.37482e-11 -2.61436e-11)
(347.059 -5.18591e-11 -2.73517e-11)
(347.059 -4.78689e-11 -2.74801e-11)
(347.059 -4.43395e-11 -2.86204e-11)
(347.059 -3.93346e-11 -3.00695e-11)
(347.059 -3.46892e-11 -2.96981e-11)
(347.059 -2.54292e-11 -2.8283e-11)
(347.059 -2.11741e-11 -2.97408e-11)
(347.059 -2.65627e-11 -3.20234e-11)
(347.059 -3.48516e-11 -3.23249e-11)
(347.059 -3.22605e-11 -3.22e-11)
(347.059 -2.69071e-11 -2.92802e-11)
(347.059 -1.94728e-11 -2.72513e-11)
(347.059 -1.99755e-11 -2.61164e-11)
(347.059 -1.98408e-11 -2.57063e-11)
(347.059 -1.85326e-11 -2.66421e-11)
(347.059 -1.79704e-11 -2.76058e-11)
(347.059 -1.75282e-11 -2.88752e-11)
(347.059 -2.02146e-11 -2.9386e-11)
(347.059 3.55965e-11 -3.24716e-11)
(347.059 -1.44882e-09 3.03104e-11)
(347.046 3.27203e-08 -1.47908e-09)
(346.702 -1.005e-06 4.11235e-08)
(340.274 6.85273e-06 -3.06503e-07)
(321.914 2.93908e-06 -1.16833e-07)
(318.29 -1.02587e-05 4.46871e-07)
(318.262 -5.51172e-06 2.38112e-07)
(318.273 -1.44932e-06 6.61815e-08)
(318.292 1.29458e-06 -4.10342e-08)
(318.306 5.17202e-06 -2.08513e-07)
(318.309 7.49139e-06 -3.13838e-07)
(318.312 1.14674e-05 -4.94168e-07)
(318.312 1.16174e-05 -5.05701e-07)
(318.307 6.45618e-06 -2.87331e-07)
(318.298 -8.98658e-07 3.7977e-08)
(318.303 -7.56649e-06 3.27393e-07)
(318.312 -1.18073e-05 5.07222e-07)
(318.32 -1.55127e-05 6.6299e-07)
(318.329 -1.62441e-05 6.90452e-07)
(318.338 -1.52812e-05 6.43335e-07)
(318.346 -8.05061e-06 3.25799e-07)
(318.354 6.30999e-06 -2.83565e-07)
(318.349 1.44834e-05 -6.22078e-07)
(318.346 1.70944e-05 -7.30187e-07)
(318.343 1.82891e-05 -7.75655e-07)
(318.339 1.364e-05 -5.62166e-07)
(318.336 4.57376e-06 -1.6452e-07)
(318.332 -4.23982e-06 2.13459e-07)
(318.328 -1.25977e-05 5.69099e-07)
(318.326 -1.58922e-05 7.06076e-07)
(318.323 -1.62236e-05 7.20916e-07)
(318.32 -1.16266e-05 5.2362e-07)
(318.318 -1.74973e-06 9.58993e-08)
(318.318 7.0232e-06 -2.85104e-07)
(318.321 1.37139e-05 -5.83111e-07)
(318.32 1.63694e-05 -6.99065e-07)
(318.32 1.56954e-05 -6.65845e-07)
(318.318 1.07391e-05 -4.42568e-07)
(318.315 8.70632e-07 -9.35102e-09)
(318.309 -9.29837e-06 4.38718e-07)
(318.299 -1.5194e-05 6.95057e-07)
(318.293 -1.51222e-05 7.01513e-07)
(318.293 -1.361e-05 6.39076e-07)
(318.294 -8.44927e-06 4.13454e-07)
(318.298 1.59371e-07 3.85772e-08)
(318.305 9.66829e-06 -3.73943e-07)
(318.314 1.61787e-05 -6.61152e-07)
(318.325 1.59002e-05 -6.84978e-07)
(318.33 1.23201e-05 -5.57759e-07)
(318.331 9.50065e-06 -4.40862e-07)
(318.332 3.18602e-06 -1.64496e-07)
(318.331 -4.12006e-06 1.61643e-07)
(318.329 -9.98953e-06 4.32855e-07)
(318.325 -1.14805e-05 5.0307e-07)
(318.322 -9.92302e-06 4.35596e-07)
(318.324 -8.47625e-06 3.74485e-07)
(318.325 -4.81469e-06 2.21526e-07)
(318.326 1.03548e-06 -3.85884e-09)
(318.327 4.46533e-06 -1.4558e-07)
(318.33 2.86744e-06 -8.79648e-08)
(318.331 2.89379e-07 4.8896e-09)
(318.331 -1.46001e-06 6.92652e-08)
(318.33 -4.90535e-06 2.0174e-07)
(318.33 -6.99834e-06 2.97292e-07)
(318.328 -6.24235e-06 2.97037e-07)
(318.323 -4.16924e-06 2.34277e-07)
(318.319 -7.84869e-07 8.56355e-08)
(318.317 7.48521e-07 1.26654e-08)
(318.314 2.32883e-06 -6.46508e-08)
(318.312 3.3441e-06 -1.21437e-07)
(318.311 2.88485e-06 -9.41419e-08)
(318.314 1.23577e-06 -2.80646e-08)
(318.318 -1.3455e-06 7.26575e-08)
(318.323 -3.38088e-06 1.56616e-07)
(318.327 -4.96591e-06 2.13985e-07)
(318.329 -5.01734e-06 2.1352e-07)
(318.33 -3.94795e-06 1.71444e-07)
(318.329 -1.92024e-06 8.52739e-08)
(318.325 -8.99751e-07 4.7813e-08)
(318.322 3.37379e-06 -1.56407e-07)
(318.318 3.95448e-06 -1.84916e-07)
(318.316 3.87139e-06 -1.90272e-07)
(318.316 1.96744e-06 -1.095e-07)
(318.317 1.14874e-06 -7.11683e-08)
(318.318 -9.78681e-08 -1.51306e-08)
(318.32 -2.59029e-06 9.55527e-08)
(318.322 -4.25962e-06 1.81806e-07)
(318.322 -3.9129e-06 1.80491e-07)
(318.321 -2.64512e-06 1.35514e-07)
(318.32 -2.63271e-06 1.47941e-07)
(318.318 5.18308e-07 9.06728e-09)
(318.317 1.35347e-06 -2.62995e-08)
(318.316 2.25052e-06 -7.10384e-08)
(318.315 2.37868e-06 -9.6042e-08)
(318.316 1.72116e-06 -8.67326e-08)
(318.316 1.00009e-06 -5.73703e-08)
(318.317 2.13061e-07 -1.50906e-08)
(318.319 -3.55031e-07 1.42609e-10)
(318.322 -2.22017e-07 -4.10344e-09)
(318.325 -1.01976e-06 1.75792e-08)
(318.328 1.04733e-08 -2.22517e-08)
(318.331 7.47244e-07 -5.78316e-08)
(318.333 1.53596e-07 -4.40327e-08)
(318.333 -6.27675e-07 -2.68123e-08)
(318.33 -8.40868e-07 -1.67028e-08)
(318.328 -1.12087e-06 -1.90593e-08)
(318.326 -1.64562e-06 1.79973e-08)
(318.324 -2.05051e-06 4.89363e-08)
(318.323 -2.88952e-06 9.04727e-08)
(318.322 -2.04394e-06 5.12399e-08)
(318.324 1.19106e-07 -4.36361e-08)
(318.324 1.15186e-06 -9.04273e-08)
(318.324 3.9535e-06 -2.1732e-07)
(318.323 4.27803e-06 -2.32507e-07)
(318.321 4.93315e-06 -2.62461e-07)
(318.319 5.31213e-06 -2.66976e-07)
(318.316 5.41069e-06 -2.67224e-07)
(318.314 4.65021e-06 -2.25403e-07)
(318.313 1.69668e-06 -9.71003e-08)
(318.314 5.87122e-07 -4.19834e-08)
(318.315 5.39132e-07 -3.00824e-08)
(318.317 -1.04767e-06 3.63458e-08)
(318.318 2.48941e-07 -4.60721e-08)
(318.313 -1.16987e-05 4.30452e-07)
(318.305 -2.6938e-06 1.04877e-07)
(318.305 5.01479e-07 -6.46095e-08)
(318.317 -1.03294e-05 4.37485e-07)
(318.361 1.88058e-05 -6.53856e-07)
(318.462 4.65262e-06 -2.52996e-07)
(318.639 7.3846e-05 -3.32966e-06)
(318.888 -0.000129511 5.66663e-06)
(319.19 -2.28501e-05 -1.16981e-07)
(319.523 0.000156566 -4.81757e-06)
(319.873 -0.0002516 1.0164e-05)
(320.227 0.000386184 -1.84176e-05)
(320.58 -0.000804508 3.85557e-05)
(320.921 0.000906312 -4.50827e-05)
(321.245 -0.000898271 4.03344e-05)
(321.54 -0.000741585 3.35991e-05)
(321.805 0.00198935 -6.96983e-05)
(322.028 0.000967956 -4.20629e-05)
(322.152 -1.83106e-06 -5.58624e-06)
(322.178 -1.85865e-05 -2.11239e-06)
(322.176 6.43518e-05 -6.58814e-06)
(322.168 -0.000180506 6.74552e-07)
(322.152 -0.000650458 1.83447e-05)
(322.132 -0.00064213 2.0359e-05)
(322.109 -0.000506517 1.61556e-05)
(322.085 -0.000312045 6.03813e-06)
(322.063 -0.000110121 2.71409e-06)
(322.045 1.98046e-05 -1.83953e-06)
(322.033 7.61257e-05 -2.12289e-05)
(322.023 0.000152876 2.39482e-05)
(322.007 0.000106378 -3.17745e-05)
(321.973 9.96032e-05 -2.93974e-05)
(321.893 7.03247e-05 5.50505e-05)
(321.713 0.000202955 -9.18424e-05)
(321.37 -9.99777e-05 -0.000148734)
(320.877 -0.000538833 0.00116319)
(320.394 0.00103791 -0.000670616)
(320.058 0.000239776 -0.00142762)
(319.845 -0.00102898 0.000305429)
(319.688 -0.000973516 0.00120309)
(319.55 -9.85577e-05 0.000730467)
(319.423 0.000605993 -0.000398605)
(319.308 0.000459743 -0.000977945)
(319.207 -0.000101158 -0.000573092)
(319.123 -0.000362919 0.000219722)
(319.055 -0.000204876 0.000566608)
(319.002 7.39224e-05 0.000295463)
(318.962 0.000172061 -0.00013353)
(318.931 -5.51537e-07 -0.000284936)
(318.909 -0.000224176 -6.9618e-05)
(318.892 -0.000299601 0.00018347)
(318.878 -0.000233984 0.000244434)
(318.866 -0.000124118 0.000148194)
(318.854 -8.27212e-05 8.19038e-05)
(318.843 -4.84346e-05 -9.66694e-06)
(318.832 -3.36126e-05 -2.98846e-05)
(318.821 1.47791e-05 6.07909e-06)
(318.809 0.000100512 2.91917e-06)
(318.797 0.000148157 -5.57872e-05)
(318.784 0.000121391 -0.000105505)
(318.77 4.76019e-05 -0.000103132)
(318.757 -3.47589e-05 -6.24535e-05)
(318.742 -9.49724e-05 -1.69743e-05)
(318.728 -0.000109065 -7.02035e-06)
(318.713 -0.000142538 1.44903e-05)
(318.7 -0.000153212 2.58133e-05)
(318.69 -0.00014291 4.41369e-05)
(318.683 -0.000109987 5.94034e-05)
(318.68 -5.75144e-05 6.04226e-05)
(318.678 1.14848e-05 4.34194e-05)
(318.678 5.66713e-05 1.74031e-05)
(318.679 6.71687e-05 -4.18283e-06)
(318.681 4.42116e-05 -1.87581e-05)
(318.682 1.50709e-06 -3.0266e-05)
(318.681 -3.83218e-05 -3.69655e-05)
(318.68 -5.93872e-05 -3.78248e-05)
(318.679 -8.76643e-05 -3.41878e-05)
(318.677 -0.000119052 -1.90234e-05)
(318.674 -0.000120169 5.63777e-06)
(318.671 -9.26701e-05 3.17694e-05)
(318.666 -5.16434e-05 4.87434e-05)
(318.661 -1.60679e-05 5.20642e-05)
(318.656 8.74681e-06 4.49022e-05)
(318.651 1.51026e-05 4.29965e-05)
(318.645 4.99824e-05 2.08681e-05)
(318.639 5.96357e-05 3.11152e-06)
(318.633 1.56703e-05 4.54573e-06)
(318.628 -9.08372e-06 7.91802e-06)
(318.624 -1.82884e-05 1.16814e-05)
(318.621 -3.93466e-05 2.14654e-05)
(318.619 -6.12665e-05 3.21083e-05)
(318.618 -6.85941e-05 3.79271e-05)
(318.618 -6.29226e-05 3.74139e-05)
(318.618 -3.83483e-05 2.96393e-05)
(318.617 -2.75517e-06 1.34089e-05)
(318.617 2.58119e-05 -2.85779e-06)
(318.617 4.34746e-05 -1.51525e-05)
(318.617 4.71969e-05 -2.44758e-05)
(318.618 3.46434e-05 -3.04232e-05)
(318.617 1.74164e-05 -3.21839e-05)
(318.616 3.08056e-07 -3.17747e-05)
(318.614 -2.5842e-05 -2.99039e-05)
(318.612 -4.74804e-05 -1.93388e-05)
(318.608 -5.28486e-05 -8.74269e-06)
(318.603 -3.6884e-05 -3.16872e-06)
(318.596 -2.28468e-05 9.34077e-06)
(318.591 -1.87088e-05 2.09671e-05)
(318.585 -5.79723e-07 1.01067e-05)
(318.58 1.67786e-05 7.90316e-06)
(318.575 1.15827e-06 2.76156e-05)
(318.571 -7.96251e-06 1.24429e-05)
(318.567 1.15592e-05 -5.13817e-05)
(318.562 2.20795e-05 -7.76656e-05)
(318.558 2.50818e-05 -8.28711e-05)
(318.555 2.67193e-05 -8.10799e-05)
(318.551 2.75933e-05 -7.03466e-05)
(318.549 2.7251e-05 -6.44199e-05)
(318.547 2.16093e-05 -4.91203e-05)
(318.545 -3.24442e-07 -1.81683e-05)
(318.543 -3.54124e-05 2.36193e-05)
(318.541 -6.67562e-05 5.90276e-05)
(318.539 -8.16314e-05 7.62137e-05)
(318.538 -7.81508e-05 7.4726e-05)
(318.537 -6.00281e-05 6.04297e-05)
(318.535 -4.67743e-05 5.03876e-05)
(318.533 -2.20756e-05 3.31613e-05)
(318.531 1.62512e-05 6.45179e-06)
(318.529 4.46961e-05 -1.27157e-05)
(318.526 6.07249e-05 -2.70827e-05)
(318.523 6.57632e-05 -3.6121e-05)
(318.519 4.42448e-05 -3.24362e-05)
(318.514 1.05659e-05 -2.07e-05)
(318.512 -1.40406e-05 -1.35856e-05)
(318.51 -4.4231e-05 7.45989e-08)
(318.508 -6.41308e-05 1.5324e-05)
(318.507 -7.17958e-05 2.92685e-05)
(318.505 -6.19171e-05 3.95643e-05)
(318.504 -3.81209e-05 3.90403e-05)
(318.502 -1.70525e-05 3.36172e-05)
(318.501 1.82826e-06 2.46219e-05)
(318.502 1.40044e-05 1.61901e-05)
(318.503 1.6933e-05 7.32865e-06)
(318.505 1.18826e-05 -3.62367e-06)
(318.506 3.58406e-06 -1.38143e-05)
(318.506 -2.36321e-06 -2.12769e-05)
(318.506 -1.75712e-06 -2.52776e-05)
(318.505 4.84456e-06 -2.53951e-05)
(318.502 1.21099e-05 -2.14297e-05)
(318.498 1.46031e-05 -1.82474e-05)
(318.496 1.79257e-05 -1.17192e-05)
(318.494 1.95882e-05 -3.99651e-06)
(318.492 1.60327e-05 2.8036e-06)
(318.489 8.22172e-06 8.83835e-06)
(318.486 -1.89521e-06 1.44135e-05)
(318.481 -1.10311e-05 1.63951e-05)
(318.477 -1.38335e-05 1.43858e-05)
(318.473 -1.08202e-05 1.06858e-05)
(318.471 -5.38318e-06 3.34508e-06)
(318.469 -3.70184e-07 -4.93358e-06)
(318.469 2.32271e-06 -9.05989e-06)
(318.468 3.87611e-06 -1.11467e-05)
(318.467 3.34775e-06 -1.07012e-05)
(318.466 -1.00435e-07 -7.40349e-06)
(318.464 -4.94409e-06 -1.8032e-06)
(318.464 -7.45919e-06 7.77506e-06)
(318.464 -9.04599e-06 1.83617e-05)
(318.464 -1.01904e-05 2.81363e-05)
(318.464 -2.76992e-06 3.88099e-05)
(318.464 -2.64467e-06 4.7565e-05)
(318.462 8.42181e-06 5.8223e-05)
(318.46 1.22982e-05 6.15269e-05)
(318.458 1.5342e-05 6.25562e-05)
(318.456 1.57807e-05 6.17744e-05)
(318.455 9.95882e-06 5.84393e-05)
(318.455 2.73808e-06 5.49237e-05)
(318.455 -7.34414e-07 5.31929e-05)
(318.456 -5.6289e-06 5.09294e-05)
(318.459 -8.70738e-06 5.00055e-05)
(318.461 -8.65335e-06 4.89917e-05)
(318.462 -5.28514e-06 4.82309e-05)
(318.461 -9.48565e-08 4.71358e-05)
(318.46 6.96779e-06 4.41274e-05)
(318.459 1.16935e-05 3.87103e-05)
(318.459 1.38538e-05 3.47366e-05)
(318.46 1.4979e-05 3.05618e-05)
(318.461 1.29208e-05 2.52675e-05)
(318.462 8.29422e-06 1.94405e-05)
(318.463 1.18946e-06 1.60482e-05)
(318.464 -8.36768e-06 1.4664e-05)
(318.464 -1.78531e-05 1.48754e-05)
(318.464 -2.21088e-05 1.71123e-05)
(318.465 -2.51418e-05 1.78162e-05)
(318.466 -2.96737e-05 1.98783e-05)
(318.467 -2.93039e-05 2.24811e-05)
(318.467 -2.69681e-05 2.2974e-05)
(318.467 -2.127e-05 2.24178e-05)
(318.465 -1.34729e-05 2.21342e-05)
(318.463 -2.44052e-06 2.15114e-05)
(318.461 8.20436e-06 1.93599e-05)
(318.458 1.68294e-05 1.51466e-05)
(318.456 2.14824e-05 9.8015e-06)
(318.454 2.09521e-05 4.79803e-06)
(318.453 1.53589e-05 8.9204e-07)
(318.451 5.21065e-06 -1.54508e-06)