/*--------------------------------*- C++ -*----------------------------------*\
| =========                 |                                                 |
| \\      /  F ield         | OpenFOAM: The Open Source CFD Toolbox           |
|  \\    /   O peration     | Version:  2406                                  |
|   \\  /    A nd           | Website:  www.openfoam.com                      |
|    \\/     M anipulation  |                                                 |
\*---------------------------------------------------------------------------*/
FoamFile
{
    version     2.0;
    format      ascii;
    arch        "LSB;label=32;scalar=64";
    class       volVectorField;
    location    "0.055";
    object      U;
}
// * * * * * * * * * * * * * * * * * * * * * * * * * * * * * * * * * * * * * //

dimensions      [0 1 -1 0 0 0 0];

internalField   nonuniform List<vector> 
13988
(
(4.54322e-12 3.79649e-12 5.84049e-12)
(3.02442e-13 2.59321e-12 8.32792e-12)
(-3.03911e-13 1.86132e-12 8.67734e-12)
(-2.2198e-13 4.61661e-12 1.07552e-11)
(-2.37384e-12 3.64766e-12 6.61611e-12)
(-5.97186e-12 4.92036e-12 4.57819e-12)
(-4.5937e-12 2.75547e-12 1.8901e-12)
(1.70984e-12 3.13103e-12 1.13267e-12)
(-4.65054e-13 1.41804e-12 4.76522e-13)
(-3.11018e-12 3.18834e-12 -3.94898e-13)
(-4.06787e-12 4.4896e-12 -3.36001e-13)
(-3.68032e-12 3.68192e-12 -2.10669e-12)
(1.11203e-12 5.31323e-12 -5.45306e-13)
(4.17024e-12 3.76063e-12 4.62676e-13)
(2.56272e-12 5.79493e-12 7.16396e-13)
(4.28076e-12 5.66698e-12 -6.00426e-12)
(5.8401e-12 4.62834e-12 -1.44822e-11)
(2.00327e-12 5.3515e-12 -1.70453e-11)
(1.02373e-13 6.31358e-12 -2.04503e-11)
(5.8315e-13 6.96374e-12 -2.32475e-11)
(4.02286e-12 7.55357e-12 -2.59425e-11)
(5.21951e-12 5.60245e-12 -2.65709e-11)
(6.01136e-12 6.6553e-12 -2.0991e-11)
(7.12753e-12 5.09014e-12 -1.54915e-11)
(4.59741e-12 3.27549e-12 -1.07931e-11)
(1.49443e-12 5.10164e-12 -9.62666e-12)
(-1.69596e-12 5.73567e-12 -8.26185e-12)
(-2.04982e-12 6.34916e-12 -5.05601e-12)
(3.13495e-12 9.81906e-12 -2.47946e-12)
(7.68108e-12 1.01107e-11 1.60864e-12)
(3.74142e-12 9.39567e-12 9.58033e-12)
(7.72915e-13 9.39541e-12 2.29167e-11)
(-2.90467e-12 1.0332e-11 2.55196e-11)
(1.94041e-12 1.06068e-11 3.28163e-11)
(4.99117e-12 9.05642e-12 4.03768e-11)
(3.46559e-12 7.91486e-12 4.42367e-11)
(5.58569e-12 8.20047e-12 4.56872e-11)
(4.79167e-12 8.46952e-12 4.70009e-11)
(3.4189e-12 9.96058e-12 3.89922e-11)
(-1.05414e-12 7.18134e-12 3.17135e-11)
(7.91832e-13 1.08301e-11 1.70508e-11)
(6.43788e-12 5.32058e-12 1.03967e-11)
(2.11659e-12 3.89766e-12 5.45713e-12)
(-4.69377e-13 5.41635e-12 -9.87965e-13)
(-2.44254e-12 7.51957e-12 -2.69252e-12)
(-2.04131e-12 3.11621e-12 -7.97076e-13)
(-9.41358e-13 5.39634e-12 1.86205e-12)
(-3.48799e-12 4.71353e-12 5.85499e-12)
(-2.95594e-12 7.03666e-12 5.31781e-12)
(5.99894e-13 6.46553e-12 5.60583e-12)
(1.05932e-12 4.00272e-12 1.04474e-11)
(-3.12471e-12 4.58887e-12 1.93746e-11)
(-6.55142e-12 3.69229e-12 1.92906e-11)
(-3.22953e-12 3.31941e-12 1.58094e-11)
(2.81972e-14 4.22355e-12 1.29806e-11)
(-2.98768e-12 3.86314e-12 7.04432e-12)
(-1.093e-12 3.50785e-12 -3.27745e-12)
(1.56233e-12 5.45204e-12 -1.01508e-11)
(1.93856e-12 4.95907e-12 -1.39657e-11)
(4.62666e-12 5.38356e-12 -9.89211e-12)
(1.94795e-12 5.17506e-12 -9.13786e-12)
(6.60844e-13 6.36889e-12 -6.76736e-12)
(3.60825e-12 6.80902e-12 -4.99832e-12)
(3.55384e-12 5.88642e-12 -3.95801e-12)
(1.6312e-12 7.32593e-12 -4.31089e-12)
(1.97054e-12 5.8393e-12 -3.26936e-12)
(7.07759e-13 6.60675e-12 -3.05415e-12)
(-4.78468e-13 6.9188e-12 -6.03162e-12)
(2.25406e-12 8.50124e-12 -6.28213e-12)
(2.97113e-12 8.83188e-12 -3.23516e-12)
(3.03808e-12 7.72974e-12 -3.74535e-12)
(2.09985e-12 7.24904e-12 -4.42622e-12)
(2.93994e-12 8.27404e-12 -6.0552e-12)
(2.1293e-12 9.00077e-12 -7.1481e-12)
(4.09058e-13 1.00524e-11 -6.59808e-12)
(-1.81437e-12 7.93776e-12 -6.84395e-12)
(-3.78877e-12 8.26294e-12 -8.71363e-12)
(-1.29081e-12 7.84456e-12 -8.98314e-12)
(-1.80101e-12 8.08657e-12 -4.34054e-12)
(-2.48588e-12 1.00402e-11 -5.88202e-12)
(-1.59199e-13 1.07793e-11 -6.67554e-12)
(-4.80715e-15 1.1169e-11 -1.13102e-11)
(1.73327e-12 7.03459e-12 -1.566e-11)
(1.20642e-12 6.44043e-12 -2.28776e-11)
(-7.12156e-14 5.01216e-12 -2.9773e-11)
(-5.16937e-13 7.0391e-12 -1.90332e-11)
(-4.96858e-12 7.97273e-12 -8.86911e-12)
(-6.6441e-12 8.37368e-12 -9.75275e-12)
(-5.2064e-12 5.76745e-12 -1.34114e-11)
(-2.80098e-12 8.00483e-12 -1.79296e-11)
(-1.10756e-12 7.81852e-12 -2.05964e-11)
(-6.03634e-13 8.9505e-12 -2.05814e-11)
(-8.50929e-13 1.12925e-11 -1.54914e-11)
(3.52905e-12 1.03888e-11 -7.19959e-12)
(9.81045e-13 1.12936e-11 1.10764e-13)
(-1.42387e-13 1.07867e-11 -1.9611e-12)
(7.18749e-13 9.0942e-12 -2.58555e-14)
(-8.08072e-13 9.57948e-12 -9.55726e-13)
(-6.55065e-13 8.43784e-12 -1.40743e-12)
(-1.6756e-13 8.4573e-12 -1.28644e-12)
(-2.08162e-12 7.84015e-12 4.4849e-13)
(3.1674e-12 6.19197e-12 -5.23403e-12)
(2.13995e-12 5.24768e-12 2.68863e-13)
(-2.08125e-12 4.33494e-12 3.91051e-12)
(-2.10204e-12 6.94332e-12 4.27305e-12)
(-3.40374e-12 8.95444e-12 2.00344e-12)
(-4.96577e-12 7.03823e-12 5.78382e-13)
(-1.96212e-12 4.56711e-12 -1.33524e-13)
(1.66463e-12 2.46168e-12 -8.1832e-13)
(-1.56445e-12 3.8575e-12 -1.9527e-12)
(-4.75987e-12 3.29212e-12 -2.30053e-12)
(-3.33317e-12 4.1058e-12 -2.4873e-12)
(-2.11977e-12 3.11491e-12 -3.5383e-12)
(2.15824e-12 5.47683e-12 -1.95242e-12)
(2.63591e-12 5.45047e-12 -9.28376e-13)
(1.69159e-12 5.59919e-12 -1.18299e-12)
(4.57074e-12 4.33341e-12 -7.10319e-12)
(5.07775e-12 5.54822e-12 -1.78489e-11)
(1.42155e-12 4.76356e-12 -1.94799e-11)
(6.61373e-13 7.39248e-12 -2.24987e-11)
(1.16757e-12 5.4464e-12 -2.41357e-11)
(3.85267e-12 4.26394e-12 -2.73092e-11)
(5.42552e-12 5.08273e-12 -2.44335e-11)
(3.86447e-12 9.23087e-12 -2.03617e-11)
(5.71466e-12 9.27382e-12 -1.64562e-11)
(3.99397e-12 9.91973e-12 -1.30639e-11)
(1.42373e-12 1.10154e-11 -1.08532e-11)
(6.44854e-13 9.66292e-12 -6.84809e-12)
(-1.07746e-12 6.90268e-12 -4.09499e-12)
(2.05114e-12 9.45915e-12 -9.23125e-13)
(6.17183e-12 9.19365e-12 1.51102e-12)
(3.94753e-12 8.85663e-12 7.30832e-12)
(1.1452e-12 8.453e-12 1.90901e-11)
(-2.12775e-12 1.04845e-11 2.5198e-11)
(2.78934e-12 6.74457e-12 3.7664e-11)
(5.21258e-12 1.0327e-11 4.78946e-11)
(4.90038e-12 8.86009e-12 4.87896e-11)
(5.17694e-12 9.27036e-12 4.94445e-11)
(3.64297e-12 1.23734e-11 4.52408e-11)
(3.26384e-12 1.43932e-11 3.56159e-11)
(-1.16794e-13 1.02777e-11 2.50986e-11)
(2.87119e-12 9.84145e-12 1.17404e-11)
(6.15201e-12 6.12632e-12 6.98752e-12)
(1.23719e-12 7.98055e-12 5.23179e-12)
(-1.59867e-12 7.05527e-12 -8.0215e-13)
(-7.71281e-13 6.97753e-12 -5.98127e-12)
(-1.00058e-12 4.2546e-12 -3.27766e-12)
(-1.02864e-12 5.51907e-12 -3.6592e-13)
(-2.97973e-12 4.47482e-12 3.37259e-12)
(-3.29544e-12 5.72578e-12 3.32159e-12)
(3.29939e-13 3.84143e-12 3.77516e-12)
(-1.32137e-13 8.17637e-12 6.65254e-12)
(-2.98254e-12 6.93478e-12 1.62891e-11)
(-3.93988e-12 7.16357e-12 2.40814e-11)
(-3.23888e-12 4.37116e-12 1.7851e-11)
(3.60292e-13 7.16203e-12 1.3572e-11)
(-1.55735e-12 3.19924e-12 4.58816e-12)
(-2.70816e-12 6.57697e-12 -4.45629e-12)
(-4.52988e-13 8.42652e-12 -9.9231e-12)
(1.06589e-12 5.89885e-12 -1.08594e-11)
(2.84733e-12 6.67766e-12 -1.05189e-11)
(2.39418e-12 9.62777e-12 -1.06793e-11)
(6.33913e-13 7.26594e-12 -7.06954e-12)
(3.06266e-12 1.06906e-11 -3.21646e-12)
(1.7384e-12 8.86302e-12 -3.75279e-12)
(1.91671e-12 9.23093e-12 -3.46141e-12)
(3.47071e-12 7.83599e-12 -6.85463e-13)
(7.99703e-13 8.95776e-12 3.06912e-13)
(6.94308e-14 6.49122e-12 -5.58758e-12)
(1.48665e-12 7.94615e-12 -7.34597e-12)
(2.74263e-12 9.54597e-12 -7.66306e-12)
(3.39923e-12 7.91375e-12 -8.03515e-12)
(1.76755e-12 9.03403e-12 -4.25218e-12)
(1.43077e-12 8.08146e-12 -5.51225e-12)
(1.53543e-12 1.24807e-11 -6.49875e-12)
(1.56397e-12 9.59786e-12 -6.10049e-12)
(-7.42198e-13 1.17859e-11 -7.16973e-12)
(-4.10604e-12 9.01554e-12 -1.04055e-11)
(-2.19465e-12 7.86136e-12 -1.342e-11)
(-3.13484e-12 8.94357e-12 -1.03191e-11)
(-1.67192e-12 1.18908e-11 -1.07275e-11)
(5.79427e-14 1.01215e-11 -1.05965e-11)
(1.70271e-12 1.11131e-11 -1.39934e-11)
(3.05369e-12 7.84391e-12 -1.66092e-11)
(-1.84131e-13 9.80591e-12 -2.14978e-11)
(-8.7151e-13 6.67169e-12 -2.55284e-11)
(-2.12552e-12 1.03146e-11 -1.82789e-11)
(-5.22831e-12 1.06205e-11 -9.27199e-12)
(-3.96478e-12 1.0766e-11 -5.6067e-12)
(-3.62405e-12 7.5721e-12 -1.05187e-11)
(-3.75524e-12 1.01395e-11 -1.61536e-11)
(-3.37745e-12 8.31587e-12 -1.99852e-11)
(-3.50745e-12 1.06012e-11 -2.00179e-11)
(4.41919e-13 1.26806e-11 -1.73699e-11)
(1.90578e-12 1.42711e-11 -1.02142e-11)
(1.84495e-13 1.38155e-11 -5.13315e-12)
(1.43079e-12 1.46788e-11 -5.75142e-12)
(1.7515e-12 1.2059e-11 -2.73864e-12)
(-2.47315e-13 1.4538e-11 -2.19425e-12)
(-3.44533e-13 1.11015e-11 -2.52081e-12)
(-2.64435e-13 1.19468e-11 -3.12326e-12)
(1.53292e-12 5.72751e-12 -1.06425e-11)
(2.53801e-12 7.61492e-12 -4.87733e-12)
(-1.55106e-12 7.56475e-12 -9.48748e-14)
(-4.08941e-12 6.60039e-12 1.41688e-12)
(-3.11288e-12 7.1624e-12 2.88201e-13)
(-3.58911e-12 4.41996e-12 -1.02019e-13)
(-1.41145e-12 4.2002e-12 -1.15679e-12)
(1.94516e-12 4.81936e-12 -7.23528e-13)
(-3.19555e-13 5.82266e-12 -2.43313e-12)
(-2.67967e-12 3.47747e-12 -3.72592e-12)
(-3.22403e-12 3.12634e-12 -3.21392e-12)
(-3.9532e-12 2.52952e-12 -3.32022e-12)
(-7.27461e-14 5.32991e-12 -2.20279e-12)
(3.91218e-12 8.13526e-12 -1.88446e-12)
(2.89835e-12 8.03355e-12 -2.47232e-12)
(3.56517e-12 6.2999e-12 -7.24613e-12)
(4.39023e-12 8.40121e-12 -1.37501e-11)
(6.20353e-13 7.45684e-12 -1.72341e-11)
(6.59995e-13 7.15013e-12 -2.1429e-11)
(2.98463e-12 6.43717e-12 -2.06562e-11)
(3.44139e-12 6.90616e-12 -2.11326e-11)
(1.73557e-12 8.07607e-12 -2.01782e-11)
(3.399e-12 9.75543e-12 -1.68543e-11)
(5.73701e-12 1.09162e-11 -1.64397e-11)
(3.96172e-12 1.24976e-11 -1.36411e-11)
(1.71065e-12 1.46332e-11 -1.12835e-11)
(9.32745e-13 1.23164e-11 -7.56785e-12)
(-7.86099e-13 8.79831e-12 -2.97438e-12)
(2.75665e-12 9.59108e-12 -3.84347e-13)
(7.50085e-12 9.19629e-12 2.51216e-12)
(4.92108e-12 8.67498e-12 8.61575e-12)
(-1.87141e-13 6.96588e-12 1.8574e-11)
(-2.26032e-12 6.24396e-12 2.69707e-11)
(1.8207e-12 6.39187e-12 4.08032e-11)
(4.72924e-12 9.28676e-12 4.99189e-11)
(4.74796e-12 1.09355e-11 5.02688e-11)
(3.42216e-12 8.91851e-12 4.71639e-11)
(2.20084e-12 8.61962e-12 3.71713e-11)
(3.26517e-12 8.98163e-12 2.67746e-11)
(1.61264e-12 1.37906e-11 1.77297e-11)
(4.33806e-12 8.19286e-12 1.12613e-11)
(5.46639e-12 1.01673e-11 7.17264e-12)
(9.12771e-13 1.10263e-11 4.95198e-12)
(-9.41685e-14 7.26607e-12 -1.13979e-13)
(1.38468e-13 7.92636e-12 -4.46297e-12)
(1.4904e-13 6.65952e-12 -3.45276e-12)
(-3.69091e-13 6.42072e-12 1.58736e-13)
(-3.51405e-12 5.7583e-12 1.92755e-12)
(-2.3429e-12 4.1652e-12 3.73339e-13)
(-7.28091e-14 5.16059e-12 -1.45063e-12)
(-1.03348e-12 6.53165e-12 1.66677e-12)
(-3.47559e-12 6.03605e-12 1.2119e-11)
(-4.32598e-12 8.82426e-12 2.15008e-11)
(-3.46362e-12 5.51987e-12 1.6025e-11)
(8.26525e-13 5.11239e-12 8.71521e-12)
(-1.7929e-12 6.1044e-12 -2.11399e-13)
(-4.6273e-12 8.52646e-12 -7.24756e-12)
(4.026e-13 1.02427e-11 -1.06546e-11)
(2.03265e-12 9.29046e-12 -1.00574e-11)
(1.13122e-12 9.94396e-12 -9.77691e-12)
(1.78773e-12 1.16407e-11 -9.71533e-12)
(8.302e-15 9.98858e-12 -8.43896e-12)
(2.42551e-12 1.02323e-11 -5.7243e-12)
(4.0794e-12 1.10709e-11 -5.27103e-12)
(1.75428e-12 1.08077e-11 -5.34528e-12)
(2.25322e-12 1.2407e-11 -4.33782e-12)
(1.54442e-12 1.25643e-11 -4.41694e-12)
(6.0331e-13 1.13804e-11 -6.46105e-12)
(8.90712e-13 1.24142e-11 -6.80382e-12)
(2.89158e-12 1.10076e-11 -6.92427e-12)
(3.48001e-12 1.21244e-11 -9.67826e-12)
(2.19095e-12 1.13575e-11 -7.57687e-12)
(7.08212e-14 1.0024e-11 -5.42229e-12)
(1.0974e-12 1.04141e-11 -5.20231e-12)
(1.61707e-12 1.06286e-11 -3.39718e-12)
(-1.12197e-12 1.34418e-11 -6.09459e-12)
(-2.19305e-12 1.19773e-11 -1.08623e-11)
(-1.39479e-12 9.37446e-12 -1.3731e-11)
(-3.95826e-12 9.70312e-12 -1.511e-11)
(-2.56073e-12 8.2608e-12 -1.42182e-11)
(3.24623e-13 1.01213e-11 -1.49105e-11)
(1.51647e-12 7.81915e-12 -1.51411e-11)
(1.72688e-12 9.55495e-12 -1.68206e-11)
(1.01168e-12 8.87253e-12 -1.95178e-11)
(1.195e-13 7.99402e-12 -1.54338e-11)
(-2.69498e-12 1.02377e-11 -8.87103e-12)
(-5.18669e-12 9.40537e-12 -7.47629e-12)
(-4.29703e-12 8.6916e-12 -6.23182e-12)
(-4.27266e-12 1.06936e-11 -9.95404e-12)
(-3.44973e-12 9.8286e-12 -1.51585e-11)
(-2.10274e-12 1.10109e-11 -1.8289e-11)
(-4.28376e-12 1.27824e-11 -1.93331e-11)
(-1.38706e-12 1.43568e-11 -1.84658e-11)
(2.64779e-12 1.45674e-11 -1.38238e-11)
(2.93132e-13 1.362e-11 -1.08556e-11)
(1.2047e-12 1.14005e-11 -7.41797e-12)
(3.24064e-14 1.32937e-11 -4.58737e-12)
(-3.71895e-13 1.41451e-11 -2.45909e-12)
(1.22171e-12 1.29601e-11 -1.89886e-12)
(1.64297e-13 1.26313e-11 -3.05557e-12)
(1.30433e-12 9.31789e-12 -4.75094e-12)
(-1.06718e-12 9.64797e-12 3.9639e-13)
(-2.56218e-12 7.86742e-12 -1.40225e-13)
(-1.95449e-12 6.72223e-12 -1.34618e-12)
(-2.67487e-12 7.93299e-12 -1.36041e-12)
(-2.00729e-12 6.02902e-12 -1.39777e-12)
(5.62777e-13 8.32236e-12 1.63828e-12)
(3.82321e-13 8.16753e-12 -2.02236e-12)
(-2.25204e-12 6.49594e-12 -3.09641e-12)
(-2.78033e-12 5.13323e-12 -3.1253e-12)
(-3.69492e-12 5.3644e-12 -3.00097e-12)
(-1.45338e-12 5.91703e-12 -2.61887e-12)
(1.60802e-12 7.67623e-12 -2.08688e-12)
(2.23597e-12 9.39707e-12 -2.4799e-12)
(3.39238e-12 9.34982e-12 -3.41999e-12)
(2.76181e-12 1.1345e-11 -1.05089e-11)
(2.10237e-12 1.16731e-11 -1.42672e-11)
(1.52348e-12 9.14526e-12 -1.49864e-11)
(1.42404e-12 9.82758e-12 -1.3898e-11)
(2.58329e-12 1.1402e-11 -1.40686e-11)
(4.02916e-12 1.07666e-11 -1.40686e-11)
(2.02453e-12 8.47704e-12 -1.34376e-11)
(3.27968e-12 1.0381e-11 -1.62335e-11)
(2.20651e-12 1.28031e-11 -1.26122e-11)
(1.25326e-12 1.33131e-11 -9.68714e-12)
(3.5269e-12 1.22513e-11 -8.61783e-12)
(7.06851e-13 1.16717e-11 -3.83846e-12)
(2.55178e-12 1.03287e-11 -2.94073e-14)
(7.29653e-12 1.20627e-11 3.10768e-12)
(5.34739e-12 1.26063e-11 9.8772e-12)
(1.11162e-12 1.06649e-11 2.06319e-11)
(-1.43355e-12 6.29557e-12 3.25419e-11)
(1.15668e-12 6.6505e-12 4.10992e-11)
(3.48266e-12 8.63396e-12 4.57556e-11)
(4.63661e-12 9.76302e-12 4.3428e-11)
(6.44276e-12 7.26691e-12 3.73763e-11)
(4.38998e-12 6.27859e-12 2.64951e-11)
(-1.6242e-12 6.54851e-12 1.82913e-11)
(6.59089e-13 1.05136e-11 1.18732e-11)
(4.49079e-12 8.58267e-12 8.7274e-12)
(3.24338e-12 1.16083e-11 6.60897e-12)
(2.36029e-12 1.12011e-11 3.99436e-12)
(-3.553e-13 8.8445e-12 1.84025e-13)
(4.37336e-13 9.66597e-12 -4.18725e-12)
(1.32694e-12 7.93568e-12 -2.02381e-12)
(3.18964e-13 7.77299e-12 2.49956e-13)
(-1.39258e-12 7.27483e-12 3.98198e-13)
(-3.11877e-12 5.52298e-12 -1.48395e-12)
(-1.1885e-12 7.46607e-12 -4.90681e-12)
(-4.2984e-13 6.78429e-12 1.81952e-12)
(-4.43571e-12 9.07605e-12 1.00475e-11)
(-3.19282e-12 7.74525e-12 1.55481e-11)
(-8.19115e-13 7.90637e-12 1.27274e-11)
(-8.06231e-13 6.05069e-12 4.9488e-12)
(-2.66132e-12 9.95172e-12 -2.70533e-12)
(-5.59456e-12 8.11122e-12 -9.12641e-12)
(-1.16653e-12 9.90369e-12 -1.36902e-11)
(6.82294e-13 1.12235e-11 -1.10551e-11)
(3.99403e-13 1.15994e-11 -1.09796e-11)
(2.12342e-12 1.24472e-11 -1.03111e-11)
(1.37133e-12 1.36244e-11 -9.34274e-12)
(1.98216e-12 1.1889e-11 -7.8941e-12)
(2.4563e-12 1.44315e-11 -6.18872e-12)
(6.14099e-13 1.59771e-11 -7.16516e-12)
(1.47335e-12 1.72239e-11 -8.1431e-12)
(1.41295e-12 1.68239e-11 -7.27215e-12)
(-3.67088e-13 1.60672e-11 -8.45535e-12)
(9.66425e-13 1.36341e-11 -8.43051e-12)
(3.61787e-12 1.26126e-11 -9.78354e-12)
(3.03597e-12 1.28389e-11 -1.43574e-11)
(3.83749e-12 1.33798e-11 -9.86895e-12)
(2.01708e-12 1.39138e-11 -4.9475e-12)
(1.33098e-12 1.1003e-11 -4.43087e-12)
(4.51372e-13 1.21851e-11 -1.14379e-12)
(-2.29489e-12 1.23271e-11 -5.39271e-12)
(-1.58781e-12 9.68186e-12 -8.67221e-12)
(-6.27142e-13 1.02457e-11 -1.33137e-11)
(-2.14946e-12 9.28333e-12 -1.87272e-11)
(-2.07937e-12 7.37469e-12 -1.66233e-11)
(5.40017e-13 9.85647e-12 -1.70624e-11)
(2.09012e-12 8.87045e-12 -1.62327e-11)
(1.23684e-12 1.04481e-11 -1.78626e-11)
(1.34648e-12 9.44617e-12 -1.39698e-11)
(-2.07607e-12 1.26747e-11 -9.11764e-12)
(-3.15825e-12 1.27516e-11 -3.21525e-12)
(-2.97932e-12 1.22201e-11 -4.78511e-12)
(-4.41481e-12 1.05268e-11 -8.51965e-12)
(-4.24781e-12 1.29969e-11 -1.34565e-11)
(-4.07793e-12 1.15528e-11 -1.64621e-11)
(-4.56825e-12 1.36789e-11 -1.58795e-11)
(-5.2164e-12 1.40692e-11 -2.00171e-11)
(-8.55023e-13 1.38944e-11 -1.76926e-11)
(2.17834e-12 1.21914e-11 -1.47359e-11)
(2.44028e-12 1.24716e-11 -1.46203e-11)
(2.00493e-12 1.0976e-11 -8.75871e-12)
(-1.20298e-12 1.40801e-11 -4.48524e-12)
(-3.76778e-13 1.14176e-11 -1.31068e-12)
(1.60541e-12 1.24626e-11 1.46906e-12)
(-1.37911e-12 7.84113e-12 -4.24854e-12)
(-5.70091e-13 9.56735e-12 -1.87662e-12)
(-1.3276e-12 9.38605e-12 -1.76432e-12)
(-2.96516e-12 8.18024e-12 -2.17779e-12)
(-2.34606e-12 9.14676e-12 -3.23651e-12)
(-1.26806e-12 7.24888e-12 -3.58347e-12)
(1.4874e-13 7.48322e-12 -2.46081e-12)
(1.41032e-12 8.32235e-12 -3.42258e-12)
(1.16139e-14 6.57395e-12 -2.84963e-12)
(-2.65787e-12 4.97865e-12 -2.4582e-12)
(-4.52075e-12 6.35607e-12 -2.25309e-12)
(-1.99624e-12 5.23611e-12 -2.88661e-12)
(1.23476e-12 6.6397e-12 -2.99963e-12)
(1.46429e-12 6.96193e-12 -3.11844e-12)
(1.64088e-12 9.62893e-12 -4.2171e-12)
(1.85797e-12 8.9368e-12 -8.3209e-12)
(1.76948e-12 1.01241e-11 -1.11822e-11)
(1.49162e-12 1.06815e-11 -9.33539e-12)
(2.38872e-12 1.11319e-11 -8.53338e-12)
(2.89673e-12 8.65118e-12 -8.21378e-12)
(3.3538e-12 9.77286e-12 -8.61131e-12)
(2.99246e-12 9.86189e-12 -8.97269e-12)
(2.14257e-12 9.47025e-12 -9.22679e-12)
(2.3038e-12 9.00895e-12 -9.06237e-12)
(1.89507e-12 8.68279e-12 -7.35335e-12)
(1.42831e-12 1.07109e-11 -7.51404e-12)
(5.80675e-13 1.14401e-11 -4.73331e-12)
(3.42974e-12 9.67576e-12 3.31692e-14)
(7.13169e-12 9.7126e-12 4.69766e-12)
(4.32349e-12 1.08627e-11 1.1322e-11)
(3.2142e-12 8.72854e-12 2.3435e-11)
(2.65833e-12 6.36641e-12 3.61975e-11)
(1.34108e-12 3.87925e-12 4.02641e-11)
(2.21369e-12 4.00705e-12 4.01581e-11)
(4.33047e-12 4.48716e-12 3.5834e-11)
(6.14374e-12 6.59531e-12 2.80856e-11)
(2.79831e-12 7.88992e-12 2.01713e-11)
(-7.1597e-13 6.74685e-12 1.28208e-11)
(6.94038e-13 5.95503e-12 6.93212e-12)
(2.20555e-12 8.2516e-12 6.34218e-12)
(1.38191e-12 8.69971e-12 3.70809e-12)
(1.93743e-12 1.03432e-11 1.35928e-12)
(1.09679e-12 1.00923e-11 6.40293e-13)
(1.40721e-12 8.95779e-12 -1.27143e-12)
(1.76572e-12 9.16825e-12 -2.35118e-13)
(1.84704e-13 8.01507e-12 8.20423e-13)
(-1.1628e-12 8.58195e-12 3.35807e-13)
(-1.67043e-12 6.06636e-12 5.29228e-13)
(-1.31693e-12 4.8836e-12 -2.58889e-12)
(-2.47157e-12 6.11599e-12 2.11802e-12)
(-2.87937e-12 7.93304e-12 7.95634e-12)
(-2.95192e-12 6.53304e-12 1.03122e-11)
(-2.25293e-12 8.15634e-12 7.86242e-12)
(-1.72399e-12 7.70061e-12 2.26924e-12)
(-3.43738e-12 9.28115e-12 -4.57928e-12)
(-4.72552e-12 8.88908e-12 -9.17321e-12)
(-1.89485e-12 6.66755e-12 -1.17617e-11)
(9.426e-13 8.54189e-12 -1.22372e-11)
(2.2172e-13 9.27669e-12 -1.10386e-11)
(-5.42634e-13 9.94288e-12 -1.11704e-11)
(7.04805e-13 1.13472e-11 -1.10187e-11)
(2.17488e-12 1.17118e-11 -1.00683e-11)
(1.17157e-12 1.3101e-11 -8.98111e-12)
(4.97142e-13 1.35958e-11 -9.61826e-12)
(1.5972e-12 1.38193e-11 -1.02902e-11)
(2.13366e-12 1.44108e-11 -1.01341e-11)
(2.3476e-12 1.309e-11 -8.58837e-12)
(2.22264e-12 1.03022e-11 -8.49518e-12)
(2.82096e-12 1.03031e-11 -1.093e-11)
(3.27201e-12 9.93538e-12 -1.02033e-11)
(2.0378e-12 1.04509e-11 -8.8034e-12)
(2.27519e-12 1.05462e-11 -6.46367e-12)
(2.10636e-12 1.05989e-11 -5.99234e-12)
(1.08747e-12 1.06131e-11 -5.89276e-12)
(1.09857e-12 8.36212e-12 -6.97313e-12)
(4.00352e-13 5.64318e-12 -6.2833e-12)
(-6.82839e-13 6.24703e-12 -1.00398e-11)
(-1.94713e-12 4.83634e-12 -1.37308e-11)
(-3.59859e-12 4.922e-12 -1.57612e-11)
(-1.10038e-12 4.87981e-12 -1.70653e-11)
(5.88539e-13 8.07363e-12 -1.5908e-11)
(-1.37698e-13 1.03367e-11 -1.63757e-11)
(5.478e-14 1.10561e-11 -1.2946e-11)
(-1.62352e-12 1.29443e-11 -6.27971e-12)
(-2.95269e-12 1.13927e-11 -7.31556e-14)
(-3.99776e-12 1.42622e-11 -2.81709e-12)
(-3.42522e-12 1.38063e-11 -1.02714e-11)
(-3.55012e-12 1.48978e-11 -1.77096e-11)
(-4.14198e-12 1.44152e-11 -2.06823e-11)
(-3.86355e-12 1.43268e-11 -1.97224e-11)
(-4.24036e-12 1.14057e-11 -1.95306e-11)
(-1.05479e-12 1.06417e-11 -1.73297e-11)
(2.91955e-12 1.16394e-11 -1.46038e-11)
(1.99918e-12 1.13795e-11 -1.1383e-11)
(4.56544e-13 1.44726e-11 -8.31241e-12)
(-9.39595e-13 1.43224e-11 -2.89419e-12)
(7.03628e-13 1.08984e-11 2.61044e-12)
(1.40255e-12 1.29468e-11 6.91972e-12)
(-1.64618e-12 4.64025e-12 -3.65458e-12)
(-1.97386e-12 5.32574e-12 -2.11316e-12)
(-1.34727e-12 5.38147e-12 -1.85204e-12)
(-2.14948e-12 5.57961e-12 -2.16678e-12)
(-2.32206e-12 2.90603e-12 -4.03214e-12)
(-4.76102e-13 3.05239e-12 -5.23931e-12)
(2.89152e-14 4.46658e-13 -4.94899e-12)
(1.26385e-12 1.82465e-12 -4.60665e-12)
(6.0902e-13 2.4084e-12 -3.89821e-12)
(-2.53466e-12 2.91416e-12 -3.31583e-12)
(-3.43251e-12 3.48256e-12 -2.91606e-12)
(-2.05494e-12 2.42761e-12 -3.11129e-12)
(-2.10895e-13 5.05236e-12 -2.98067e-12)
(1.57614e-13 4.83718e-12 -3.18933e-12)
(8.25366e-13 5.32412e-12 -6.0516e-12)
(1.92367e-12 5.75328e-12 -8.56839e-12)
(6.33886e-13 4.87076e-12 -8.70546e-12)
(6.7575e-13 6.07221e-12 -7.15927e-12)
(3.40801e-12 5.35748e-12 -6.59289e-12)
(3.55346e-12 4.51448e-12 -5.8938e-12)
(2.00833e-12 5.79529e-12 -5.15381e-12)
(2.53603e-12 6.69855e-12 -6.63423e-12)
(4.05633e-12 5.79438e-12 -6.42064e-12)
(2.54902e-12 4.38778e-12 -7.03164e-12)
(-3.58365e-14 4.44786e-12 -7.50263e-12)
(1.40906e-12 6.72781e-12 -6.60882e-12)
(2.29855e-12 5.67177e-12 -4.46219e-12)
(3.58064e-12 5.39406e-12 7.4835e-13)
(6.49132e-12 4.04678e-12 5.11017e-12)
(4.49573e-12 6.5923e-12 1.17547e-11)
(3.75766e-12 2.79935e-12 2.35619e-11)
(3.30636e-12 2.51138e-12 3.49302e-11)
(2.27747e-12 2.82243e-13 3.75357e-11)
(1.96266e-12 -1.45187e-12 3.55706e-11)
(3.5065e-12 -6.42798e-13 3.09166e-11)
(5.65082e-12 -1.85399e-13 2.26053e-11)
(3.21309e-12 3.30017e-12 1.82512e-11)
(6.86768e-13 1.20352e-12 1.19497e-11)
(4.32306e-14 1.71604e-12 7.64209e-12)
(1.47918e-12 3.12242e-12 6.38679e-12)
(3.67324e-13 2.56538e-12 4.44418e-12)
(1.28836e-12 4.0571e-12 2.26439e-12)
(1.42351e-12 4.86341e-12 1.47072e-12)
(1.47112e-12 3.87244e-12 8.45402e-13)
(1.84813e-12 4.85092e-12 1.23864e-12)
(3.11958e-13 4.98449e-12 1.79066e-12)
(-4.56293e-13 4.32188e-12 1.32958e-12)
(-1.03422e-13 2.27372e-12 1.30401e-12)
(-9.27918e-13 9.17081e-13 -1.912e-12)
(-3.04919e-12 2.50087e-12 2.16943e-12)
(-3.49851e-12 1.96205e-12 7.8933e-12)
(-3.17118e-12 1.9209e-12 7.9087e-12)
(-2.10107e-12 1.87181e-12 6.25785e-12)
(-1.94157e-12 3.06749e-12 2.15055e-12)
(-4.25471e-12 3.09012e-12 -3.28599e-12)
(-3.75074e-12 4.90064e-12 -8.25267e-12)
(-1.39796e-12 2.21526e-12 -1.06408e-11)
(-6.0381e-13 4.1016e-12 -1.2164e-11)
(-6.22997e-13 6.31503e-12 -1.2006e-11)
(1.73647e-13 6.15258e-12 -1.18554e-11)
(2.97984e-14 6.14905e-12 -1.14993e-11)
(6.08175e-13 6.99453e-12 -1.09006e-11)
(1.07499e-12 6.84861e-12 -1.06277e-11)
(5.79451e-13 7.17716e-12 -1.09401e-11)
(1.49498e-12 6.81187e-12 -1.20192e-11)
(1.82583e-12 9.14954e-12 -1.12561e-11)
(2.29185e-12 6.1678e-12 -9.83398e-12)
(2.98853e-12 5.18668e-12 -9.50037e-12)
(2.80468e-12 4.38884e-12 -1.07388e-11)
(2.85135e-12 3.86671e-12 -9.90747e-12)
(3.61067e-12 4.58196e-12 -8.41211e-12)
(2.31471e-12 3.37271e-12 -7.16973e-12)
(1.16466e-12 5.06952e-12 -6.60703e-12)
(2.08778e-12 3.13506e-12 -6.38464e-12)
(2.52039e-12 2.33265e-12 -6.76862e-12)
(9.63082e-13 2.4795e-12 -6.95529e-12)
(-6.58859e-14 2.64114e-12 -8.93389e-12)
(-1.83762e-12 8.96639e-13 -1.12433e-11)
(-2.81457e-12 1.87014e-12 -1.41458e-11)
(-2.58752e-12 1.49403e-12 -1.62283e-11)
(-2.35462e-12 5.27237e-12 -1.54887e-11)
(-1.12255e-12 6.496e-12 -1.51337e-11)
(2.01884e-13 7.64919e-12 -1.44415e-11)
(-1.34339e-12 8.20299e-12 -7.7695e-12)
(-3.66927e-12 9.18484e-12 -8.2134e-14)
(-4.68988e-12 9.59329e-12 -3.84417e-12)
(-3.26933e-12 9.64191e-12 -1.18845e-11)
(-3.47007e-12 1.06002e-11 -2.08567e-11)
(-3.74493e-12 1.31944e-11 -2.48938e-11)
(-3.01536e-12 1.08509e-11 -2.22202e-11)
(-3.096e-12 9.09553e-12 -2.03417e-11)
(-2.11268e-12 6.94647e-12 -1.69486e-11)
(1.90817e-12 8.71512e-12 -1.46727e-11)
(1.06231e-12 9.34991e-12 -1.13167e-11)
(-6.5532e-14 1.20627e-11 -7.6907e-12)
(1.78643e-12 1.10354e-11 -2.08955e-12)
(9.63275e-13 9.3513e-12 5.33193e-12)
(-2.82044e-15 8.30562e-12 1.07637e-11)
(-1.37966e-12 8.91867e-12 -1.97298e-12)
(-9.10157e-13 8.48839e-12 1.0672e-12)
(-2.07467e-12 7.85681e-12 -8.35198e-13)
(-7.53594e-13 9.29393e-12 -4.07618e-12)
(-2.99947e-13 5.65732e-12 -7.42647e-12)
(3.51259e-13 6.67685e-12 -1.03906e-11)
(6.6553e-13 3.68484e-12 -8.42336e-12)
(-1.08035e-12 4.45359e-12 -6.63324e-12)
(-1.32504e-12 6.79303e-12 -5.00727e-12)
(-3.57625e-12 7.62802e-12 -4.04618e-12)
(-2.87066e-12 7.33067e-12 -3.08498e-12)
(-3.91024e-12 5.32697e-12 -2.33592e-12)
(-1.4951e-12 5.27976e-12 -1.63245e-12)
(1.21859e-12 8.72505e-12 -1.60457e-12)
(3.44362e-13 8.96153e-12 -1.52571e-12)
(2.09532e-12 8.23918e-12 -2.31841e-12)
(1.61667e-12 7.53603e-12 -2.87198e-12)
(7.51053e-13 8.03516e-12 -2.48169e-12)
(2.14889e-12 9.06541e-12 -3.40191e-12)
(1.04226e-12 1.01328e-11 -4.25255e-12)
(1.88724e-12 1.09691e-11 -4.6748e-12)
(3.52455e-12 9.72859e-12 -5.42951e-12)
(3.67505e-12 1.06272e-11 -4.99975e-12)
(3.24857e-12 1.03028e-11 -6.30496e-12)
(1.07685e-12 8.18861e-12 -5.91233e-12)
(1.92942e-12 8.8541e-12 -4.65329e-12)
(3.41293e-12 7.22613e-12 -1.69617e-12)
(2.58937e-12 7.91023e-12 3.2595e-12)
(4.88756e-12 7.30229e-12 4.85591e-12)
(6.0441e-12 9.83834e-12 1.11783e-11)
(5.59995e-12 5.54889e-12 2.27499e-11)
(1.79789e-12 6.10028e-12 3.33908e-11)
(2.73519e-12 5.90767e-12 3.63009e-11)
(3.6597e-12 3.6559e-12 3.42717e-11)
(2.89124e-12 4.66505e-12 2.77916e-11)
(3.36252e-12 1.99766e-12 1.81665e-11)
(2.88736e-12 3.89503e-12 1.17555e-11)
(2.9795e-13 4.37403e-12 8.36787e-12)
(1.15981e-13 8.08467e-12 7.15797e-12)
(2.11077e-12 7.20211e-12 6.81607e-12)
(1.77053e-12 6.78971e-12 5.08917e-12)
(1.22696e-12 6.45174e-12 3.70554e-12)
(1.9589e-12 7.87626e-12 3.21457e-12)
(1.40317e-12 6.65488e-12 3.12103e-12)
(6.95567e-13 8.04977e-12 3.28537e-12)
(-3.58661e-14 7.56029e-12 3.72716e-12)
(-2.69138e-13 7.21855e-12 3.18515e-12)
(2.70731e-14 6.23879e-12 1.35755e-12)
(-1.5486e-12 3.55512e-12 -3.67016e-13)
(-2.81274e-12 3.73101e-12 3.83204e-12)
(-2.10089e-12 3.63137e-12 6.88924e-12)
(-3.45183e-12 4.53093e-12 7.67679e-12)
(-2.99011e-12 5.15822e-12 6.29334e-12)
(-2.58267e-12 7.59063e-12 3.69032e-12)
(-4.82194e-12 7.82788e-12 -5.84161e-13)
(-3.32769e-12 7.76649e-12 -6.25638e-12)
(-1.52846e-12 5.77586e-12 -9.08297e-12)
(-2.97008e-12 7.28136e-12 -1.27057e-11)
(-1.70444e-12 1.14823e-11 -1.24219e-11)
(-4.86335e-13 1.1849e-11 -1.28762e-11)
(-4.39089e-14 1.22362e-11 -1.34972e-11)
(1.24381e-12 1.09927e-11 -1.274e-11)
(1.66439e-12 1.18577e-11 -1.28361e-11)
(1.25583e-12 1.04166e-11 -1.22553e-11)
(4.08897e-13 9.06885e-12 -1.21616e-11)
(3.2932e-12 9.98044e-12 -1.29914e-11)
(5.6616e-12 8.16736e-12 -9.84917e-12)
(3.08969e-12 7.075e-12 -8.24333e-12)
(3.53191e-12 7.51883e-12 -7.74807e-12)
(2.29927e-12 6.55111e-12 -7.37738e-12)
(1.65073e-12 8.37657e-12 -7.36858e-12)
(1.70564e-12 8.23061e-12 -7.08448e-12)
(2.40917e-12 8.70375e-12 -7.08401e-12)
(2.67815e-12 6.19275e-12 -6.84662e-12)
(7.683e-13 6.74269e-12 -6.86154e-12)
(-1.0095e-12 5.75023e-12 -6.92245e-12)
(-8.04048e-13 7.82593e-12 -7.78572e-12)
(-1.50815e-12 6.15914e-12 -9.10472e-12)
(-3.86118e-12 6.91088e-12 -1.09305e-11)
(-4.05083e-12 8.78115e-12 -1.31582e-11)
(-1.69334e-12 1.018e-11 -1.3611e-11)
(-8.87912e-14 9.40748e-12 -1.22065e-11)
(-7.98817e-13 1.15411e-11 -1.22275e-11)
(-2.36172e-12 1.20466e-11 -7.63134e-12)
(-3.291e-12 1.44739e-11 -4.18597e-12)
(-2.32095e-12 1.33222e-11 -7.61532e-12)
(-3.8929e-12 1.17135e-11 -1.23439e-11)
(-6.62959e-12 1.24796e-11 -1.92526e-11)
(-4.01602e-12 1.24351e-11 -2.49977e-11)
(-1.80103e-12 1.35144e-11 -2.38916e-11)
(-2.41548e-12 1.19934e-11 -2.19489e-11)
(-9.16969e-13 1.35666e-11 -1.77126e-11)
(5.16251e-13 1.25322e-11 -1.45503e-11)
(-5.75568e-13 1.43144e-11 -1.24391e-11)
(-6.61721e-13 1.403e-11 -7.48515e-12)
(8.96563e-13 1.3358e-11 -8.5899e-13)
(2.11207e-12 1.43209e-11 6.42941e-12)
(1.31468e-12 1.29071e-11 1.13498e-11)
(-1.20407e-12 1.62506e-11 1.66434e-12)
(-1.41931e-12 1.70235e-11 4.15782e-12)
(-3.26186e-12 1.66946e-11 2.44838e-13)
(-8.70092e-13 1.58096e-11 -4.15452e-12)
(-3.23303e-13 1.60329e-11 -9.639e-12)
(1.1192e-12 1.54573e-11 -1.44277e-11)
(1.10775e-12 1.35426e-11 -1.04149e-11)
(-2.92287e-12 1.27302e-11 -8.17882e-12)
(-1.95724e-12 1.28923e-11 -6.48282e-12)
(-2.29816e-12 1.41972e-11 -4.75756e-12)
(3.11964e-13 1.36053e-11 -3.42569e-12)
(4.4283e-14 1.18518e-11 -1.81476e-12)
(-3.73471e-12 1.09101e-11 -9.77796e-13)
(-3.50508e-12 1.31818e-11 -1.05804e-12)
(1.29359e-12 1.50776e-11 -5.66934e-13)
(3.58203e-12 1.35015e-11 1.04981e-12)
(1.26907e-12 1.5733e-11 -6.79216e-13)
(-1.19864e-12 1.46622e-11 -1.00379e-12)
(1.21552e-12 1.61707e-11 -2.12368e-12)
(1.19613e-12 1.7771e-11 -3.62523e-12)
(2.06609e-12 1.76436e-11 -4.04269e-12)
(2.38608e-12 1.48963e-11 -4.40808e-12)
(2.69917e-12 1.5665e-11 -5.28047e-12)
(4.96269e-12 1.4679e-11 -6.66613e-12)
(2.78889e-12 1.61804e-11 -5.81673e-12)
(2.64507e-12 1.30952e-11 -4.58999e-12)
(3.7727e-12 1.40462e-11 -2.20612e-12)
(3.60055e-12 1.2568e-11 1.07196e-12)
(4.57933e-12 1.52544e-11 2.72926e-12)
(5.26512e-12 1.5919e-11 8.98304e-12)
(6.23873e-12 1.3592e-11 1.88256e-11)
(2.68785e-12 1.58317e-11 2.66294e-11)
(3.58315e-12 1.58737e-11 2.64317e-11)
(2.61004e-12 1.47854e-11 2.52239e-11)
(3.81179e-12 1.45192e-11 1.97604e-11)
(4.46127e-12 1.35776e-11 1.20846e-11)
(2.61818e-12 1.30598e-11 7.66141e-12)
(-9.9135e-13 1.42614e-11 6.37579e-12)
(-2.25189e-13 1.47244e-11 6.01492e-12)
(3.19614e-12 1.43693e-11 7.36443e-12)
(1.56297e-12 1.41694e-11 4.77479e-12)
(-6.1383e-13 1.13895e-11 3.81263e-12)
(1.36492e-12 1.16513e-11 3.83379e-12)
(1.5625e-12 1.20854e-11 4.19931e-12)
(1.57769e-12 1.20003e-11 4.72105e-12)
(1.61399e-12 1.1949e-11 5.13702e-12)
(4.91144e-13 1.43112e-11 3.86669e-12)
(2.6609e-12 1.12348e-11 2.52415e-12)
(1.40985e-12 9.5035e-12 2.18391e-12)
(-2.50031e-12 1.04017e-11 3.60632e-12)
(-4.20906e-12 9.01674e-12 6.92961e-12)
(-4.56888e-12 9.25766e-12 8.54597e-12)
(-3.82046e-12 1.12068e-11 7.68086e-12)
(-3.98975e-12 1.24878e-11 4.58669e-12)
(-4.3908e-12 1.34771e-11 -6.53583e-13)
(-1.85631e-12 1.14907e-11 -4.67788e-12)
(-8.79737e-13 1.1578e-11 -5.20295e-12)