/*--------------------------------*- C++ -*----------------------------------*\
| =========                 |                                                 |
| \\      /  F ield         | OpenFOAM: The Open Source CFD Toolbox           |
|  \\    /   O peration     | Version:  2406                                  |
|   \\  /    A nd           | Website:  www.openfoam.com                      |
|    \\/     M anipulation  |                                                 |
\*---------------------------------------------------------------------------*/
FoamFile
{
    version     2.0;
    format      ascii;
    arch        "LSB;label=32;scalar=64";
    class       volScalarField;
    location    "0.01";
    object      Ma;
}
// * * * * * * * * * * * * * * * * * * * * * * * * * * * * * * * * * * * * * //

dimensions      [0 0 0 0 0 0 0];

internalField   nonuniform List<scalar> 
13818
(
3.13695e-14
3.05681e-14
2.07891e-14
2.84745e-14
3.36962e-14
1.54377e-14
8.60625e-15
8.53663e-15
9.69868e-15
1.30767e-14
1.70072e-14
2.5174e-14
1.88932e-14
2.30297e-14
7.07877e-15
3.94578e-14
5.61323e-14
5.22596e-14
3.92099e-14
3.50976e-14
4.06557e-14
3.72311e-14
3.08226e-14
2.92417e-14
2.76624e-14
3.19014e-14
2.3855e-14
1.73719e-14
9.87971e-15
9.46052e-15
1.13144e-14
1.84775e-14
1.85499e-14
2.62214e-14
2.25684e-14
2.9711e-14
2.46787e-14
1.94821e-14
1.47137e-14
8.53215e-15
1.55542e-14
3.00462e-14
3.75404e-14
3.23024e-14
3.12729e-14
3.79177e-14
5.60967e-14
4.77954e-14
2.1735e-14
1.02323e-14
7.03494e-15
1.01728e-14
1.18244e-14
2.03713e-14
1.57955e-14
1.68135e-14
5.62066e-15
8.62529e-15
1.7084e-15
1.70366e-14
1.37319e-14
8.18817e-15
7.47305e-15
2.08412e-14
2.73044e-14
2.7511e-14
3.33364e-14
4.51991e-14
4.32924e-14
5.81541e-14
6.55525e-14
5.78042e-14
3.49146e-14
4.15101e-14
4.16746e-14
5.15888e-14
4.95903e-14
5.05354e-14
3.2977e-14
1.29201e-14
1.47485e-14
1.07358e-14
1.42232e-14
1.97362e-14
2.89969e-14
3.25724e-14
2.96504e-14
9.88891e-15
5.99116e-15
1.00659e-14
7.69697e-15
1.00838e-14
8.42167e-15
9.04897e-15
1.16379e-14
1.79058e-14
1.94093e-14
3.01315e-14
2.78215e-14
2.98236e-14
2.87969e-14
4.72472e-14
4.15237e-14
5.07025e-14
6.05931e-14
4.79128e-14
1.66048e-14
1.6933e-14
1.31857e-14
1.89857e-14
2.51321e-14
8.5384e-15
1.67965e-14
1.10687e-14
1.20925e-14
1.08174e-14
1.3586e-14
1.3889e-14
9.16479e-15
1.93132e-14
4.47056e-15
4.2003e-14
6.26981e-14
5.60524e-14
3.95805e-14
3.49789e-14
4.14543e-14
3.69918e-14
2.99382e-14
3.31974e-14
2.75739e-14
2.18659e-14
1.99126e-14
1.97951e-14
1.17326e-14
1.27462e-14
1.44561e-14
1.80327e-14
2.11645e-14
3.26758e-14
1.94968e-14
1.80653e-14
1.29992e-14
1.72389e-14
2.41803e-14
1.91263e-14
1.70169e-14
3.03535e-14
3.34861e-14
3.55062e-14
3.33445e-14
3.83954e-14
6.06023e-14
5.63038e-14
3.1547e-14
1.24598e-14
7.01287e-15
5.3579e-15
4.04238e-15
1.31572e-14
1.47939e-14
1.67028e-14
4.94642e-15
6.75633e-15
7.56929e-15
1.39307e-14
1.19498e-14
5.02836e-15
1.98618e-14
3.77537e-14
3.11281e-14
2.97978e-14
3.56987e-14
5.24471e-14
4.55968e-14
6.99277e-14
7.80667e-14
6.08266e-14
2.97326e-14
3.53636e-14
4.8837e-14
5.42757e-14
6.72204e-14
6.53726e-14
4.26102e-14
1.87483e-14
1.31194e-14
2.0822e-14
2.04981e-14
2.03381e-14
3.21979e-14
2.92567e-14
3.05484e-14
8.28434e-15
7.24161e-15
5.06413e-15
5.29995e-15
1.29377e-14
1.64096e-14
4.05955e-15
1.25403e-14
2.09714e-14
9.69702e-15
2.32566e-14
3.29118e-14
3.99184e-14
3.30762e-14
4.85007e-14
3.80793e-14
5.18166e-14
5.92401e-14
3.90574e-14
1.85125e-14
1.27782e-14
1.09126e-14
1.38659e-14
1.46463e-14
1.09888e-14
2.03915e-14
1.76449e-14
2.35207e-14
1.74422e-14
1.33317e-14
1.1334e-14
1.27968e-14
1.84017e-14
3.44196e-15
3.08499e-14
4.97423e-14
4.13711e-14
3.54845e-14
3.34501e-14
3.06358e-14
3.06528e-14
2.57078e-14
2.5177e-14
2.32527e-14
2.28716e-14
1.62052e-14
2.04145e-14
1.60767e-14
1.48528e-14
9.64667e-15
1.26341e-14
1.61839e-14
1.73995e-14
1.47501e-14
1.15276e-14
1.01692e-14
1.12927e-14
1.29925e-14
1.27157e-14
1.83761e-14
3.49982e-14
3.52219e-14
3.69464e-14
3.09494e-14
3.09094e-14
4.14206e-14
3.71425e-14
2.95914e-14
1.42446e-14
4.52442e-15
4.45948e-15
6.98313e-15
8.17919e-15
1.14763e-14
1.2512e-14
4.94212e-15
1.32102e-14
1.66544e-14
1.3836e-14
1.54899e-14
1.00739e-14
1.15186e-14
2.3295e-14
2.42651e-14
2.4254e-14
2.77805e-14
3.20777e-14
3.03295e-14
4.49319e-14
5.24744e-14
4.79138e-14
3.35934e-14
3.59153e-14
3.94265e-14
4.39695e-14
4.7966e-14
4.81191e-14
3.6835e-14
2.39599e-14
8.33062e-15
1.42859e-14
2.02184e-14
1.53809e-14
2.22063e-14
2.23701e-14
1.81552e-14
1.11939e-14
8.65594e-15
6.95302e-15
1.1708e-14
1.79199e-14
1.94045e-14
1.33115e-14
2.33406e-14
1.684e-14
1.44055e-14
2.48546e-14
2.66456e-14
2.64002e-14
2.7103e-14
2.95473e-14
2.34866e-14
2.86909e-14
3.02362e-14
2.15977e-14
1.77815e-14
1.4937e-14
1.2462e-14
1.52848e-14
1.73266e-14
1.7985e-14
1.73006e-14
1.75749e-14
1.89866e-14
2.01702e-14
1.5748e-14
1.22768e-14
1.45967e-14
1.28921e-14
6.05762e-15
1.80366e-14
2.56069e-14
2.58199e-14
2.76138e-14
2.80479e-14
2.80234e-14
2.83614e-14
2.33085e-14
1.99578e-14
2.5759e-14
2.57559e-14
2.00635e-14
1.9121e-14
1.82081e-14
1.2346e-14
1.35469e-14
1.48428e-14
2.16722e-14
2.43981e-14
1.74094e-14
1.79998e-14
1.6845e-14
1.82497e-14
1.62655e-14
1.88884e-14
2.25146e-14
3.28368e-14
3.4658e-14
2.98141e-14
2.54645e-14
2.36931e-14
2.63227e-14
2.46887e-14
2.70742e-14
2.04381e-14
1.39336e-14
1.35112e-14
1.70098e-14
1.91733e-14
2.19939e-14
2.06467e-14
1.41581e-14
1.60139e-14
1.93623e-14
1.72217e-14
1.9314e-14
1.36452e-14
8.15832e-15
1.7377e-14
2.14192e-14
1.51732e-14
9.70168e-15
1.38209e-14
2.097e-14
2.91743e-14
3.0308e-14
3.16742e-14
2.95043e-14
3.23196e-14
3.32631e-14
3.13557e-14
3.296e-14
3.18086e-14
2.94327e-14
1.93062e-14
1.10721e-14
1.32435e-14
1.45802e-14
1.32067e-14
1.58836e-14
1.91311e-14
1.90138e-14
1.89366e-14
1.10821e-14
1.38915e-14
1.92624e-14
2.24836e-14
2.39193e-14
1.9594e-14
1.85909e-14
2.08224e-14
1.87349e-14
2.12839e-14
2.44168e-14
2.32352e-14
1.75461e-14
1.23081e-14
1.24266e-14
1.72867e-14
1.63438e-14
1.68319e-14
1.75489e-14
1.44628e-14
1.59084e-14
1.77631e-14
1.85691e-14
1.53684e-14
1.72569e-14
1.64087e-14
1.23707e-14
1.27023e-14
1.00492e-14
1.31351e-14
1.49425e-14
7.53759e-15
7.12084e-15
6.79276e-15
9.44833e-15
1.58532e-14
2.21746e-14
2.4113e-14
2.35682e-14
2.06928e-14
1.76394e-14
2.00856e-14
2.03215e-14
1.68222e-14
1.17096e-14
1.23617e-14
1.73853e-14
1.8609e-14
1.88776e-14
2.4462e-14
2.25019e-14
1.72289e-14
2.12401e-14
2.33071e-14
2.38376e-14
2.24335e-14
2.30373e-14
2.22319e-14
2.71496e-14
3.27584e-14
2.79438e-14
2.09693e-14
1.43709e-14
1.34187e-14
1.02021e-14
1.71028e-14
1.78094e-14
1.97214e-14
2.18838e-14
2.17221e-14
2.09783e-14
1.85119e-14
1.92739e-14
1.81377e-14
1.7137e-14
1.74829e-14
2.16901e-14
2.25131e-14
1.60271e-14
1.11454e-14
9.79419e-15
1.41287e-14
2.18408e-14
2.57499e-14
2.57922e-14
1.94939e-14
2.29301e-14
2.65045e-14
3.10804e-14
2.85125e-14
2.93313e-14
2.66932e-14
2.44546e-14
2.74666e-14
2.47908e-14
2.23122e-14
1.45671e-14
1.41167e-14
1.49772e-14
1.61706e-14
1.43996e-14
1.4214e-14
1.82521e-14
2.08142e-14
1.75562e-14
1.19783e-14
1.57255e-14
1.97674e-14
2.44096e-14
2.50427e-14
1.80425e-14
1.73679e-14
1.76035e-14
2.02707e-14
1.50736e-14
1.89327e-14
1.88108e-14
1.99299e-14
1.28989e-14
1.40835e-14
1.47675e-14
1.12885e-14
2.27209e-14
1.72412e-14
7.81636e-15
4.82176e-15
6.91969e-15
7.69248e-15
8.28623e-15
8.59545e-15
5.94131e-15
8.41402e-15
8.61048e-15
1.15243e-14
1.37973e-14
1.54903e-14
1.31012e-14
8.10644e-15
1.03745e-14
1.04655e-14
1.14647e-14
1.23403e-14
1.71606e-14
1.9426e-14
1.48773e-14
9.8873e-15
7.21137e-15
6.01308e-15
1.18544e-14
1.80797e-14
1.56543e-14
1.41896e-14
1.14418e-14
1.41027e-14
1.46193e-14
1.24305e-14
2.01138e-14
2.20434e-14
1.87697e-14
1.61664e-14
1.37904e-14
1.65637e-14
1.42574e-14
2.42419e-14
2.8435e-14
2.25624e-14
1.19097e-14
7.83928e-15
6.0093e-15
1.14078e-14
7.01473e-15
6.75856e-15
1.53102e-14
2.29153e-14
2.03832e-14
1.20324e-14
3.41478e-15
6.16093e-15
5.16149e-15
1.46552e-14
2.62849e-14
2.69369e-14
2.59129e-14
3.21344e-14
3.34692e-14
3.40938e-14
3.31255e-14
4.08157e-14
4.34944e-14
3.45176e-14
1.7499e-14
9.51447e-15
1.46456e-14
2.06605e-14
2.00953e-14
2.01203e-14
1.77239e-14
1.82597e-14
1.82749e-14
1.90003e-14
1.63758e-14
1.73342e-14
1.15707e-14
6.71382e-15
6.89842e-15
1.20638e-14
1.28023e-14
1.70269e-14
1.56164e-14
6.20283e-15
1.0776e-14
2.11539e-14
2.12018e-14
1.92911e-14
1.53964e-14
1.47908e-14
1.04076e-14
6.27203e-15
1.18444e-14
1.15764e-14
1.40671e-14
1.26068e-14
1.06544e-14
8.69492e-15
2.94698e-15
1.06827e-14
9.77805e-15
2.58303e-14
1.47637e-14
9.55028e-15
1.06447e-14
1.43697e-14
1.36474e-14
9.5065e-15
1.12968e-14
1.12137e-14
9.44159e-15
1.63903e-14
1.97617e-14
1.64054e-14
1.15427e-14
1.53828e-14
1.27365e-14
1.35519e-14
1.80884e-14
2.16972e-14
1.62758e-14
1.50634e-14
2.29875e-14
1.30252e-14
9.54639e-15
1.22477e-14
1.05672e-14
1.34055e-14
2.10775e-14
1.67626e-14
1.13021e-14
1.54901e-14
1.48224e-14
1.02434e-14
1.02423e-14
2.74024e-14
2.95312e-14
2.40808e-14
1.75617e-14
1.38644e-14
1.72138e-14
1.23718e-14
1.48071e-14
1.26373e-14
1.89821e-14
8.11463e-15
1.42107e-14
7.90082e-15
1.9338e-14
1.19073e-14
1.04266e-14
2.3245e-14
3.33646e-14
2.80659e-14
1.39206e-14
9.34618e-15
7.17313e-15
4.6664e-15
1.25273e-14
2.85537e-14
3.14452e-14
2.91925e-14
4.0354e-14
4.57894e-14
4.95506e-14
4.64601e-14
4.99499e-14
4.96707e-14
3.84803e-14
1.55418e-14
1.69738e-14
3.91575e-15
2.10872e-14
1.59214e-14
1.01831e-14
6.7802e-15
1.71025e-14
1.56462e-14
1.8196e-14
1.08736e-14
1.39538e-14
1.37652e-14
1.22184e-14
5.49124e-15
1.33979e-14
7.97502e-15
1.52139e-14
1.4106e-14
1.04105e-14
1.81946e-14
2.78434e-14
2.14165e-14
1.36022e-14
1.86318e-14
1.65125e-14
1.27623e-14
5.7874e-15
7.52266e-15
6.09294e-15
1.43662e-14
2.26942e-14
1.43621e-14
2.20589e-14
1.37153e-14
1.5365e-14
1.48016e-14
1.93242e-14
1.89563e-14
1.48104e-14
9.29771e-15
5.93309e-15
8.27518e-15
7.21189e-15
4.7095e-15
5.94844e-15
5.6332e-15
1.26487e-14
7.21094e-15
1.17336e-14
1.15713e-14
6.45034e-15
5.23322e-15
8.55328e-15
5.76754e-15
1.32011e-14
1.87565e-14
1.18671e-14
1.36418e-14
1.03757e-14
1.33391e-14
8.65257e-15
2.44031e-15
6.74595e-15
1.23081e-14
1.21004e-14
1.468e-14
2.21692e-14
1.74068e-14
1.80577e-14
1.16639e-14
1.57398e-14
2.26569e-14
2.87264e-14
1.7454e-14
1.44245e-14
1.10377e-14
1.00449e-14
9.6287e-15
1.00875e-14
1.02727e-14
8.63343e-15
7.60127e-15
6.49641e-15
1.67791e-14
1.29396e-14
8.6196e-15
1.41761e-14
2.52494e-14
3.0721e-14
1.83333e-14
5.07511e-15
4.1593e-15
4.58832e-15
6.28935e-15
1.56743e-14
1.9036e-14
2.32476e-14
2.86565e-14
3.42909e-14
4.38568e-14
4.08934e-14
3.69408e-14
3.59584e-14
3.29265e-14
2.54873e-14
1.05629e-14
8.08963e-15
1.33078e-14
1.61315e-14
9.66344e-15
1.06542e-14
1.37118e-14
1.17039e-14
1.15701e-14
8.10695e-15
1.707e-14
1.58167e-14
4.44563e-15
6.27124e-15
6.93573e-15
1.84031e-14
5.81036e-15
1.2499e-14
8.33268e-15
1.92284e-14
2.57305e-14
1.59259e-14
1.38133e-14
1.71456e-14
1.1225e-14
8.83736e-15
8.14352e-15
1.2634e-14
1.0408e-14
1.68395e-14
1.55911e-14
1.1099e-14
1.24944e-14
1.02874e-14
9.93748e-15
1.10593e-14
1.76273e-14
1.52312e-14
9.5985e-15
5.44474e-15
5.49472e-15
5.37759e-15
8.9686e-15
6.84123e-15
5.25417e-15
8.00163e-15
9.52811e-15
1.71517e-14
1.52142e-14
1.60872e-14
9.85629e-15
7.06373e-15
1.27036e-14
9.72673e-15
1.16564e-14
1.14731e-14
8.66305e-15
1.04544e-14
8.75544e-15
1.12719e-14
6.1491e-15
1.00679e-14
7.12365e-15
1.52658e-14
1.72623e-14
1.02117e-14
1.47619e-14
1.11773e-14
1.02605e-14
1.3256e-14
1.19522e-14
1.87191e-14
2.07535e-14
1.66607e-14
1.06806e-14
7.09939e-15
9.54737e-15
9.12018e-15
8.5486e-15
8.68125e-15
1.04132e-14
8.43663e-15
3.33453e-15
7.32416e-15
8.97537e-15
4.87072e-15
7.93765e-15
1.49436e-14
1.53663e-14
1.08992e-14
1.03158e-14
5.61181e-15
3.13819e-15
4.68359e-15
5.05267e-15
7.17281e-15
1.17038e-14
1.99409e-14
1.62389e-14
2.16613e-14
2.4932e-14
2.56194e-14
2.76609e-14
2.15359e-14
1.46124e-14
5.92269e-15
4.88682e-15
1.15734e-14
1.01171e-14
9.76352e-15
1.01298e-14
1.07532e-14
9.1564e-15
6.72473e-15
9.22465e-15
1.04306e-14
7.48375e-15
1.58458e-14
1.01363e-14
7.28453e-15
1.49264e-14
1.83424e-14
1.33386e-14
7.78874e-15
1.12377e-14
1.49856e-14
1.50852e-14
1.38236e-14
8.26852e-15
5.94329e-15
6.67791e-15
7.89838e-15
1.01205e-14
1.08202e-14
1.29115e-14
1.42484e-14
1.08189e-14
1.26117e-14
5.87986e-15
8.34575e-15
1.36379e-14
1.11555e-14
6.56463e-15
7.6062e-15
4.02195e-15
2.53217e-15
1.36742e-14
1.00286e-14
9.7107e-15
6.55429e-15
7.20362e-15
1.32923e-14
1.31001e-14
1.70358e-14
1.0406e-14
1.1086e-14
6.76771e-15
1.32817e-14
8.79073e-15
1.2544e-14
6.54627e-15
1.02446e-14
8.00375e-15
9.86815e-15
8.99871e-15
4.05666e-15
3.87444e-15
9.38191e-15
1.22396e-14
9.20356e-15
6.81369e-15
6.14708e-15
5.42971e-15
1.07664e-14
1.61243e-14
1.59023e-14
1.46879e-14
1.28095e-14
1.28837e-14
1.06219e-14
9.57875e-15
5.03992e-15
5.99322e-15
4.63108e-15
1.13555e-14
3.72465e-15
6.03393e-15
6.32794e-15
7.19632e-15
3.92934e-15
6.6685e-15
7.7067e-15
8.48577e-15
1.33865e-14
7.82331e-15
5.64382e-15
5.95988e-15
3.56972e-15
3.49791e-15
5.90088e-15
1.78911e-15
1.0314e-14
1.11701e-14
7.41162e-15
1.43176e-14
1.65594e-14
1.29663e-14
9.59e-15
6.78663e-15
4.69702e-15
3.36179e-15
6.17411e-15
8.18671e-15
8.41138e-15
8.88315e-15
9.9464e-15
8.40297e-15
5.12373e-15
1.23902e-14
8.30034e-15
6.93209e-15
1.07649e-14
7.1347e-15
6.74952e-15
7.42606e-15
1.52656e-14
8.90325e-15
1.02269e-14
1.0442e-14
1.4975e-14
1.26475e-14
6.51263e-15
8.63571e-15
1.51843e-14
4.56256e-15
1.25847e-14
7.62226e-15
9.22127e-15
1.56077e-14
1.86841e-14
1.34354e-14
9.24187e-15
7.41048e-15
1.40334e-14
1.75614e-14
9.86172e-15
8.346e-15
9.97359e-15
3.93054e-15
5.13133e-15
9.58992e-15
1.2995e-14
5.95121e-15
3.64866e-15
7.00774e-15
4.50308e-15
1.99254e-15
1.17686e-14
1.34911e-14
7.98552e-15
7.09734e-15
7.58705e-15
9.13529e-15
1.00397e-14
8.9296e-15
7.08787e-15
1.16289e-14
1.17737e-14
9.14144e-15
6.30511e-15
5.9559e-15
4.41231e-15
1.22512e-14
7.11654e-15
5.08367e-15
2.49941e-15
7.28164e-15
1.11363e-14
5.68718e-15
1.03477e-14
1.11625e-14
9.93648e-15
1.11077e-14
1.00578e-14
6.89715e-15
5.75854e-15
5.5295e-15
5.53396e-15
3.02736e-15
1.04039e-14
2.11102e-15
1.19476e-14
9.57146e-15
7.57526e-15
3.3712e-15
7.24409e-15
6.51496e-15
1.02762e-14
7.33252e-15
5.84276e-15
3.73259e-15
4.3496e-15
7.91057e-15
6.68887e-15
8.67289e-15
3.86511e-15
1.2596e-14
6.84843e-15
1.26362e-14
7.35361e-15
8.36795e-15
5.2567e-15
5.45927e-15
5.3307e-15
8.16195e-15
6.33787e-15
5.45025e-15
8.5554e-15
9.63591e-15
8.93126e-15
6.77065e-15
6.34553e-15
6.30998e-15
8.09337e-15
4.73938e-15
2.66831e-15
4.62022e-15
5.8976e-15
8.08725e-15
6.31333e-15
5.38852e-15
8.12841e-15
1.25646e-14
1.6602e-14
1.31324e-14
9.54776e-15
1.4033e-14
7.52868e-15
6.53232e-15
1.0008e-14
1.05476e-14
1.01455e-14
1.2141e-14
2.05765e-14
7.23296e-15
6.43477e-15
3.33001e-15
4.50915e-15
3.76523e-15
5.7551e-15
8.13762e-15
1.33757e-14
9.1674e-15
9.26251e-15
8.08465e-15
1.11017e-14
1.18085e-14
7.52906e-15
3.26636e-15
1.01354e-14
5.14187e-15
4.16497e-15
6.2579e-15
1.04237e-14
7.89251e-15
5.49106e-15
4.38044e-15
7.60896e-15
1.05096e-14
6.04298e-15
5.4661e-15
1.12903e-14
8.52413e-15
2.56841e-15
6.45374e-15
7.70725e-15
7.90759e-15
1.14521e-14
7.7236e-15
1.03405e-14
7.35416e-15
8.06765e-15
1.40261e-14
1.52715e-14
1.31245e-14
1.12324e-14
5.92107e-15
8.19058e-15
9.49981e-15
7.06776e-15
9.83942e-15
6.18297e-15
5.79972e-15
5.441e-15
2.80028e-15
4.62986e-15
5.47554e-15
9.77478e-15
1.27789e-14
1.14855e-14
6.43101e-15
9.88925e-15
1.09778e-14
1.40897e-14
1.71262e-14
1.20774e-14
3.79298e-15
2.69949e-15
4.37635e-15
3.50744e-15
5.68692e-15
1.24108e-14
7.65235e-15
8.66474e-15
9.83906e-15
1.44495e-14
1.09011e-14
1.39283e-14
1.57359e-14
1.11317e-14
1.05357e-14
8.69225e-15
3.36473e-15
4.28028e-15
5.54249e-15
3.08337e-15
2.80436e-15
3.9774e-15
9.16472e-15
1.51614e-14
1.39734e-14
1.54178e-14
1.49331e-14
1.98928e-14
1.75788e-14
1.53815e-14
1.34742e-14
6.13713e-15
1.10106e-14
1.26974e-14
1.31394e-14
1.32499e-14
1.20248e-14
1.38541e-14
9.28341e-15
5.60679e-15
1.04555e-14
8.43499e-15
6.99356e-15
4.45587e-15
1.28584e-14
1.40481e-14
1.06937e-14
1.36093e-14
1.77601e-14
1.29573e-14
9.37689e-15
9.81879e-15
1.22091e-14
4.01594e-15
1.15761e-14
6.55257e-15
9.49507e-15
8.18217e-15
9.83842e-15
7.34534e-15
1.35171e-14
8.60717e-15
1.47391e-14
1.02785e-14
1.27028e-14
8.87027e-15
6.53889e-15
9.46715e-15
1.45151e-14
7.73301e-15
1.34628e-14
1.41007e-14
8.09115e-15
6.61162e-15
1.66092e-14
6.92027e-15
1.93052e-14
1.48548e-14
1.60638e-14
1.51675e-14
1.60221e-14
1.29689e-14
1.39489e-14
1.14873e-14
1.36791e-14
1.28442e-14
1.32356e-14
8.20666e-15
1.08128e-14
1.00885e-14
1.31947e-14
1.19506e-14
1.09905e-14
1.10277e-14
1.53593e-14
1.70444e-14
1.37909e-14
1.72339e-14
2.55918e-14
2.08698e-14
8.37628e-15
1.11056e-14
1.45722e-14
1.16088e-14
5.29642e-15
9.66408e-15
1.08618e-14
7.65696e-15
8.25224e-15
1.2167e-14
1.67422e-14
1.53167e-14
1.01281e-14
1.03147e-14
1.39101e-14
1.28759e-14
3.92711e-15
5.93218e-15
6.71812e-15
6.18757e-15
6.63143e-15
8.69693e-15
2.0339e-14
1.17949e-14
1.24485e-14
1.33791e-14
2.07783e-14
2.51168e-14
2.11301e-14
1.91056e-14
2.17036e-14
1.0036e-14
1.08945e-14
1.24778e-14
1.22695e-14
1.57383e-14
1.35299e-14
1.2043e-14
8.44646e-15
1.45947e-14
9.59228e-15
1.25527e-14
4.8544e-15
1.13752e-14
1.11138e-14
1.29838e-14
1.39056e-14
1.32012e-14
1.75019e-14
1.44098e-14
9.11693e-15
4.91597e-15
1.04224e-14
1.64387e-14
6.24402e-15
7.52147e-15
3.8962e-15
1.00357e-14
9.97698e-15
1.58919e-14
1.69755e-14
1.22552e-14
1.2381e-14
1.53958e-14
1.28496e-14
1.07187e-14
9.32379e-15
1.39262e-14
1.39386e-14
8.38792e-15
1.14414e-14
1.82569e-14
1.17658e-14
5.97094e-15
6.39448e-15
7.16949e-15
1.61349e-14
2.11675e-14
1.83501e-14
1.60973e-14
1.68485e-14
2.20139e-14
2.26016e-14
1.7963e-14
1.27414e-14
1.64391e-14
1.7624e-14
1.14445e-14
8.46377e-15
3.78203e-15
9.29485e-15
1.53075e-14
9.39297e-15
1.24678e-14
1.87666e-14
1.32372e-14
1.30687e-14
1.31876e-14
2.15421e-14
2.2288e-14
1.74704e-14
1.52068e-14
1.68016e-14
1.85769e-14
1.18498e-14
1.09247e-14
8.74558e-15
6.39938e-15
1.10123e-14
1.62827e-14
2.09623e-14
1.30357e-14
1.03608e-14
4.96726e-15
1.29316e-14
1.91024e-14
3.89e-15
1.36162e-14
1.30706e-14
1.73185e-14
1.0767e-14
1.51677e-14
1.37223e-14
8.70425e-15
1.29022e-14
1.75017e-14
2.20312e-14
2.13498e-14
2.37813e-14
1.61436e-14
1.62917e-14
1.72297e-14
1.44624e-14
1.28527e-14
1.05626e-14
8.79602e-15
1.7155e-14
8.16248e-15
1.21581e-14
1.25566e-14
1.22794e-14
6.06996e-15
1.42873e-14
1.6606e-14
1.53615e-14
1.39862e-14
1.37786e-14
2.03757e-14
1.15e-14
9.69646e-15
1.06565e-14
1.86109e-14
1.83354e-14
1.04146e-14
1.49923e-14
1.10629e-14
1.38801e-14
1.21149e-14
1.7458e-14
1.57241e-14
1.36768e-14
1.00094e-14
8.46417e-15
1.34342e-14
1.72395e-14
1.63363e-14
1.03528e-14
1.09627e-14
1.55353e-14
2.4247e-14
1.78332e-14
7.56484e-15
4.06993e-15
1.6943e-15
7.96443e-15
1.03476e-14
1.35482e-14
1.26622e-14
9.81488e-15
9.03137e-15
1.21679e-14
9.64423e-15
1.05073e-14
1.21891e-14
1.3992e-14
1.44922e-14
1.45336e-14
1.38974e-14
1.39136e-14
8.88177e-15
1.49248e-14
1.46171e-14
1.71412e-14
1.88192e-14
1.67487e-14
1.30364e-14
2.08065e-14
2.09467e-14
1.56547e-14
1.40828e-14
1.7699e-14
2.03493e-14
2.0893e-14
1.65729e-14
1.61412e-14
1.32659e-14
9.79067e-15
8.02742e-15
2.48315e-14
1.11762e-14
2.57165e-14
1.8087e-14
1.68044e-14
1.81065e-14
1.28705e-14
1.63624e-14
1.41167e-14
1.98402e-14
2.24776e-14
1.46217e-14
1.73335e-14
1.68465e-14
2.12577e-14
2.5989e-14
2.01193e-14
1.38238e-14
1.22705e-14
6.92916e-15
5.18234e-15
1.03711e-14
6.9059e-15
6.43987e-15
8.1495e-15
6.60408e-15
5.89318e-15
4.38862e-15
1.30557e-14
1.85474e-14
1.41604e-14
1.19747e-14
1.34876e-14
2.04807e-14
1.69511e-14
1.95977e-14
1.38947e-14
1.19263e-14
4.00372e-15
1.01003e-14
9.16417e-15
1.57376e-14
1.77187e-14
1.90129e-14
1.69379e-14
1.09388e-14
5.43179e-15
3.93737e-15
1.19103e-14
2.10246e-14
1.43992e-14
1.64128e-14
1.90243e-14
1.86882e-14
1.06422e-14
5.97452e-15
7.17584e-15
5.87755e-15
8.63184e-15
1.06679e-14
9.87578e-15
4.67234e-15
4.75929e-15
5.56616e-15
1.25986e-14
1.30314e-14
1.12414e-14
1.23476e-14
6.96805e-15
1.00124e-14
9.7179e-15
3.87297e-15
1.7586e-14
1.47517e-14
6.38641e-15
9.10992e-15
1.46942e-14
1.45122e-14
1.58186e-14
1.33484e-14
1.21853e-14
1.43759e-14
1.56466e-14
1.82952e-14
1.44082e-14
1.71365e-14
1.43966e-14
9.14979e-15
1.79701e-14
1.74908e-14
1.47151e-14
1.36024e-14
1.39689e-14
1.65738e-14
1.71815e-14
2.23681e-14
1.04776e-14
1.2511e-14
1.01636e-14
1.51564e-14
1.65752e-14
1.46369e-14
1.38935e-14
1.15353e-14
9.5342e-15
1.38018e-14
4.94403e-15
8.93489e-15
1.99249e-14
1.53144e-14
1.1582e-14
4.93714e-15
9.82972e-15
4.12436e-15
3.87153e-15
3.22574e-15
7.11645e-15
7.77109e-15
5.37525e-15
4.68853e-15
8.93341e-15
4.71137e-15
4.0907e-15
5.03234e-15
9.05402e-15
3.5115e-15
6.44e-15
5.04705e-15
6.46347e-15
3.00705e-15
3.15217e-15
1.77422e-15
4.77012e-15
1.34348e-14
1.68129e-14
1.66389e-14
1.15256e-14
7.81556e-15
4.32716e-15
7.2702e-15
3.40656e-15
8.75596e-15
1.65256e-14
7.48246e-15
9.08446e-15
1.53499e-14
8.37526e-15
3.2686e-15
3.33383e-15
5.21374e-15
3.44634e-15
4.67517e-15
9.62346e-15
3.24596e-15
3.79403e-15
4.3036e-15
5.53013e-15
9.72677e-15
9.58125e-15
9.59647e-15
9.3005e-15
1.11493e-14
1.07632e-14
4.65988e-15
5.67512e-15
8.45006e-15
9.51579e-15
4.29283e-15
4.43788e-15
8.56212e-15
1.20319e-14
6.98603e-15
8.58933e-15
1.09773e-14
6.94964e-15
8.09483e-15
8.87683e-15
1.31537e-14
1.25676e-14
3.71981e-15
9.26582e-15
1.17885e-14
1.30082e-14
1.32336e-14
1.13869e-14
9.82973e-15
1.1978e-14
1.07745e-14
8.52006e-15
2.81639e-15
1.76376e-15
3.86977e-15
1.00049e-14
7.98162e-15
5.54933e-15
5.29305e-15
3.81118e-15
6.86203e-15
7.2174e-15
6.49833e-15
4.48256e-15
1.43498e-14
1.53392e-14
1.28778e-14
8.8182e-15
7.04562e-15
1.16573e-14
8.15478e-15
1.3322e-14
9.34574e-15
8.29188e-15
8.58344e-15
9.15993e-15
8.07268e-15
1.21094e-14
1.76141e-14
1.47685e-14
9.76255e-15
9.74947e-15
8.62026e-15
8.81628e-15
7.70189e-15
5.07566e-15
3.26732e-15
1.06302e-14
9.85844e-15
8.03118e-15
6.21026e-15
1.24204e-14
8.05435e-15
5.23721e-15
5.98127e-15
1.05916e-14
1.69199e-14
1.56864e-14
7.08321e-15
1.26975e-14
1.39308e-14
6.43583e-15
3.87888e-15
5.63292e-15
4.36908e-15
1.26832e-14
1.20688e-14
1.14904e-14
8.92284e-15
5.17363e-15
5.58476e-15
3.84026e-15
3.55127e-15
7.45489e-15
9.35564e-15
1.18928e-14
1.56147e-14
1.62726e-14
1.24981e-14
3.62643e-15
9.50853e-15
8.46442e-15
5.42904e-15
5.6929e-15
8.0943e-15
1.2697e-14
1.1937e-14
8.52965e-15
9.30526e-15
6.20605e-15
7.43332e-15
1.18164e-14
1.92059e-14
1.3211e-14
9.8689e-15
9.73979e-15
1.23709e-14
2.06612e-14
1.45552e-14
1.20688e-14
8.97603e-15
7.48567e-15
9.03215e-15
1.19688e-14
6.69952e-15
8.85301e-15
9.74697e-15
9.69675e-15
1.12207e-14
9.26287e-15
1.17249e-14
1.07838e-14
4.58005e-15
1.34277e-14
9.49352e-15
7.97892e-15
8.12627e-15
1.16422e-14
1.15092e-14
5.73923e-15
3.72677e-15
4.5793e-15
7.80502e-15
2.71518e-15
6.32965e-15
1.28438e-14
7.48227e-15
1.00545e-14
1.41148e-14
2.03745e-14
1.75006e-14
1.59657e-14
1.14234e-14
6.71765e-15
7.00503e-15
3.7934e-15
4.56056e-15
2.94027e-15
5.15194e-15
9.67631e-15
5.4366e-15
9.16083e-15
4.63197e-15
1.1538e-14
5.53048e-15
4.32726e-15
6.18788e-15
4.46044e-15
6.81649e-15
8.91061e-15
5.30392e-15
7.81615e-15
9.4958e-15
1.07838e-15
8.05775e-15
6.87984e-15
1.11529e-14
7.7719e-15
4.95021e-15
4.98171e-15
1.09432e-14
6.36977e-15
7.4777e-15
9.51125e-15
6.70836e-15
1.07473e-14
1.1948e-14
1.28834e-14
1.57933e-14
1.16519e-14
1.42799e-14
1.13212e-14
3.35774e-15
1.26052e-14
5.66611e-15
1.09036e-15
2.80383e-15
5.00342e-15
5.30761e-15
5.6606e-15
6.21134e-15
3.86337e-15
6.99871e-15
1.26488e-14
1.54406e-14
9.58688e-15
6.85719e-15
3.66529e-15
9.72069e-15
1.61242e-14
8.67303e-15
4.363e-15
9.06265e-15
6.74634e-15
4.41031e-15
8.26097e-15
3.33597e-15
3.72286e-15
3.80002e-15
6.51325e-15
9.49427e-15
9.00825e-15
4.76423e-15
6.59306e-15
5.01639e-15
4.76222e-15
6.68374e-15
7.10167e-15
1.25116e-14
1.33632e-14
9.19341e-15
4.53254e-15
6.2285e-15
1.65619e-15
8.54419e-15
7.98027e-15
1.16651e-14
1.16497e-14
1.61721e-14
1.47347e-14
2.58326e-14
1.04374e-14
1.59131e-14
1.38736e-14
7.55721e-15
6.32826e-15
4.34915e-15
5.25616e-15
7.13486e-15
7.08752e-15
9.28415e-15
2.89735e-15
5.57284e-15
4.20261e-15
4.96662e-15
5.76834e-15
1.08676e-14
1.72818e-14
1.83335e-14
1.61619e-14
1.80087e-14
1.56456e-14
6.59802e-15
2.05113e-14
1.17894e-14
7.13943e-15
4.99603e-15
5.02369e-15
1.07148e-14
1.61127e-14
1.21459e-14
7.98326e-15
1.44752e-14
1.43768e-14
1.33576e-14
1.60056e-14
1.33918e-14
1.36489e-14
1.58366e-14
1.67017e-14
9.83817e-15
6.69312e-15
1.5139e-14
9.63717e-15
1.1449e-14
6.66317e-15
4.13399e-15
7.45595e-15
6.43544e-15
4.24433e-15
4.47475e-15
4.28425e-15
5.49434e-15
1.33017e-14
1.51682e-14
1.71319e-14
1.4685e-14
1.42805e-14
9.68162e-15
1.46011e-14
1.62437e-14
9.71002e-15
8.69099e-15
2.05479e-15
6.68616e-15
4.36583e-15
5.45425e-15
5.58502e-15
2.46531e-15
2.38601e-15
2.90505e-15
7.12309e-15
8.66828e-15
1.3987e-14
1.1847e-14
1.28081e-14
1.61444e-14
1.42863e-14
1.01806e-14
1.00526e-14
1.74092e-14
7.98405e-15
5.63329e-15
4.24975e-15
3.429e-15
7.91427e-15
8.86169e-15
1.22985e-14
1.28099e-14
1.17903e-14
1.18956e-14
2.70231e-14
2.23044e-14
1.33589e-14
1.44404e-14
1.82335e-14
1.14535e-14
8.37858e-15
1.10733e-14
9.10014e-15
1.78421e-14
9.44222e-15
7.18257e-15
8.19723e-15
7.96628e-15
4.45059e-15
1.18461e-14
1.28584e-14
1.14018e-14
7.01248e-15
1.31358e-14
1.55782e-14
1.22456e-14
1.15876e-14
1.40002e-14
7.78903e-15
1.35913e-14
4.90053e-15
1.56584e-14
7.48706e-15
1.76045e-14
1.90955e-14
6.4567e-15
1.72884e-14
2.39168e-14
1.07964e-14
1.74935e-14
1.2949e-14
1.38323e-14
1.25041e-14
1.92885e-14
1.55456e-14
9.89479e-15
1.14698e-14
1.20917e-14
9.7884e-15
7.71242e-15
1.14192e-14
7.98147e-15
8.52291e-15
9.5356e-15
7.01322e-15
4.37421e-15
1.48696e-14
1.99517e-14
1.02645e-14
1.47001e-14
1.43866e-14
9.08317e-15
1.1134e-14
9.33605e-15
1.91193e-14
2.17525e-14
5.18119e-15
1.12964e-14
4.22758e-15
3.969e-15
3.63586e-15
3.74311e-15
4.74323e-15
4.21689e-15
7.48409e-15
8.34603e-15
1.01377e-14
2.11272e-14
1.30128e-14
2.79411e-15
6.05697e-15
1.00764e-14
1.20624e-14
3.75128e-15
4.77107e-15
6.68007e-15
5.00856e-15
4.32546e-15
2.90863e-15
9.87829e-15
5.48027e-15
5.30181e-15
9.54345e-15
6.80249e-15
7.97455e-15
7.31627e-15
1.1496e-14
1.27007e-14
1.44802e-14
1.63512e-14
3.89515e-15
8.85465e-15
7.73852e-15
6.85997e-15
4.3855e-15
1.04353e-14
6.44947e-15
7.10053e-15
4.24992e-15
6.99656e-15
7.85064e-15
9.79911e-15
1.27652e-14
1.40494e-14
4.85021e-15
1.90197e-14
9.91341e-15
3.97831e-15
1.06947e-14
9.02486e-15
2.78284e-15
7.83649e-15
5.39345e-15
8.73004e-15
1.47614e-14
1.40774e-14
4.59871e-15
1.79002e-14
1.38926e-14
6.06721e-15
1.29443e-14
9.41704e-15
6.4102e-15
6.77542e-15
9.6151e-15
8.63621e-15
9.01878e-15
1.10562e-14
7.57601e-15
1.62441e-14
7.05951e-15
5.29624e-15
7.71742e-15
6.71297e-15
3.4022e-15
4.68198e-15
1.19556e-14
1.40976e-14
1.02896e-14
7.66696e-15
2.46356e-15
6.71403e-15
1.18186e-14
1.57567e-14
1.15125e-14
6.92511e-15
1.52398e-14
1.13015e-14
4.77616e-15
1.10679e-14
8.44302e-15
6.74825e-15
8.0936e-15
5.85638e-15
7.41704e-15
8.92368e-15
9.3748e-15
9.17427e-15
6.53315e-15
3.8642e-15
1.0098e-14
1.02012e-14
8.79435e-15
5.30767e-15
2.46871e-15
2.91771e-15
6.14456e-15
7.09608e-15
6.89346e-15
9.67248e-15
5.80696e-15
7.49763e-15
2.77146e-15
1.05456e-14
4.68896e-15
6.85546e-15
3.66499e-15
4.19545e-15
9.65372e-15
1.1442e-14
3.87907e-15
4.93249e-15
3.69649e-15
7.22116e-15
5.93741e-15
9.22252e-15
3.75938e-15
8.14182e-15
1.12895e-14
6.78188e-15
6.01921e-15
3.91784e-15
5.9769e-15
1.19082e-14
1.14861e-14
5.98496e-15
1.51575e-14
7.67451e-15
1.37711e-15
1.96888e-15
2.40238e-15
2.11246e-15
5.7456e-15
8.30231e-15
1.09819e-14
1.08475e-14
8.52079e-15
1.1086e-14
1.08324e-14
6.71436e-15
7.62039e-15
8.50818e-15
5.5907e-15
8.70657e-15
6.76408e-15
6.80684e-15
3.97444e-15
3.41512e-15
6.58405e-15
7.99913e-15
7.52457e-15
5.45183e-15
6.48759e-15
3.3124e-15
8.98518e-15
4.0722e-15
4.63346e-15
1.26122e-14
7.21203e-15
5.02153e-15
6.00549e-15
4.68708e-15
5.51363e-15
1.15487e-14
1.7427e-14
7.20419e-15
5.45417e-15
8.9189e-15
1.26552e-14
4.6359e-15
1.25169e-14
8.40348e-15
4.45962e-15
6.12092e-15
4.91726e-15
5.74187e-15
7.79052e-15
9.17132e-15
8.38442e-15
4.40464e-15
8.8996e-15
7.37577e-15
6.12565e-15
4.25339e-15
5.75263e-15
3.16869e-15
3.57677e-15
6.98126e-15
5.60164e-15
1.23537e-14
9.80646e-15
5.05027e-15
1.07137e-14
6.13637e-15
3.1098e-15
4.24609e-15
4.18196e-15
6.26858e-15
7.35471e-15
9.11786e-15
9.38474e-15
2.82276e-15
6.85971e-15
1.2395e-14
1.09739e-14
7.32596e-15
1.17124e-14
9.93921e-15
5.32222e-15
5.7541e-15
3.98488e-15
6.02128e-15
9.77865e-15
7.50569e-15
9.55054e-15
9.93947e-15
3.58965e-15
1.74084e-14
8.057e-15
2.16956e-15
1.06514e-15
4.64101e-15
5.92972e-15
3.9231e-15
3.18339e-15
5.28244e-15
5.93283e-15
1.02148e-14
9.60643e-15
3.22397e-15
7.32137e-15
4.27462e-15
5.95236e-15
4.32631e-15
3.97582e-15
6.2975e-15
5.72064e-15
5.96273e-15
9.04717e-15
7.87931e-15
8.26972e-15
5.66638e-15
5.85614e-15
7.80534e-15
7.91446e-15
4.60848e-15
1.81519e-15
3.67642e-15
9.11815e-15
1.41923e-14
7.25998e-15
2.60094e-15
5.08174e-15
3.89281e-15
1.26887e-14
1.14851e-14
3.70214e-15
3.73057e-15
3.85957e-15
5.40732e-15
6.6801e-15
7.7879e-15
1.20543e-14
6.47134e-15
4.10264e-15
4.99787e-15
7.79676e-15
5.58893e-15
3.15668e-15
2.27541e-15
7.79097e-15
1.13806e-14
8.21082e-15
8.70207e-15
7.80594e-15
7.25676e-15
2.83224e-15
5.76755e-15
8.42602e-15
8.61438e-15
6.99996e-15
8.93794e-15
1.09904e-14
4.8035e-15
1.18923e-14
9.27521e-15
6.59133e-15
7.83988e-15
2.191e-15
4.48446e-15
8.14138e-15
4.43843e-15
1.09515e-14
8.14882e-15
8.19373e-15
1.09692e-14
1.17218e-14
1.03726e-14
1.70615e-14
7.01344e-15
7.09223e-15
1.13003e-14
1.32758e-14
5.9043e-15
5.17103e-15
3.92023e-15
6.53768e-15
9.27258e-15
7.91471e-15
1.10204e-14
7.88784e-15
6.2325e-15
6.65789e-15
4.06284e-15
7.15322e-15
1.35033e-15
6.03304e-15
3.60636e-15
4.02138e-15
4.51353e-15
5.67069e-15
5.12404e-15
1.33025e-15
1.09128e-14
4.59153e-15
9.71875e-15
1.5804e-14
8.83902e-15
5.95447e-15
7.79321e-15
9.72657e-15
5.15174e-15
1.32101e-14
9.99924e-15
9.85688e-15
8.18027e-15
5.88986e-15
4.06877e-15
2.9157e-15
5.31213e-15
1.10391e-14
6.11338e-15
5.47556e-15
2.71558e-15
4.63558e-15
5.94842e-15
5.26341e-15
2.26811e-15
7.0021e-15
5.45485e-15
1.49365e-14
8.18344e-15
1.26882e-14
1.28461e-14
5.44889e-15
6.16303e-15
1.04656e-14
8.248e-15
1.12086e-14
8.70618e-15