/*--------------------------------*- C++ -*----------------------------------*\
| =========                 |                                                 |
| \\      /  F ield         | OpenFOAM: The Open Source CFD Toolbox           |
|  \\    /   O peration     | Version:  2406                                  |
|   \\  /    A nd           | Website:  www.openfoam.com                      |
|    \\/     M anipulation  |                                                 |
\*---------------------------------------------------------------------------*/
FoamFile
{
    version     2.0;
    format      ascii;
    arch        "LSB;label=32;scalar=64";
    class       volVectorField;
    location    "0.01";
    object      U;
}
// * * * * * * * * * * * * * * * * * * * * * * * * * * * * * * * * * * * * * //

dimensions      [0 1 -1 0 0 0 0];

internalField   nonuniform List<vector> 
13818
(
(2.31383e-12 7.51702e-13 -1.05025e-11)
(1.06893e-12 1.72565e-12 -1.03072e-11)
(-8.85789e-14 3.81115e-12 -6.04239e-12)
(-7.88726e-13 3.71689e-12 -9.01786e-12)
(1.2323e-12 4.19336e-12 -1.07237e-11)
(1.3819e-12 3.21108e-12 -3.99081e-12)
(-1.67136e-12 2.0808e-12 1.27459e-12)
(-2.20818e-12 -3.6702e-13 1.89632e-12)
(-1.08954e-12 -8.33665e-13 3.03766e-12)
(-3.47004e-13 1.6134e-12 4.18e-12)
(-6.33631e-13 3.96789e-12 4.24446e-12)
(-1.60741e-12 6.20428e-12 5.8112e-12)
(-2.62833e-13 4.02451e-12 5.08845e-12)
(-6.70317e-13 3.63424e-12 6.99873e-12)
(-1.79056e-12 7.75809e-13 -1.45264e-12)
(7.36691e-13 1.31917e-12 -1.34758e-11)
(8.57741e-13 1.36747e-12 -1.9223e-11)
(1.1972e-12 4.57027e-12 -1.73272e-11)
(3.28294e-12 5.32702e-12 -1.19341e-11)
(2.7541e-12 4.0999e-12 -1.10042e-11)
(1.74151e-12 5.26328e-12 -1.28249e-11)
(2.27533e-12 6.25007e-12 -1.09303e-11)
(1.11143e-12 5.59168e-12 -8.92758e-12)
(-4.28833e-13 3.68904e-12 -9.33786e-12)
(4.11372e-13 2.814e-12 -9.07124e-12)
(7.43532e-13 1.68782e-12 -1.08071e-11)
(-3.72928e-13 2.95388e-12 -7.63835e-12)
(-2.00999e-12 2.3589e-12 -5.10272e-12)
(-1.16952e-12 1.8807e-13 -3.18197e-12)
(-7.49484e-13 4.29407e-13 -3.1344e-12)
(-2.09204e-12 2.13537e-12 -2.48654e-12)
(-2.16713e-12 1.12233e-12 -5.86233e-12)
(-1.74522e-12 -1.38363e-13 -6.12985e-12)
(-1.82921e-12 2.24519e-12 -8.53331e-12)
(-9.37881e-13 1.967e-12 -7.44351e-12)
(7.01715e-13 3.50238e-12 -9.56544e-12)
(6.25593e-13 6.56196e-13 -8.43259e-12)
(-5.38409e-13 -8.53289e-13 -6.61884e-12)
(2.62184e-13 -1.77139e-12 -4.7289e-12)
(-1.28049e-13 -1.04856e-12 -2.73531e-12)
(1.07733e-12 2.13104e-12 -4.78244e-12)
(1.00443e-12 4.87696e-12 -9.04591e-12)
(-1.57959e-12 3.87096e-12 -1.22051e-11)
(-7.61049e-13 2.39392e-12 -1.08132e-11)
(-1.99263e-12 3.24181e-12 -1.00512e-11)
(-1.73004e-13 3.7672e-12 -1.24733e-11)
(1.76791e-12 5.9224e-12 -1.82608e-11)
(2.92681e-12 2.89263e-12 -1.59017e-11)
(3.65987e-12 2.84242e-12 -5.85835e-12)
(6.60245e-13 1.07317e-12 -3.28299e-12)
(4.21319e-13 6.49452e-13 -2.29036e-12)
(8.69387e-13 2.52819e-12 -2.25268e-12)
(-3.58159e-13 1.09143e-12 -3.8979e-12)
(-7.76244e-13 5.89208e-13 -6.93274e-12)
(-1.3464e-13 7.32578e-13 -5.37699e-12)
(-1.01719e-12 1.10591e-12 -5.57941e-12)
(-5.35929e-14 6.64115e-13 -1.81307e-12)
(2.08306e-13 -4.98243e-13 2.91459e-12)
(1.76724e-13 -2.4015e-13 5.05769e-13)
(-9.82621e-13 1.96307e-12 5.42774e-12)
(-1.64872e-12 2.35245e-12 3.74408e-12)
(-1.51261e-12 -1.2881e-12 1.99282e-12)
(-1.60915e-12 4.50612e-13 -1.95021e-12)
(1.73052e-12 9.53962e-13 -6.88439e-12)
(2.21996e-12 1.7252e-12 -8.95246e-12)
(1.18971e-12 9.48307e-14 -9.37892e-12)
(-6.18074e-13 1.29455e-12 -1.13664e-11)
(-5.9131e-14 2.26295e-12 -1.53675e-11)
(2.32312e-14 1.69962e-12 -1.47806e-11)
(7.42714e-13 1.39937e-12 -1.99226e-11)
(2.24106e-12 3.99248e-12 -2.20579e-11)
(2.22032e-12 3.3599e-12 -1.94527e-11)
(7.65351e-14 1.19025e-12 -1.19395e-11)
(-1.91033e-12 -1.05764e-12 -1.40974e-11)
(-8.91352e-13 -1.19093e-13 -1.42938e-11)
(8.52314e-13 1.87557e-13 -1.77077e-11)
(5.31848e-13 3.33846e-12 -1.67037e-11)
(6.36769e-13 6.70703e-12 -1.60072e-11)
(1.6561e-12 4.38276e-12 -1.03192e-11)
(-1.44181e-12 2.82494e-12 -3.10744e-12)
(-3.13748e-12 3.80837e-12 1.1587e-12)
(-2.44757e-12 5.63748e-13 -2.7026e-12)
(9.59181e-13 -6.1654e-13 -4.75314e-12)
(2.74184e-12 1.50037e-12 -6.01958e-12)
(2.68138e-12 -1.63509e-13 -9.59629e-12)
(2.19238e-12 -1.04738e-12 -1.09271e-11)
(2.76653e-12 6.32327e-13 -9.78661e-12)
(1.97447e-12 -7.65182e-14 -2.76499e-12)
(-1.65347e-12 9.83638e-13 7.33324e-13)
(-2.25005e-12 1.5014e-12 2.15634e-12)
(-2.04074e-12 -8.59784e-13 -1.44675e-12)
(-2.47389e-12 -2.41062e-12 -2.79259e-13)
(-2.86429e-12 2.07121e-13 -3.59852e-13)
(-7.67374e-13 2.72288e-12 -1.2915e-12)
(8.95847e-13 2.30633e-12 -3.14236e-12)
(1.2285e-13 3.31898e-12 -5.18033e-12)
(1.1938e-12 2.77357e-12 -5.94768e-12)
(1.28955e-12 2.37245e-12 -9.99683e-12)
(1.70043e-13 -5.17814e-13 -9.54572e-12)
(6.0594e-13 2.67217e-13 -1.02279e-11)
(-2.46398e-13 1.9599e-12 -9.69731e-12)
(-6.98468e-13 2.0643e-12 -1.60903e-11)
(2.65532e-14 2.18192e-12 -1.41024e-11)
(-7.35838e-13 6.89542e-13 -1.73954e-11)
(1.22816e-12 1.78935e-12 -2.07103e-11)
(1.37967e-12 2.53198e-12 -1.62115e-11)
(3.73458e-12 -9.36207e-13 -4.21192e-12)
(-1.34586e-13 -5.41852e-13 -5.79242e-12)
(-5.51298e-13 1.52003e-12 -4.23318e-12)
(-5.41516e-13 1.987e-13 -6.49914e-12)
(4.84735e-13 4.04949e-13 -8.61388e-12)
(1.15117e-12 1.77117e-12 -2.03669e-12)
(-9.08742e-13 3.2076e-12 4.71229e-12)
(-1.30379e-12 2.39791e-12 2.64952e-12)
(-8.54979e-13 2.20037e-12 3.42018e-12)
(-9.95701e-13 1.67676e-12 3.165e-12)
(-1.79277e-12 2.60168e-12 3.43756e-12)
(-7.02064e-13 2.48174e-12 4.01634e-12)
(2.25315e-13 -9.67822e-14 3.14005e-12)
(-4.70075e-13 1.44228e-12 6.46156e-12)
(-1.04605e-12 1.10205e-13 -1.11986e-12)
(-1.03007e-12 -3.03155e-13 -1.43949e-11)
(4.40231e-13 2.00988e-12 -2.14486e-11)
(1.08199e-12 2.65755e-12 -1.90483e-11)
(4.00792e-12 2.9272e-12 -1.26646e-11)
(3.11714e-12 9.83993e-13 -1.1568e-11)
(5.83831e-13 7.51998e-13 -1.42145e-11)
(1.22116e-12 2.9931e-12 -1.22949e-11)
(7.04989e-13 3.65377e-12 -9.5922e-12)
(7.9083e-13 3.8169e-12 -1.07222e-11)
(2.16487e-12 1.46194e-12 -9.10899e-12)
(-2.31158e-13 8.08377e-13 -7.46734e-12)
(-1.03061e-12 2.49815e-12 -6.28707e-12)
(5.45018e-13 8.87724e-13 -6.72264e-12)
(-6.22394e-13 -4.70099e-13 -3.95591e-12)
(-2.79368e-12 9.35403e-13 -3.24164e-12)
(-2.39203e-12 1.66705e-12 -4.0225e-12)
(-1.02816e-14 1.61725e-13 -6.19509e-12)
(-2.42651e-12 -1.46264e-12 -6.69898e-12)
(-3.32366e-12 -1.90239e-12 -1.05563e-11)
(-1.9197e-12 -3.34661e-13 -6.41074e-12)
(7.99593e-13 5.32809e-13 -6.13358e-12)
(1.1556e-12 -6.2419e-13 -4.26992e-12)
(5.06068e-14 -3.21785e-12 -4.97406e-12)
(5.65091e-13 -4.67885e-12 -6.84422e-12)
(-2.52883e-13 -4.28917e-12 -4.97428e-12)
(-2.85194e-13 -2.05648e-12 -5.46716e-12)
(1.84448e-13 2.38659e-12 -1.0153e-11)
(-9.84582e-13 1.90371e-12 -1.13066e-11)
(-1.89937e-12 2.30687e-12 -1.18307e-11)
(-2.30138e-12 2.74311e-12 -1.08855e-11)
(-3.52884e-13 1.08012e-12 -1.31461e-11)
(1.04777e-12 2.53886e-12 -2.06449e-11)
(4.16794e-12 1.83707e-12 -1.88058e-11)
(4.89455e-12 2.73196e-12 -9.28004e-12)
(1.61157e-12 -1.11241e-12 -3.80799e-12)
(-5.28333e-13 -1.18621e-13 -2.34845e-12)
(6.58613e-13 1.66289e-13 -1.71144e-12)
(1.85094e-13 3.44814e-14 -1.3764e-12)
(-3.17861e-13 -2.4861e-12 -3.76347e-12)
(1.69296e-13 -2.40114e-12 -4.47821e-12)
(-1.67877e-12 -2.0015e-12 -5.11128e-12)
(-2.75081e-13 -1.01992e-14 -1.67747e-12)
(1.26746e-12 2.30872e-13 1.93171e-12)
(-2.95389e-13 7.26237e-14 2.58345e-12)
(-2.0574e-12 1.37075e-12 4.09977e-12)
(-5.17726e-13 -1.64091e-13 4.07065e-12)
(-4.03405e-13 -1.01359e-12 1.34019e-12)
(-2.84902e-12 -4.04354e-12 -4.70365e-12)
(3.66918e-13 -3.8222e-12 -1.23934e-11)
(2.3921e-12 -1.87334e-12 -1.02571e-11)
(1.81953e-12 -2.40444e-12 -9.78644e-12)
(-1.37547e-12 -1.09028e-12 -1.21421e-11)
(-5.33327e-13 -3.01364e-12 -1.77624e-11)
(8.59706e-14 -2.25964e-12 -1.5506e-11)
(2.74008e-13 -3.83012e-12 -2.37229e-11)
(1.53412e-12 -1.41128e-12 -2.67476e-11)
(2.78999e-12 7.92808e-13 -2.07017e-11)
(1.33197e-12 2.37063e-12 -9.84955e-12)
(-1.60644e-12 -9.7935e-13 -1.20067e-11)
(-2.74957e-12 -1.82518e-12 -1.64559e-11)
(-9.52671e-13 5.07215e-13 -1.86213e-11)
(-1.50461e-12 2.23822e-12 -2.29433e-11)
(1.49992e-12 3.36624e-12 -2.21619e-11)
(3.73296e-12 2.95416e-12 -1.38482e-11)
(-1.5357e-12 2.90752e-12 -5.54092e-12)
(-2.42811e-12 2.0989e-12 -3.16653e-12)
(-5.73916e-13 -8.0045e-13 -7.08768e-12)
(5.42506e-13 -1.03242e-12 -6.94726e-12)
(1.55708e-12 -1.38936e-12 -6.67069e-12)
(2.82624e-12 -1.06106e-12 -1.06455e-11)
(2.70666e-12 -3.1574e-12 -9.15407e-12)
(2.85305e-12 -2.93377e-12 -9.66795e-12)
(8.46519e-13 -1.47618e-12 -2.28251e-12)
(-2.18237e-12 8.51595e-13 8.39982e-13)
(-3.63181e-13 -7.06906e-13 1.5483e-12)
(-5.50313e-13 -1.6165e-12 6.33709e-13)
(-3.76307e-12 -2.10999e-12 1.07529e-12)
(-5.60202e-12 5.18977e-14 6.46119e-13)
(-1.18712e-12 6.80121e-13 -2.73016e-13)
(-5.52053e-15 3.91064e-12 -1.81111e-12)
(7.02323e-14 3.37211e-12 -6.36918e-12)
(1.79168e-12 1.97185e-12 -2.00184e-12)
(2.89486e-12 2.34227e-12 -7.07199e-12)
(6.96159e-13 -8.57216e-13 -1.12566e-11)
(-1.08633e-12 -1.75105e-12 -1.35629e-11)
(-1.19944e-12 1.2966e-12 -1.1229e-11)
(-3.97342e-13 -7.95804e-13 -1.66442e-11)
(1.21251e-12 -1.56701e-12 -1.29356e-11)
(-2.72676e-13 -2.90103e-12 -1.75675e-11)
(-6.67741e-13 -1.74463e-12 -2.02728e-11)
(9.6761e-13 1.70925e-12 -1.32781e-11)
(4.14003e-12 4.20698e-12 -2.37434e-12)
(2.17993e-13 3.37096e-12 -2.806e-12)
(-5.35192e-13 3.50057e-12 -1.23457e-12)
(1.97153e-13 3.71366e-12 -2.97944e-12)
(2.18523e-13 3.78171e-12 -3.31451e-12)
(-7.22228e-13 3.68921e-12 3.602e-13)
(-1.64782e-12 5.13367e-12 4.47658e-12)
(-1.45884e-12 5.11982e-12 2.90351e-12)
(-3.19316e-13 6.29673e-12 5.05846e-12)
(-5.83105e-13 4.97048e-12 3.29931e-12)
(-1.35269e-12 3.02425e-12 3.16469e-12)
(4.43883e-13 2.41374e-12 3.02467e-12)
(2.59121e-13 1.84646e-12 3.98297e-12)
(-1.27362e-12 1.44146e-12 6.02438e-12)
(-5.39234e-13 1.05118e-12 -5.86602e-14)
(-1.07305e-12 1.58478e-12 -1.04278e-11)
(-1.05605e-12 2.76765e-12 -1.6836e-11)
(1.13886e-12 2.13669e-12 -1.40101e-11)
(4.85637e-12 1.6253e-12 -1.10674e-11)
(4.19715e-12 3.73725e-12 -1.00282e-11)
(1.02916e-12 3.6207e-12 -9.83254e-12)
(4.03825e-13 5.71437e-12 -8.84044e-12)
(-1.80079e-13 4.89853e-12 -7.35026e-12)
(9.47355e-13 5.05981e-12 -6.95452e-12)
(1.83179e-12 5.0754e-12 -5.89433e-12)
(-8.50767e-14 5.98924e-12 -5.08957e-12)
(-2.95378e-13 4.37259e-12 -3.43637e-12)
(5.15787e-13 5.29355e-12 -4.57522e-12)
(-1.16992e-12 4.49656e-12 -2.98958e-12)
(-2.69355e-12 3.61812e-12 -2.38928e-12)
(-1.65608e-12 1.7951e-12 -2.24179e-12)
(-2.99377e-13 2.09957e-12 -3.78869e-12)
(-9.54152e-13 2.9554e-12 -4.61402e-12)
(-2.83899e-12 1.85176e-12 -4.9261e-12)
(-2.34026e-12 3.42369e-12 -2.91496e-12)
(9.92221e-13 1.68836e-12 -3.44373e-12)
(2.82877e-12 1.40583e-12 -1.49505e-12)
(2.27022e-12 -6.18422e-13 -3.08625e-12)
(3.4503e-13 -1.34576e-12 -4.24342e-12)
(-1.7198e-12 -3.59721e-13 -4.00116e-12)
(-2.53487e-12 6.29581e-13 -5.74976e-12)
(-9.29217e-13 3.45165e-12 -1.14842e-11)
(-5.018e-13 2.82288e-12 -1.17601e-11)
(-1.35999e-12 2.09722e-12 -1.24487e-11)
(-1.57511e-12 1.70822e-12 -1.03793e-11)
(-4.12093e-13 2.64343e-12 -1.028e-11)
(9.21574e-13 2.25524e-12 -1.40248e-11)
(3.22078e-12 3.38268e-12 -1.18793e-11)
(5.42562e-12 3.0301e-12 -8.04986e-12)
(2.46647e-12 2.44117e-12 -3.45278e-12)
(-3.76278e-13 1.37741e-12 -6.15473e-13)
(3.68276e-13 7.91855e-13 -1.2594e-12)
(1.26016e-12 1.85101e-12 -8.63157e-13)
(8.87918e-13 9.01267e-13 -2.51007e-12)
(-4.43082e-13 2.27075e-12 -3.19414e-12)
(-2.23746e-12 2.15109e-12 -2.97591e-12)
(-1.1064e-12 1.17566e-12 -5.27597e-13)
(6.2878e-13 3.19819e-12 3.16018e-12)
(-5.39703e-13 4.8009e-12 3.06903e-12)
(-8.34051e-13 2.4584e-12 3.98373e-12)
(3.35437e-13 -3.60953e-14 5.3126e-12)
(-5.91971e-13 2.81567e-12 1.9254e-12)
(-1.19794e-12 7.06665e-13 -3.70613e-12)
(2.02462e-13 -8.55435e-13 -7.95726e-12)
(1.18459e-12 -1.00468e-12 -8.19311e-12)
(-6.34695e-14 4.21117e-13 -8.32434e-12)
(-2.79466e-13 1.2279e-12 -9.46375e-12)
(4.82625e-13 -5.92693e-13 -1.09974e-11)
(4.89284e-13 -1.63264e-12 -1.02829e-11)
(1.0118e-13 -2.28129e-12 -1.52717e-11)
(-5.31073e-13 -1.38169e-12 -1.79727e-11)
(5.97265e-13 1.38288e-12 -1.63972e-11)
(1.12834e-12 3.61522e-12 -1.0906e-11)
(-2.58035e-13 4.09064e-12 -1.16424e-11)
(-2.53883e-12 1.99885e-12 -1.31585e-11)
(-1.81054e-12 2.74906e-12 -1.47479e-11)
(-9.3099e-13 2.64616e-12 -1.62438e-11)
(7.36319e-13 4.85865e-12 -1.57898e-11)
(2.69251e-12 5.82054e-12 -1.09141e-11)
(-8.52952e-13 6.52609e-12 -4.94814e-12)
(-7.93979e-13 2.04247e-12 -1.84236e-12)
(9.08588e-14 1.03718e-12 -4.79788e-12)
(7.47339e-13 6.57915e-13 -6.87665e-12)
(1.97591e-12 7.57556e-13 -4.8438e-12)
(3.22208e-12 8.74044e-13 -6.86253e-12)
(3.709e-12 4.68993e-13 -6.71756e-12)
(1.91395e-12 8.83902e-13 -5.87232e-12)
(-4.47712e-13 3.19407e-12 -2.09673e-12)
(-9.5021e-13 2.23577e-12 1.71682e-12)
(8.03058e-14 1.38489e-12 1.9456e-12)
(-1.28132e-12 3.37765e-12 1.77176e-12)
(-4.40667e-12 3.76544e-12 2.08061e-12)
(-5.73308e-12 2.62231e-12 2.17394e-12)
(-2.65111e-12 3.70102e-12 4.49156e-13)
(-3.91832e-13 8.01169e-12 -3.49182e-14)
(1.41351e-12 5.08324e-12 -2.37811e-12)
(1.84216e-12 4.50954e-12 -8.82919e-13)
(3.00137e-12 6.34001e-12 -4.87397e-12)
(2.46045e-12 3.79576e-12 -7.96186e-12)
(-1.44635e-12 1.95482e-12 -8.74085e-12)
(-1.43712e-12 9.31983e-14 -9.20233e-12)
(1.37936e-12 -1.37539e-12 -9.96575e-12)
(1.8608e-12 -2.57731e-12 -7.41918e-12)
(3.48761e-13 -3.32886e-13 -9.84822e-12)
(-1.81908e-12 1.85313e-12 -1.00614e-11)
(-2.32309e-12 3.71646e-12 -5.99021e-12)
(1.82526e-12 5.32604e-12 2.37582e-12)
(-1.28791e-12 4.86285e-12 1.02223e-12)
(-1.88121e-12 3.68379e-12 1.11028e-12)
(-8.66891e-13 4.96371e-12 1.48401e-12)
(4.50824e-13 5.57377e-12 2.0461e-12)
(-4.6934e-14 5.60271e-12 2.60957e-12)
(-1.41766e-12 4.68625e-12 3.37336e-12)
(-2.34833e-12 4.34032e-12 3.48238e-12)
(-9.7592e-13 4.97128e-12 4.11213e-12)
(1.37171e-12 6.00598e-12 3.17742e-12)
(1.35243e-13 3.54735e-12 4.08511e-12)
(2.69464e-13 2.70747e-12 3.22455e-12)
(6.9776e-13 2.69995e-12 4.16979e-12)
(-3.56446e-13 1.12333e-12 4.27094e-12)
(-1.27709e-12 6.8093e-13 1.4964e-12)
(-2.20235e-12 2.51424e-12 -5.22015e-12)
(3.3583e-13 9.80067e-13 -8.73896e-12)
(2.34624e-12 -5.8437e-14 -8.55737e-12)
(2.78876e-12 1.05997e-12 -9.00871e-12)
(1.82868e-12 5.68319e-12 -7.56761e-12)
(-1.05824e-12 6.5716e-12 -6.96012e-12)
(-4.66443e-14 7.5006e-12 -6.22405e-12)
(1.26633e-12 6.50919e-12 -4.49355e-12)
(1.0277e-12 6.18303e-12 -2.78509e-12)
(1.68891e-12 8.15921e-12 -2.99012e-12)
(2.64904e-13 8.32109e-12 -3.00603e-12)
(-1.13962e-12 5.8714e-12 -3.43078e-12)
(3.28954e-14 6.32068e-12 -1.79686e-12)
(7.30127e-13 6.13563e-12 -9.88338e-13)
(-8.78418e-13 4.13884e-12 -3.16848e-13)
(-1.48383e-12 4.37753e-12 5.56675e-13)
(-9.74345e-13 4.92078e-12 -9.25268e-13)
(-1.83789e-12 6.76428e-12 -2.51764e-12)
(-4.36629e-12 6.5184e-12 -2.95805e-12)
(-1.43437e-12 5.00768e-12 -2.94313e-12)
(2.67907e-12 4.08747e-12 -3.79211e-12)
(2.20766e-12 4.54399e-12 -2.82685e-12)
(1.8226e-12 5.32752e-12 -2.76237e-12)
(6.61186e-13 4.7165e-12 -2.92643e-12)
(-1.17816e-12 5.51504e-12 -3.21446e-12)
(-3.28826e-12 4.1905e-12 -5.61206e-12)
(-1.83195e-12 3.46303e-12 -1.0583e-11)
(6.96056e-13 4.20431e-12 -1.11222e-11)
(-4.63267e-13 2.9616e-12 -9.79772e-12)
(-2.57521e-12 2.23383e-12 -8.05992e-12)
(-1.38547e-12 1.57314e-12 -7.868e-12)
(9.66153e-13 5.09138e-13 -8.98e-12)
(3.47363e-12 1.75216e-12 -7.54005e-12)
(4.98077e-12 3.59137e-12 -6.99044e-12)
(2.56437e-12 5.29544e-12 -3.83624e-12)
(7.12796e-13 4.06784e-12 -2.42364e-12)
(4.90485e-13 3.34742e-12 -3.18035e-12)
(5.99795e-13 3.78686e-12 -4.41267e-12)
(3.70291e-13 5.75713e-12 -3.18362e-12)
(-6.02574e-13 7.05702e-12 -2.63939e-12)
(-1.26109e-12 6.71158e-12 -1.92634e-12)
(-6.83595e-13 4.77308e-12 -6.51634e-13)
(-1.67164e-12 4.78653e-12 2.14058e-12)
(2.82801e-13 5.3848e-12 3.89892e-12)
(1.79385e-12 3.14071e-12 4.68471e-12)
(-4.42753e-13 2.98304e-12 5.91288e-12)
(-2.2906e-12 2.88711e-12 2.89966e-12)
(4.75162e-13 2.59169e-12 -9.5823e-13)
(2.80228e-12 2.9696e-12 -4.35795e-12)
(1.79585e-12 3.10983e-12 -6.42561e-12)
(-2.51302e-13 4.07465e-12 -3.24419e-12)
(-5.7432e-13 2.7397e-12 -1.81122e-12)
(8.07615e-13 4.1773e-12 -2.11142e-12)
(1.1704e-12 4.412e-12 -5.57673e-12)
(1.0368e-12 5.87397e-12 -8.05889e-12)
(2.45473e-13 4.28905e-12 -9.48853e-12)
(-4.98993e-13 4.293e-12 -9.99053e-12)
(-4.19176e-13 5.096e-12 -8.75589e-12)
(-7.48852e-13 6.52019e-12 -8.96069e-12)
(-1.13056e-12 6.49757e-12 -9.33696e-12)
(-1.03745e-12 4.92276e-12 -9.52935e-12)
(-2.19752e-12 4.94598e-12 -9.95052e-12)
(-1.2714e-12 4.12904e-12 -1.00415e-11)
(4.39151e-13 5.6171e-12 -8.40047e-12)
(1.13809e-12 5.19731e-12 -3.9641e-12)
(1.83808e-12 2.97774e-12 -1.49439e-12)
(5.90282e-13 3.19726e-12 -3.18492e-12)
(3.97157e-13 1.73541e-12 -4.68378e-12)
(1.09294e-12 1.09208e-12 -4.26759e-12)
(2.82052e-12 1.1924e-12 -4.51877e-12)
(2.81087e-12 3.46694e-12 -4.82761e-12)
(8.23303e-13 5.0986e-12 -4.00306e-12)
(-2.73444e-13 6.18161e-12 -2.0161e-12)
(-2.96887e-13 3.7461e-12 -6.19098e-13)
(-2.0364e-13 4.04415e-12 2.52874e-12)
(-1.85586e-12 5.60413e-12 2.99519e-12)
(-3.91281e-12 5.63827e-12 3.55008e-12)
(-5.42049e-12 5.64875e-12 2.50631e-12)
(-4.86837e-12 4.59561e-12 -7.22936e-13)
(-5.66059e-13 6.1184e-12 -1.75059e-12)
(3.34488e-12 6.14415e-12 -1.5061e-12)
(1.7433e-12 6.198e-12 -3.11402e-15)
(2.61952e-12 6.40642e-12 -2.36606e-12)
(4.03077e-12 6.03759e-12 -4.2086e-12)
(1.44674e-12 5.86016e-12 -5.22755e-12)
(2.01598e-13 2.62738e-12 -5.42373e-12)
(1.57266e-12 6.81831e-13 -3.86697e-12)
(4.12082e-13 1.81916e-12 -3.8417e-12)
(-2.74837e-12 3.48763e-12 -3.94666e-12)
(-2.77859e-12 4.39376e-12 -2.12661e-12)
(-7.21162e-13 3.88394e-12 4.22559e-12)
(-1.6608e-12 4.75316e-12 3.31984e-12)
(-1.77712e-12 3.81283e-12 2.64738e-12)
(-1.03338e-12 3.41894e-12 4.13915e-12)
(-2.82013e-13 3.67858e-12 4.86352e-12)
(-4.16736e-13 4.30444e-12 4.69275e-12)
(-9.27715e-13 3.52562e-12 3.82157e-12)
(-1.52495e-12 3.33231e-12 4.66282e-12)
(-1.6415e-12 2.66567e-12 4.69029e-12)
(3.52864e-13 3.07774e-12 2.91155e-12)
(1.49641e-12 3.18886e-12 2.57839e-12)
(1.29333e-12 1.74041e-12 2.68798e-12)
(1.30173e-12 1.67006e-12 3.98661e-12)
(-3.4666e-13 1.81365e-13 5.12029e-12)
(-1.67865e-12 9.74454e-13 1.71544e-12)
(-1.12949e-12 6.06184e-13 -2.08458e-12)
(-1.90365e-13 -1.22834e-12 -1.97598e-12)
(1.07053e-12 -9.70777e-13 -2.90773e-12)
(8.58748e-13 2.37425e-12 -4.82784e-12)
(3.2099e-13 5.86278e-12 -4.85782e-12)
(-4.98058e-13 6.32869e-12 -5.32638e-12)
(-7.59644e-15 5.63833e-12 -5.81477e-12)
(8.72049e-13 6.28145e-12 -3.21788e-12)
(-1.91651e-13 6.03951e-12 -4.85526e-13)
(5.58218e-13 6.785e-12 -1.13995e-12)
(1.67155e-12 6.7316e-12 -8.15313e-13)
(7.01459e-13 5.73821e-12 5.59582e-14)
(-4.4284e-13 3.52145e-12 1.89664e-12)
(-2.79229e-13 4.09101e-12 1.11056e-12)
(-1.47797e-12 5.70255e-12 9.9689e-13)
(-2.2063e-12 5.99463e-12 -3.09671e-13)
(-2.07414e-12 6.14675e-12 -6.06624e-14)
(-2.11455e-12 7.81087e-12 -2.27858e-12)
(-2.64247e-12 6.71208e-12 -2.78677e-12)
(-8.62476e-13 4.5014e-12 -3.74852e-12)
(1.79694e-12 5.73783e-12 -4.13888e-12)
(1.72118e-12 6.97268e-12 -3.54633e-12)
(1.93152e-12 7.31836e-12 -3.134e-12)
(1.05154e-12 7.08976e-12 -2.84033e-12)
(-7.8059e-13 7.57279e-12 -2.17347e-12)
(-2.03446e-12 6.07952e-12 -4.15629e-12)
(-1.94177e-12 4.22289e-12 -8.09023e-12)
(-1.8139e-13 5.30389e-12 -9.92852e-12)
(2.62236e-13 4.98563e-12 -8.20352e-12)
(-8.86688e-13 3.98585e-12 -5.93793e-12)
(2.50571e-13 1.15371e-12 -4.79557e-12)
(8.94395e-13 -4.04018e-13 -4.50589e-12)
(1.15362e-12 6.45331e-14 -3.31025e-12)
(1.86303e-12 2.60858e-12 -4.92653e-12)
(1.52294e-12 4.84105e-12 -3.42124e-12)
(8.35009e-13 5.46932e-12 -3.91465e-12)
(7.32162e-13 5.28069e-12 -5.30463e-12)
(5.80973e-14 4.35277e-12 -6.06446e-12)
(-6.65633e-13 6.15633e-12 -3.69236e-12)
(-7.847e-13 6.14327e-12 -1.45534e-12)
(-5.572e-13 6.5308e-12 -9.55145e-13)
(1.74635e-13 6.09967e-12 -1.2717e-12)
(-4.65817e-13 5.39101e-12 2.32481e-12)
(4.74362e-13 2.93666e-12 5.22015e-12)
(1.35855e-12 3.8232e-12 6.25309e-12)
(7.34973e-13 4.48479e-12 6.26153e-12)
(2.00483e-13 1.61188e-12 5.26298e-12)
(-1.68826e-13 2.2197e-13 3.82012e-12)
(2.5528e-13 2.18842e-12 2.5446e-12)
(5.15288e-13 4.15691e-12 2.45579e-12)
(5.25126e-14 3.68543e-12 6.53859e-12)
(-7.63531e-13 2.34473e-12 8.49879e-12)
(-1.09023e-12 4.85308e-12 7.3367e-12)
(-1.10198e-12 6.40987e-12 1.60642e-12)
(5.4928e-13 7.63815e-12 -1.85882e-12)
(5.21751e-13 7.14968e-12 -5.61938e-12)
(-3.14401e-13 7.04087e-12 -8.02593e-12)
(-8.98698e-14 7.32526e-12 -6.5075e-12)
(-4.83606e-13 8.09498e-12 -5.98716e-12)
(-7.32601e-13 7.81894e-12 -4.74138e-12)
(-5.50458e-13 6.60236e-12 -5.17069e-12)
(-7.37868e-13 6.15346e-12 -7.11972e-12)
(-1.18723e-13 4.90863e-12 -6.96252e-12)
(6.79586e-13 5.54728e-12 -5.25002e-12)
(1.37017e-12 4.02207e-12 -2.64715e-12)
(1.19529e-12 3.93391e-12 -2.57524e-12)
(8.55301e-13 4.07854e-12 -3.02108e-12)
(1.4115e-12 2.97731e-12 -4.47507e-12)
(1.82987e-12 2.31244e-12 -3.97403e-12)
(1.70426e-12 2.38576e-12 -3.90708e-12)
(1.14425e-12 4.07738e-12 -4.62721e-12)
(-4.96176e-13 5.87821e-12 -4.04565e-12)
(-2.81958e-13 5.55825e-12 -2.32998e-12)
(9.15416e-13 3.96216e-12 6.39421e-13)
(-1.87273e-13 3.86845e-12 3.76913e-12)
(-2.62666e-12 4.55418e-12 4.30227e-12)
(-5.12896e-12 6.02249e-12 2.7917e-12)
(-5.30823e-12 6.76102e-12 4.23881e-13)
(-4.03577e-12 4.22483e-12 -2.07615e-12)
(-1.08205e-12 4.22091e-12 -4.07905e-12)
(2.54757e-12 5.18962e-12 -1.78229e-12)
(2.48684e-12 6.50675e-12 -8.59997e-14)
(3.21312e-12 4.0622e-12 -9.66099e-14)
(3.1469e-12 5.31615e-12 -2.04206e-12)
(7.72836e-13 5.4226e-12 -3.43356e-12)
(2.29492e-12 5.15792e-12 -3.87821e-12)
(2.45214e-12 3.14175e-12 -1.94084e-12)
(-1.40928e-15 4.50743e-12 -1.76317e-12)
(-1.99952e-12 4.21706e-12 -1.99361e-12)
(-2.39137e-12 2.95819e-12 -7.62063e-13)
(-3.40681e-12 5.83038e-13 7.00174e-12)
(-3.24855e-12 2.83616e-12 4.06334e-12)
(-9.22599e-13 1.36747e-12 2.12003e-12)
(-4.49911e-13 7.53813e-14 1.59304e-12)
(-2.79298e-13 7.67889e-14 2.36034e-12)
(-3.4083e-13 1.4904e-13 2.61732e-12)
(-9.67934e-13 -3.45714e-13 2.65572e-12)
(-1.74087e-12 5.32292e-13 2.32633e-12)
(-6.6125e-13 1.34304e-13 1.9271e-12)
(1.38438e-12 -6.62998e-13 2.45056e-12)
(2.01792e-12 5.95208e-13 2.08088e-12)
(1.54881e-12 -2.37411e-12 2.76592e-12)
(1.52655e-12 -1.98759e-12 4.02519e-12)
(-8.11246e-14 -2.59802e-12 4.64573e-12)
(-1.88331e-12 -3.24568e-12 2.48808e-12)
(-5.17854e-13 -2.51846e-12 1.07257e-12)
(1.03733e-12 -3.0657e-12 1.4957e-12)
(-4.30304e-13 -3.52815e-12 5.50215e-13)
(-1.78628e-12 -1.82393e-12 -3.00101e-12)
(-1.69212e-12 1.00794e-12 -3.75583e-12)
(-1.27447e-12 2.86527e-12 -4.99461e-12)
(-2.10124e-13 2.27211e-12 -6.27398e-12)
(4.43173e-13 3.5006e-12 -3.70001e-12)
(8.97013e-13 2.82038e-12 -1.66931e-12)
(1.67794e-12 1.39505e-12 -1.17485e-12)
(1.1492e-12 1.3773e-12 1.02602e-12)
(9.55074e-13 1.95577e-12 3.44379e-12)
(1.12457e-12 3.36789e-13 6.10143e-12)
(-1.1635e-12 -2.34251e-13 5.24726e-12)
(-2.1584e-12 3.19814e-12 2.98211e-12)
(-1.28349e-12 2.33499e-12 2.89176e-12)
(-2.44642e-12 3.03456e-12 2.88026e-12)
(-2.7306e-12 4.21437e-12 1.56963e-13)
(-1.42807e-12 2.562e-12 -3.1058e-12)
(-1.46095e-12 1.59821e-12 -6.5645e-12)
(1.99964e-13 3.31822e-12 -6.80721e-12)
(1.44885e-12 3.3415e-12 -5.32389e-12)
(1.56282e-12 3.69354e-12 -3.84477e-12)
(7.21047e-13 3.27095e-12 -3.35284e-12)
(-9.95686e-14 4.18936e-12 -3.85257e-12)
(-7.37061e-13 2.26858e-12 -4.27993e-12)
(-1.19328e-12 1.347e-12 -8.13439e-12)
(9.67038e-14 9.11612e-13 -9.72899e-12)
(4.37366e-14 9.59384e-13 -7.69419e-12)
(6.16281e-14 1.93647e-13 -4.08789e-12)
(2.37533e-12 -4.64112e-13 -1.18343e-12)
(1.44894e-12 -1.40898e-12 4.24617e-13)
(1.08027e-12 -2.19998e-12 3.05993e-12)
(9.66135e-13 -2.13779e-12 -5.54944e-13)
(7.38522e-13 2.63455e-13 -2.18632e-12)
(6.19122e-13 2.80185e-13 -5.2175e-12)
(6.31018e-13 9.24051e-13 -7.79526e-12)
(-1.66346e-13 -1.12022e-13 -7.0021e-12)
(-8.94391e-13 1.57436e-12 -3.71759e-12)
(-7.32882e-13 8.80698e-13 -2.53858e-13)
(-8.78478e-13 1.88111e-12 -4.1546e-13)
(-1.85115e-13 1.729e-12 3.50309e-13)
(4.44783e-13 2.75353e-12 4.19358e-12)
(1.47325e-12 2.85527e-13 8.90765e-12)
(8.87036e-13 6.83985e-13 9.18924e-12)
(1.28808e-12 1.16615e-12 8.73417e-12)
(1.43311e-12 -5.49792e-13 1.09362e-11)
(-4.68218e-13 -1.16621e-12 1.14333e-11)
(-1.87715e-13 -1.01382e-12 1.16714e-11)
(8.15179e-13 -5.30845e-14 1.13547e-11)
(5.07075e-13 -7.50541e-13 1.39976e-11)
(-2.10225e-12 -8.42594e-13 1.47749e-11)
(-3.60072e-12 6.78479e-13 1.12824e-11)
(-1.57587e-12 3.63158e-12 4.52703e-12)
(9.23899e-13 2.67428e-12 1.63894e-12)
(2.35959e-13 3.34134e-12 -3.75665e-12)
(-1.6523e-12 3.39339e-12 -6.01404e-12)
(-1.7183e-12 4.29921e-12 -5.12423e-12)
(-2.37197e-13 5.238e-12 -4.50769e-12)
(3.24173e-13 4.63186e-12 -3.94234e-12)
(5.261e-13 3.46155e-12 -5.2076e-12)
(-4.99397e-13 2.73194e-12 -5.63302e-12)
(-3.73298e-13 3.65941e-12 -5.39505e-12)
(8.05716e-13 3.17324e-12 -4.57747e-12)
(2.55088e-12 2.57009e-12 -4.73026e-12)
(2.41834e-12 9.18422e-14 -3.15518e-12)
(9.84511e-13 2.42305e-13 -2.07259e-12)
(6.20602e-13 1.17953e-12 -1.9606e-12)
(1.14487e-12 1.70137e-12 -3.60322e-12)
(1.88315e-12 4.96931e-13 -3.94512e-12)
(4.6218e-13 1.40761e-12 -5.66087e-12)
(-6.30251e-13 3.34301e-12 -4.15084e-12)
(3.96491e-13 2.06156e-12 -3.69932e-13)
(1.09229e-12 4.58318e-13 3.50878e-12)
(-2.4156e-13 1.43722e-12 7.12225e-12)
(-3.19577e-12 2.14842e-12 6.18557e-12)
(-5.7732e-12 2.62443e-12 1.93259e-12)
(-4.79355e-12 2.23342e-12 -1.74687e-13)
(-3.34801e-12 3.65219e-12 -1.13568e-12)
(-1.05629e-12 1.93047e-12 -2.81964e-12)
(1.61654e-12 1.24507e-12 -6.94736e-13)
(3.23577e-12 2.41446e-12 5.18676e-13)
(3.32335e-12 9.96186e-13 1.94692e-12)
(2.82866e-12 3.67212e-12 -1.37299e-12)
(1.52021e-12 1.67612e-12 -3.6946e-12)
(2.84858e-12 1.68633e-12 -1.56483e-12)
(2.75184e-12 -2.42458e-13 1.13909e-12)
(-8.53435e-13 -3.66202e-13 -4.04046e-13)
(-1.79068e-12 1.48608e-12 -2.83955e-12)
(-9.71784e-13 2.58804e-13 -3.20635e-12)
(-2.23069e-12 -1.43561e-12 8.47131e-12)
(-2.99743e-12 -2.32686e-12 3.36812e-12)
(4.44595e-13 -2.3451e-12 2.25276e-12)
(2.26011e-13 -3.62893e-12 -4.02753e-13)
(-3.14474e-13 -4.88732e-12 6.34295e-13)
(5.60683e-14 -4.55731e-12 1.10678e-12)
(-1.47839e-12 -2.66986e-12 1.1661e-12)
(-2.74799e-12 -2.5111e-12 1.10238e-12)
(-1.21296e-12 -3.54432e-12 9.04282e-13)
(5.28675e-13 -2.95146e-12 1.24004e-12)
(4.02527e-12 -3.60088e-12 1.5996e-12)
(4.09243e-12 -4.49972e-12 3.02118e-12)
(1.10664e-12 -2.26275e-12 5.04399e-12)
(6.47447e-13 -1.38966e-12 3.65858e-12)
(-1.64269e-12 -4.27576e-12 2.63943e-12)
(-1.92859e-12 -3.58024e-12 1.61901e-12)
(3.47259e-13 -4.51642e-12 1.08247e-12)
(-3.69499e-13 -6.18811e-12 -4.622e-13)
(-2.54885e-12 -6.11687e-12 -3.41866e-12)
(-3.72568e-12 -2.74944e-12 -3.13786e-12)
(-1.82846e-12 -2.00753e-13 -4.83892e-12)
(-4.80298e-13 -1.0725e-12 -7.8121e-12)
(4.85452e-13 7.29034e-13 -4.38978e-12)
(1.86665e-12 -1.66104e-12 -2.12601e-12)
(1.55665e-12 -3.76496e-12 -1.05754e-12)
(1.28773e-12 -3.34245e-12 5.98297e-13)
(2.39823e-12 -1.86336e-12 3.46422e-12)
(1.91363e-12 -1.54235e-12 6.81387e-12)
(-2.43549e-12 -2.4271e-12 4.62206e-12)
(-2.98993e-12 -1.31765e-12 2.10012e-12)
(-1.60597e-12 -2.70444e-12 4.2948e-12)
(-3.7076e-12 -1.14717e-12 3.29935e-12)
(-2.28726e-12 -2.51901e-12 9.0299e-13)
(-2.50675e-13 -7.85931e-13 -3.42189e-12)
(-2.32532e-12 -1.65451e-12 -8.97438e-12)
(-1.14277e-13 -7.56715e-13 -1.01199e-11)
(1.84647e-12 3.71796e-13 -8.05853e-12)
(2.24619e-12 1.57533e-12 -5.3757e-12)
(5.29409e-13 1.11586e-12 -4.60184e-12)
(-8.00996e-14 -1.25567e-12 -5.7804e-12)
(5.53828e-13 -5.15687e-14 -4.21522e-12)
(-7.76764e-13 -2.02631e-12 -4.60274e-12)
(3.28189e-13 -1.4833e-12 -4.06862e-12)
(1.14297e-12 -1.39391e-12 -6.26946e-12)
(5.49442e-13 -1.29898e-12 -2.40575e-12)
(1.35377e-12 -4.49772e-12 1.33733e-12)
(1.97625e-12 -1.68676e-12 7.88501e-13)
(2.42378e-12 -2.03622e-12 5.8434e-12)
(9.2954e-15 -2.82666e-12 2.95891e-12)
(-5.15589e-15 -3.5131e-12 -7.05572e-13)
(4.78836e-13 -5.37685e-12 -5.88862e-12)
(1.58584e-12 -1.79875e-12 -1.12127e-11)
(-8.94094e-14 -7.58669e-13 -9.61494e-12)
(-1.9927e-12 -1.50051e-12 -4.0822e-12)
(-1.37349e-12 -2.14097e-12 1.96122e-12)
(-1.43853e-12 -1.82394e-12 8.25106e-13)
(-4.71682e-13 -1.27408e-12 8.52052e-13)
(1.35358e-12 -7.56379e-14 4.08617e-12)
(2.70308e-12 -9.34922e-13 9.38679e-12)
(7.85469e-13 -3.14787e-13 1.07734e-11)
(2.10012e-12 -9.08987e-13 9.76792e-12)
(2.71666e-12 -3.10722e-12 1.32398e-11)
(-8.36419e-14 -2.42215e-12 1.55484e-11)
(-1.06293e-12 -3.41773e-12 1.66484e-11)
(-3.32787e-15 -3.40102e-12 1.56002e-11)
(9.41325e-13 -2.0257e-12 1.702e-11)
(-1.98654e-12 -2.27703e-12 1.68004e-11)
(-5.22475e-12 -9.12605e-13 1.21141e-11)
(-2.49234e-12 5.92828e-13 4.68664e-12)
(3.81522e-13 1.55498e-12 5.60924e-12)
(-6.01195e-14 5.42866e-14 -1.34326e-12)
(-1.46398e-12 -1.28922e-12 -6.97942e-12)
(-2.25876e-12 1.39977e-12 -4.78301e-12)
(-1.0962e-12 1.58292e-12 -2.92226e-12)
(1.07692e-12 8.33336e-13 -1.89082e-12)
(1.57357e-12 2.0979e-13 -5.65906e-12)
(-8.1787e-13 -1.27412e-12 -5.15948e-12)
(-7.72163e-13 -5.54046e-13 -6.18067e-12)
(1.61089e-12 -4.69117e-13 -3.33905e-12)
(4.21398e-12 -1.45887e-12 -1.76351e-12)
(3.10626e-12 -3.55792e-12 -2.66744e-13)
(-1.53548e-13 -4.16407e-12 -5.18392e-13)
(-7.54823e-14 -1.23894e-12 -1.42149e-12)
(2.27989e-12 -2.14892e-14 -4.00024e-12)
(1.93873e-12 -1.54455e-12 -1.16931e-12)
(-1.41703e-12 -1.94674e-12 -4.64104e-12)
(-6.73976e-13 4.65662e-13 -4.77801e-12)
(2.42528e-12 2.0275e-12 1.67545e-12)
(1.25716e-13 6.38353e-13 6.2189e-12)
(-1.94579e-12 9.07461e-13 9.32479e-12)
(-3.06507e-12 2.23829e-12 6.30606e-12)
(-4.62988e-12 -4.7409e-13 -4.37395e-13)
(-6.10372e-12 1.34453e-12 -1.39151e-12)
(-3.75363e-12 1.44121e-12 -4.00448e-12)
(9.53357e-13 4.67194e-13 -4.25552e-12)
(1.55575e-12 6.69906e-14 -1.23732e-12)
(2.51141e-12 3.84634e-14 -6.1232e-13)
(1.8308e-12 8.02056e-13 6.24008e-13)
(2.37785e-12 5.67201e-13 -4.28949e-12)
(2.97845e-12 -3.16719e-12 -6.47495e-12)
(3.98285e-12 -2.65488e-12 -1.2042e-12)
(4.70205e-12 -4.67937e-12 3.66928e-12)
(-1.66933e-12 -4.14985e-12 1.48623e-12)
(-2.71053e-12 -1.59139e-12 -4.24299e-12)
(1.15704e-14 -3.2738e-12 -3.89326e-12)
(-4.34142e-13 -1.52719e-12 6.44846e-12)
(-1.45128e-12 -3.76895e-12 5.11162e-12)
(-2.54915e-13 -1.72748e-12 4.7809e-12)
(1.10881e-12 -2.67253e-12 1.35572e-12)
(1.96464e-13 -1.97323e-12 4.74602e-13)