/*--------------------------------*- C++ -*----------------------------------*\
| =========                 |                                                 |
| \\      /  F ield         | OpenFOAM: The Open Source CFD Toolbox           |
|  \\    /   O peration     | Version:  2406                                  |
|   \\  /    A nd           | Website:  www.openfoam.com                      |
|    \\/     M anipulation  |                                                 |
\*---------------------------------------------------------------------------*/
FoamFile
{
    version     2.0;
    format      ascii;
    arch        "LSB;label=32;scalar=64";
    class       volScalarField;
    location    "0.04";
    object      Ma;
}
// * * * * * * * * * * * * * * * * * * * * * * * * * * * * * * * * * * * * * //

dimensions      [0 0 0 0 0 0 0];

internalField   nonuniform List<scalar> 
13962
(
1.132
1.132
1.132
1.132
1.132
1.132
1.132
1.132
1.132
1.132
1.132
1.132
1.132
1.132
1.132
1.132
1.132
1.132
1.132
1.13199
1.1316
1.12263
1.05928
1.0208
1.01984
1.01983
1.01971
1.01953
1.0193
1.0191
1.01902
1.01898
1.01895
1.01896
1.01901
1.01906
1.01909
1.01907
1.01903
1.01895
1.01886
1.0188
1.01876
1.01877
1.01883
1.01892
1.01901
1.01907
1.01909
1.01909
1.01906
1.019
1.01898
1.01899
1.01902
1.01908
1.01914
1.0192
1.01924
1.01924
1.01922
1.01919
1.01915
1.01912
1.01911
1.01911
1.01911
1.01912
1.01912
1.0191
1.01908
1.01906
1.01903
1.01901
1.01901
1.01902
1.01902
1.01904
1.01905
1.01906
1.01905
1.01905
1.01905
1.01905
1.01906
1.01907
1.01908
1.01909
1.0191
1.01911
1.01911
1.0191
1.0191
1.01908
1.01906
1.01905
1.01905
1.01906
1.01907
1.01909
1.01911
1.01914
1.01914
1.01914
1.01914
1.01912
1.0191
1.01908
1.01908
1.01907
1.01908
1.0191
1.01911
1.01911
1.0191
1.01908
1.01906
1.01903
1.01902
1.01902
1.01903
1.01904
1.01907
1.01909
1.01911
1.01912
1.01911
1.01911
1.0191
1.0191
1.01909
1.0191
1.0191
1.0191
1.01911
1.0191
1.0191
1.01909
1.01909
1.01909
1.01908
1.01908
1.01908
1.01908
1.01908
1.01909
1.01909
1.0191
1.01911
1.01911
1.01911
1.0191
1.0191
1.01909
1.01908
1.01908
1.01908
1.01908
1.01908
1.01908
1.01908
1.01908
1.01905
1.01892
1.01885
1.01897
1.01956
1.02097
1.02314
1.02575
1.02835
1.03053
1.03217
1.03318
1.03379
1.03411
1.0343
1.03427
1.03414
1.03393
1.03369
1.0335
1.03338
1.03336
1.03335
1.03338
1.03336
1.03331
1.03315
1.03274
1.03192
1.03065
1.02922
1.02799
1.02704
1.02628
1.02563
1.02504
1.02451
1.02402
1.02357
1.02316
1.02278
1.02244
1.02215
1.0219
1.0217
1.02154
1.02142
1.02132
1.02125
1.0212
1.02116
1.02112
1.02108
1.02105
1.02101
1.02098
1.02093
1.02088
1.02084
1.02079
1.02073
1.02067
1.02062
1.02056
1.02051
1.02047
1.02045
1.02044
1.02043
1.02042
1.02042
1.02042
1.02042
1.02042
1.02042
1.02043
1.02042
1.02041
1.0204
1.02039
1.02038
1.02036
1.02034
1.02032
1.0203
1.02027
1.02024
1.02023
1.02021
1.0202
1.02019
1.0202
1.0202
1.02019
1.02018
1.02019
1.02019
1.02019
1.02019
1.02019
1.02019
1.02018
1.02016
1.02014
1.02013
1.0201
1.02008
1.02006
1.02004
1.02003
1.02
1.01998
1.01997
1.01994
1.01993
1.0199
1.01986
1.01982
1.01973
1.01956
1.01931
1.01893
1.01834
1.01747
1.01615
1.01424
1.01148
1.00756
1.00215
0.994802
0.985054
0.972466
0.956686
0.93755
0.915093
0.889799
0.862633
0.835174
0.809616
0.788456
0.774066
0.767588
0.76584
0.765154
0.764971
0.764965
0.765014
0.765153
0.765395
0.765723
0.766119
0.766407
0.766431
0.766383
0.76627
0.766125
0.766006
0.765938
0.765925
0.765935
0.765972
0.766019
0.766044
0.766038
0.765998
0.765911
0.765804
0.765755
0.765754
0.765771
0.765819
0.765902
0.765985
0.766012
0.76601
0.765988
0.765934
0.765854
0.765777
0.765733
0.765728
0.765735
0.765758
0.765791
0.765808
0.765808
0.7658
0.765773
0.765726
0.765681
0.765665
0.765665
0.765673
0.765694
0.765718
0.765724
0.765722
0.765709
0.765681
0.765638
0.765587
0.765545
0.765528
0.765527
0.765532
0.765542
0.765561
0.765584
0.7656
0.765607
0.765608
0.765612
0.765624
0.765636
0.765643
0.765646
0.765644
0.765631
0.765608
0.765583
0.765566
0.765558
0.76556
0.765569
0.765584
0.765608
0.765617
0.765619
0.765615
0.765603
0.765581
0.765547
0.765502
0.765449
0.765399
0.765357
0.765327
0.765305
0.765287
0.765269
0.765248
0.76522
0.765188
0.765155
0.765122
0.765093
0.765068
0.765049
0.765033
0.765019
0.765002
0.764981
0.764958
0.764931
0.764903
0.764876
0.764855
0.764839
0.764829
0.76482
0.76481
0.764797
0.76478
0.764758
0.764732
0.764701
0.764669
0.76464
0.764615
0.764595
0.764578
0.764563
0.764548
0.764531
0.764509
0.764482
0.764449
0.764412
0.76438
0.764363
0.764359
0.764357
0.764357
0.764358
0.764362
0.764367
0.764376
0.764385
0.764396
0.764408
0.764421
0.764436
0.764453
0.764472
0.764495
0.764519
0.764546
0.764574
0.764604
0.764637
0.764671
0.76471
1.132
1.132
1.132
1.132
1.132
1.132
1.132
1.132
1.132
1.132
1.132
1.132
1.132
1.132
1.132
1.132
1.132
1.132
1.132
1.13199
1.1316
1.12263
1.05928
1.0208
1.01984
1.01983
1.01971
1.01953
1.0193
1.0191
1.01902
1.01898
1.01895
1.01896
1.01901
1.01906
1.01909
1.01907
1.01903
1.01895
1.01886
1.0188
1.01876
1.01877
1.01883
1.01892
1.01901
1.01907
1.01909
1.01909
1.01906
1.019
1.01898
1.01899
1.01902
1.01908
1.01914
1.0192
1.01924
1.01924
1.01922
1.01919
1.01915
1.01912
1.01911
1.01911
1.01911
1.01912
1.01912
1.0191
1.01908
1.01906
1.01903
1.01901
1.01901
1.01902
1.01902
1.01904
1.01905
1.01906
1.01905
1.01905
1.01905
1.01905
1.01906
1.01907
1.01908
1.01909
1.0191
1.01911
1.01911
1.0191
1.0191
1.01908
1.01906
1.01905
1.01905
1.01906
1.01907
1.01909
1.01911
1.01914
1.01914
1.01914
1.01914
1.01912
1.0191
1.01908
1.01908
1.01907
1.01908
1.0191
1.01911
1.01911
1.0191
1.01908
1.01906
1.01903
1.01902
1.01902
1.01903
1.01904
1.01907
1.01909
1.01911
1.01912
1.01911
1.01911
1.0191
1.0191
1.01909
1.0191
1.0191
1.0191
1.01911
1.0191
1.0191
1.01909
1.01909
1.01909
1.01908
1.01908
1.01908
1.01908
1.01908
1.01909
1.01909
1.0191
1.01911
1.01911
1.01911
1.0191
1.0191
1.01909
1.01908
1.01908
1.01908
1.01908
1.01908
1.01908
1.01908
1.01908
1.01905
1.01892
1.01885
1.01896
1.01956
1.02097
1.02315
1.02576
1.02835
1.03051
1.03214
1.03315
1.03378
1.03413
1.03434
1.0343
1.03416
1.03393
1.03368
1.03348
1.03336
1.03333
1.03333
1.03337
1.03337
1.03332
1.03315
1.03274
1.03192
1.03065
1.02922
1.02799
1.02705
1.02628
1.02563
1.02504
1.02451
1.02402
1.02357
1.02316
1.02278
1.02244
1.02215
1.0219
1.0217
1.02155
1.02142
1.02132
1.02125
1.0212
1.02116
1.02112
1.02108
1.02105
1.02101
1.02098
1.02093
1.02088
1.02084
1.02079
1.02073
1.02067
1.02062
1.02056
1.02051
1.02047
1.02045
1.02044
1.02043
1.02042
1.02042
1.02042
1.02042
1.02042
1.02042
1.02043
1.02042
1.02041
1.0204
1.02039
1.02038
1.02036
1.02034
1.02032
1.0203
1.02027
1.02024
1.02023
1.02021
1.0202
1.02019
1.0202
1.0202
1.02019
1.02018
1.02019
1.02019
1.02019
1.02019
1.02019
1.02019
1.02018
1.02016
1.02014
1.02013
1.0201
1.02008
1.02006
1.02004
1.02003
1.02
1.01998
1.01997
1.01994
1.01993
1.0199
1.01986
1.01982
1.01973
1.01956
1.01931
1.01894
1.01835
1.01748
1.01617
1.01427
1.01153
1.00764
1.00228
0.994996
0.985324
0.972824
0.957144
0.938101
0.915724
0.890481
0.863317
0.835788
0.810089
0.788771
0.774237
0.767664
0.765887
0.765181
0.76498
0.764971
0.765016
0.765153
0.765393
0.76572
0.766115
0.766404
0.766429
0.766381
0.766269
0.766124
0.766006
0.765937
0.765924
0.765934
0.765971
0.766018
0.766042
0.766037
0.765997
0.765909
0.765803
0.765754
0.765753
0.76577
0.765818
0.765901
0.765983
0.766011
0.766009
0.765987
0.765934
0.765854
0.765776
0.765733
0.765727
0.765735
0.765757
0.765791
0.765808
0.765807
0.765799
0.765773
0.765726
0.765681
0.765665
0.765664
0.765672
0.765694
0.765717
0.765724
0.765721
0.765709
0.76568
0.765637
0.765586
0.765544
0.765527
0.765525
0.765529
0.76554
0.765559
0.765584
0.765603
0.765611
0.765614
0.76562
0.765633
0.765646
0.765654
0.765657
0.765653
0.765638
0.765614
0.765587
0.765567
0.765556
0.765556
0.765564
0.765579
0.765604
0.765614
0.765616
0.765613
0.765602
0.76558
0.765547
0.765501
0.765449
0.765399
0.765358
0.765327
0.765306
0.765289
0.765271
0.765249
0.765221
0.765189
0.765155
0.765122
0.765093
0.765068
0.765049
0.765033
0.765019
0.765002
0.764982
0.764958
0.764931
0.764903
0.764877
0.764855
0.76484
0.764829
0.76482
0.76481
0.764797
0.76478
0.764759
0.764732
0.764701
0.764669
0.76464
0.764615
0.764595
0.764578
0.764564
0.764548
0.764531
0.764509
0.764482
0.764449
0.764412
0.76438
0.764363
0.764359
0.764357
0.764357
0.764358
0.764361
0.764367
0.764376
0.764385
0.764396
0.764408
0.764421
0.764435
0.764452
0.764472
0.764494
0.764519
0.764546
0.764574
0.764604
0.764636
0.764671
0.76471
1.132
1.132
1.132
1.132
1.132
1.132
1.132
1.132
1.132
1.132
1.132
1.132
1.132
1.132
1.132
1.132
1.132
1.132
1.132
1.13199
1.1316
1.12263
1.05928
1.0208
1.01984
1.01983
1.01971
1.01953
1.0193
1.0191
1.01902
1.01898
1.01895
1.01896
1.01901
1.01906
1.01909
1.01907
1.01903
1.01895
1.01886
1.0188
1.01876
1.01877
1.01883
1.01892
1.01901
1.01907
1.01909
1.01909
1.01906
1.019
1.01898
1.01899
1.01902
1.01908
1.01914
1.0192
1.01924
1.01924
1.01922
1.01919
1.01915
1.01912
1.01911
1.01911
1.01911
1.01912
1.01912
1.0191
1.01908
1.01906
1.01903
1.01901
1.01901
1.01902
1.01902
1.01904
1.01905
1.01906
1.01905
1.01905
1.01905
1.01905
1.01906
1.01907
1.01908
1.01909
1.0191
1.01911
1.01911
1.0191
1.0191
1.01908
1.01906
1.01905
1.01905
1.01906
1.01907
1.01909
1.01911
1.01914
1.01914
1.01914
1.01914
1.01912
1.0191
1.01908
1.01908
1.01907
1.01908
1.0191
1.01911
1.0191
1.0191
1.01908
1.01906
1.01903
1.01902
1.01902
1.01903
1.01904
1.01907
1.01909
1.01911
1.01912
1.01911
1.01911
1.0191
1.0191
1.01909
1.0191
1.0191
1.0191
1.01911
1.0191
1.0191
1.01909
1.01909
1.01909
1.01908
1.01908
1.01908
1.01908
1.01908
1.01909
1.01909
1.0191
1.01911
1.01911
1.01911
1.0191
1.0191
1.01909
1.01908
1.01908
1.01908
1.01908
1.01908
1.01908
1.01908
1.01908
1.01905
1.01892
1.01885
1.01896
1.01956
1.02097
1.02316
1.02577
1.02836
1.0305
1.03211
1.03313
1.03378
1.03415
1.03438
1.03433
1.03418
1.03393
1.03367
1.03347
1.03334
1.03331
1.03331
1.03336
1.03337
1.03332
1.03315
1.03274
1.03192
1.03065
1.02922
1.028
1.02705
1.02629
1.02563
1.02504
1.02451
1.02403
1.02358
1.02316
1.02278
1.02244
1.02215
1.0219
1.0217
1.02155
1.02142
1.02132
1.02125
1.0212
1.02116
1.02112
1.02108
1.02105
1.02101
1.02098
1.02093
1.02088
1.02084
1.02079
1.02073
1.02067
1.02062
1.02056
1.02051
1.02047
1.02045
1.02044
1.02043
1.02042
1.02042
1.02042
1.02042
1.02042
1.02042
1.02043
1.02042
1.02041
1.0204
1.02039
1.02038
1.02036
1.02034
1.02032
1.0203
1.02027
1.02024
1.02023
1.02021
1.0202
1.02019
1.0202
1.0202
1.02019
1.02018
1.02019
1.02019
1.02019
1.02019
1.02019
1.02019
1.02018
1.02016
1.02014
1.02013
1.0201
1.02008
1.02006
1.02004
1.02003
1.02
1.01998
1.01997
1.01995
1.01993
1.0199
1.01987
1.01983
1.01973
1.01956
1.01932
1.01895
1.01836
1.01749
1.01617
1.0143
1.01157
1.00772
1.0024
0.995161
0.98555
0.973117
0.957505
0.938515
0.916167
0.890922
0.86372
0.83612
0.810324
0.788919
0.774317
0.767711
0.765942
0.765225
0.765004
0.764987
0.765026
0.765157
0.765394
0.765719
0.766111
0.7664
0.766424
0.766377
0.766265
0.766121
0.766003
0.765935
0.765922
0.765932
0.765969
0.766015
0.766039
0.766034
0.765994
0.765907
0.7658
0.765751
0.76575
0.765768
0.765816
0.765899
0.765981
0.766009
0.766007
0.765985
0.765932
0.765852
0.765775
0.765731
0.765726
0.765733
0.765755
0.765789
0.765806
0.765806
0.765797
0.765771
0.765724
0.765679
0.765663
0.765663
0.765671
0.765692
0.765716
0.765722
0.76572
0.765707
0.765679
0.765635
0.765583
0.76554
0.765522
0.765519
0.765523
0.765534
0.765555
0.765584
0.765608
0.765622
0.765631
0.765644
0.765661
0.765678
0.76569
0.765692
0.765682
0.76566
0.76563
0.765599
0.765573
0.765556
0.76555
0.765554
0.765568
0.765592
0.765604
0.765608
0.765607
0.765598
0.765578
0.765545
0.7655
0.765448
0.765399
0.765358
0.765329
0.765308
0.765291
0.765273
0.765251
0.765223
0.765191
0.765157
0.765123
0.765093
0.765068
0.765049
0.765033
0.765019
0.765002
0.764982
0.764958
0.764931
0.764903
0.764877
0.764855
0.76484
0.764829
0.76482
0.764809
0.764797
0.76478
0.764759
0.764732
0.764701
0.764669
0.76464
0.764615
0.764595
0.764578
0.764563
0.764548
0.764531
0.764509
0.764482
0.764449
0.764412
0.76438
0.764363
0.764359
0.764357
0.764357
0.764358
0.764361
0.764367
0.764376
0.764385
0.764396
0.764408
0.764421
0.764435
0.764452
0.764472
0.764494
0.764519
0.764546
0.764574
0.764605
0.764637
0.764671
0.76471
1.132
1.132
1.132
1.132
1.132
1.132
1.132
1.132
1.132
1.132
1.132
1.132
1.132
1.132
1.132
1.132
1.132
1.132
1.132
1.13199
1.1316
1.12263
1.05928
1.0208
1.01984
1.01983
1.01971
1.01953
1.0193
1.0191
1.01902
1.01898
1.01895
1.01896
1.01901
1.01906
1.01909
1.01907
1.01903
1.01895
1.01886
1.0188
1.01876
1.01877
1.01883
1.01892
1.01901
1.01907
1.01909
1.01909
1.01906
1.019
1.01898
1.01899
1.01902
1.01908
1.01914
1.0192
1.01924
1.01924
1.01922
1.01919
1.01915
1.01912
1.01911
1.01911
1.01911
1.01912
1.01912
1.0191
1.01908
1.01906
1.01903
1.01901
1.01901
1.01902
1.01902
1.01904
1.01905
1.01906
1.01905
1.01905
1.01905
1.01905
1.01906
1.01907
1.01908
1.01909
1.0191
1.01911
1.01911
1.0191
1.0191
1.01908
1.01906
1.01905
1.01905
1.01906
1.01907
1.01909
1.01911
1.01914
1.01914
1.01914
1.01914
1.01912
1.0191
1.01908
1.01908
1.01907
1.01908
1.0191
1.01911
1.0191
1.0191
1.01908
1.01906
1.01903
1.01902
1.01902
1.01903
1.01904
1.01907
1.01909
1.01911
1.01912
1.01911
1.01911
1.0191
1.0191
1.01909
1.0191
1.0191
1.0191
1.01911
1.0191
1.0191
1.01909
1.01909
1.01909
1.01908
1.01908
1.01908
1.01908
1.01908
1.01909
1.01909
1.0191
1.01911
1.01911
1.01911
1.0191
1.0191
1.01909
1.01908
1.01908
1.01908
1.01908
1.01908
1.01908
1.01908
1.01908
1.01905
1.01892
1.01884
1.01896
1.01956
1.02097
1.02317
1.02578
1.02836
1.03048
1.03208
1.03311
1.03377
1.03416
1.03441
1.03436
1.03419
1.03393
1.03366
1.03345
1.03332
1.03329
1.0333
1.03335
1.03338
1.03333
1.03316
1.03274
1.03192
1.03065
1.02922
1.028
1.02705
1.02629
1.02563
1.02504
1.02451
1.02403
1.02358
1.02316
1.02278
1.02244
1.02215
1.02191
1.02171
1.02155
1.02142
1.02132
1.02125
1.0212
1.02116
1.02112
1.02108
1.02105
1.02102
1.02098
1.02093
1.02088
1.02084
1.02079
1.02073
1.02067
1.02062
1.02056
1.02051
1.02047
1.02045
1.02044
1.02043
1.02042
1.02042
1.02042
1.02042
1.02042
1.02042
1.02043
1.02042
1.02041
1.0204
1.02039
1.02038
1.02036
1.02034
1.02032
1.0203
1.02027
1.02024
1.02023
1.02021
1.0202
1.02019
1.0202
1.0202
1.02019
1.02018
1.02019
1.02019
1.02019
1.02019
1.02019
1.02019
1.02018
1.02015
1.02014
1.02013
1.02011
1.02008
1.02006
1.02004
1.02003
1.02
1.01998
1.01997
1.01995
1.01993
1.0199
1.01988
1.01984
1.01973
1.01956
1.01933
1.01896
1.01837
1.01749
1.01619
1.01433
1.01162
1.0078
1.00252
0.995318
0.985749
0.973346
0.957753
0.938748
0.916356
0.891057
0.863811
0.836192
0.810417
0.789046
0.774425
0.767787
0.766009
0.765279
0.765037
0.765011
0.765043
0.765168
0.765399
0.76572
0.766108
0.766394
0.766418
0.76637
0.766258
0.766115
0.765997
0.76593
0.765917
0.765928
0.765964
0.76601
0.766034
0.766029
0.765988
0.765901
0.765795
0.765747
0.765746
0.765764
0.765812
0.765895
0.765977
0.766006
0.766003
0.765982
0.765928
0.765849
0.765772
0.765728
0.765722
0.76573
0.765752
0.765786
0.765802
0.765802
0.765794
0.765768
0.765721
0.765676
0.765659
0.765659
0.765667
0.765689
0.765713
0.765719
0.765717
0.765704
0.765674
0.76563
0.765577
0.765532
0.765512
0.765508
0.76551
0.765523
0.765548
0.765583
0.765618
0.765643
0.765668
0.765693
0.76572
0.765744
0.765762
0.765763
0.765743
0.765707
0.765666
0.765624
0.765585
0.765557
0.765541
0.765537
0.765547
0.765569
0.765584
0.765591
0.765594
0.765588
0.765573
0.765542
0.765497
0.765447
0.765399
0.76536
0.765331
0.765311
0.765295
0.765278
0.765255
0.765227
0.765194
0.765159
0.765125
0.765094
0.765069
0.765049
0.765033
0.765018
0.765002
0.764981
0.764958
0.764931
0.764904
0.764877
0.764855
0.76484
0.764829
0.764819
0.764809
0.764797
0.76478
0.764759
0.764732
0.764701
0.764669
0.76464
0.764615
0.764595
0.764578
0.764563
0.764548
0.764531
0.764509
0.764482
0.764449
0.764412
0.76438
0.764363
0.764359
0.764357
0.764357
0.764358
0.764361
0.764367
0.764376
0.764385
0.764396
0.764408
0.764421
0.764435
0.764452
0.764472
0.764494
0.764519
0.764546
0.764574
0.764605
0.764637
0.764671
0.76471
1.132
1.132
1.132
1.132
1.132
1.132
1.132
1.132
1.132
1.132
1.132
1.132
1.132
1.132
1.132
1.132
1.132
1.132
1.132
1.13199
1.1316
1.12263
1.05928
1.0208
1.01984
1.01983
1.01971
1.01953
1.0193
1.0191
1.01902
1.01898
1.01895
1.01896
1.01901
1.01906
1.01909
1.01907
1.01903
1.01895
1.01886
1.0188
1.01876
1.01877
1.01883
1.01892
1.01901
1.01907
1.01909
1.01909
1.01906
1.019
1.01898
1.01899
1.01902
1.01908
1.01914
1.0192
1.01924
1.01924
1.01922
1.01919
1.01915
1.01912
1.01911
1.01911
1.01911
1.01912
1.01912
1.0191
1.01908
1.01906
1.01903
1.01901
1.01901
1.01902
1.01902
1.01904
1.01905
1.01906
1.01905
1.01905
1.01905
1.01905
1.01906
1.01907
1.01908
1.01909
1.0191
1.01911
1.01911
1.0191
1.0191
1.01908
1.01906
1.01905
1.01905
1.01906
1.01907
1.01909
1.01911
1.01914
1.01914
1.01914
1.01914
1.01912
1.0191
1.01908
1.01908
1.01907
1.01908
1.0191
1.01911
1.0191
1.0191
1.01908
1.01906
1.01903
1.01902
1.01902
1.01903
1.01904
1.01907
1.01909
1.01911
1.01912
1.01911
1.01911
1.0191
1.0191
1.01909
1.0191
1.0191
1.0191
1.01911
1.0191
1.0191
1.01909
1.01909
1.01909
1.01908
1.01908
1.01908
1.01908
1.01908
1.01909
1.01909
1.0191
1.01911
1.01911
1.01911
1.0191
1.0191
1.01909
1.01908
1.01908
1.01908
1.01908
1.01908
1.01908
1.01908
1.01908
1.01905
1.01892
1.01884
1.01896
1.01956
1.02098
1.02317
1.02578
1.02837
1.03047
1.03206
1.03309
1.03377
1.03418
1.03443
1.03438
1.0342
1.03394
1.03366
1.03344
1.03331
1.03328
1.03329
1.03335
1.03339
1.03334
1.03316
1.03274
1.03192
1.03065
1.02922
1.028
1.02706
1.02629
1.02563
1.02504
1.02451
1.02403
1.02358
1.02316
1.02278
1.02244
1.02215
1.02191
1.02171
1.02155
1.02142
1.02132
1.02125
1.0212
1.02116
1.02112
1.02108
1.02105
1.02102
1.02098
1.02093
1.02088
1.02084
1.02079
1.02073
1.02067
1.02062
1.02056
1.02051
1.02047
1.02045
1.02044
1.02043
1.02042
1.02042
1.02042
1.02042
1.02042
1.02042
1.02043
1.02042
1.02041
1.0204
1.02039
1.02038
1.02036
1.02034
1.02032
1.0203
1.02027
1.02024
1.02023
1.02021
1.0202
1.0202
1.0202
1.0202
1.02019
1.02018
1.02019
1.02019
1.02019
1.02019
1.02019
1.02019
1.02018
1.02015
1.02014
1.02013
1.02011
1.02008
1.02006
1.02004
1.02003
1.02
1.01998
1.01997
1.01996
1.01993
1.0199
1.01989
1.01984
1.01973
1.01957
1.01934
1.01897
1.01838
1.0175
1.0162
1.01435
1.01165
1.00787
1.0026
0.995426
0.985883
0.973488
0.95788
0.938813
0.916353
0.891019
0.863757
0.836161
0.810451
0.789131
0.774497
0.767829
0.766057
0.765322
0.765069
0.765036
0.765062
0.765181
0.765406
0.765721
0.766105
0.766388
0.766411
0.766362
0.76625
0.766106
0.765989
0.765922
0.76591
0.76592
0.765957
0.766003
0.766026
0.766021
0.76598
0.765893
0.765788
0.76574
0.76574
0.765758
0.765806
0.765889
0.765972
0.766
0.765998
0.765976
0.765922
0.765843
0.765766
0.765723
0.765718
0.765725
0.765747
0.76578
0.765797
0.765797
0.765788
0.765762
0.765715
0.76567
0.765654
0.765654
0.765662
0.765684
0.765708
0.765714
0.765712
0.765699
0.765668
0.765622
0.765568
0.765521
0.765497
0.765491
0.765494
0.765508
0.765537
0.76558
0.765628
0.765676
0.765723
0.765769
0.76581
0.765845
0.765869
0.765867
0.765834
0.765783
0.765724
0.765664
0.765607
0.765563
0.765536
0.765522
0.765524
0.765541
0.765557
0.765568
0.765574
0.765574
0.765563
0.765536
0.765494
0.765446
0.765399
0.765361
0.765335
0.765317
0.765301
0.765284
0.765262
0.765233
0.765199
0.765163
0.765128
0.765096
0.76507
0.765049
0.765032
0.765018
0.765001
0.764981
0.764958
0.764932
0.764904
0.764877
0.764855
0.76484
0.764829
0.764819
0.764809
0.764797
0.76478
0.764759
0.764732
0.764701
0.76467
0.76464
0.764615
0.764595
0.764578
0.764564
0.764548
0.764531
0.764509
0.764482
0.764449
0.764412
0.76438
0.764364
0.764359
0.764357
0.764357
0.764358
0.764362
0.764367
0.764376
0.764385
0.764396
0.764408
0.764421
0.764435
0.764452
0.764472
0.764494
0.764519
0.764546
0.764575
0.764605
0.764637
0.764671
0.76471
1.132
1.132
1.132
1.132
1.132
1.132
1.132
1.132
1.132
1.132
1.132
1.132
1.132
1.132
1.132
1.132
1.132
1.132
1.132
1.13199
1.1316
1.12263
1.05928
1.0208
1.01984
1.01983
1.01971
1.01953
1.0193
1.0191
1.01902
1.01898
1.01895
1.01896
1.01901
1.01906
1.01909
1.01907
1.01903
1.01895
1.01886
1.0188
1.01876
1.01877
1.01883
1.01892
1.01901
1.01907
1.01909
1.01909
1.01906
1.019
1.01898
1.01899
1.01902
1.01908
1.01914
1.0192
1.01924
1.01924
1.01922
1.01919
1.01915
1.01912
1.01911
1.01911
1.01911
1.01912
1.01912
1.0191
1.01908
1.01906
1.01903
1.01901
1.01901
1.01902
1.01902
1.01904
1.01905
1.01906
1.01905
1.01905
1.01905
1.01905
1.01906
1.01907
1.01908
1.01909
1.0191
1.01911
1.01911
1.0191
1.0191
1.01908
1.01906
1.01905
1.01905
1.01906
1.01907
1.01909
1.01911
1.01914
1.01914
1.01914
1.01914
1.01912
1.0191
1.01908
1.01908
1.01907
1.01908
1.0191
1.01911
1.0191
1.0191
1.01908
1.01906
1.01903
1.01902
1.01902
1.01903
1.01904
1.01907
1.01909
1.01911
1.01912
1.01911
1.01911
1.0191
1.0191
1.01909
1.0191
1.0191
1.0191
1.01911
1.0191
1.0191
1.01909
1.01909
1.01909
1.01908
1.01908
1.01908
1.01908
1.01908
1.01909
1.01909
1.0191
1.01911
1.01911
1.01911
1.0191
1.0191
1.01909
1.01908
1.01908
1.01908
1.01908
1.01908
1.01908
1.01908
1.01908
1.01905
1.01892
1.01884
1.01896
1.01956
1.02098
1.02318
1.02579
1.02837
1.03046
1.03204
1.03308
1.03377
1.03419
1.03445
1.0344
1.03421
1.03394
1.03366
1.03343
1.03329
1.03326
1.03327
1.03334
1.03339
1.03335
1.03316
1.03274
1.03192
1.03065
1.02922
1.02801
1.02706
1.02629
1.02563
1.02504
1.02452
1.02404
1.02359
1.02316
1.02278
1.02244
1.02215
1.02191
1.02171
1.02155
1.02142
1.02132
1.02125
1.0212
1.02116
1.02112
1.02108
1.02105
1.02102
1.02098
1.02093
1.02088
1.02084
1.02079
1.02073
1.02067
1.02062
1.02056
1.02051
1.02046
1.02045
1.02044
1.02043
1.02042
1.02042
1.02042
1.02042
1.02042
1.02042
1.02043
1.02042
1.02041
1.0204
1.02039
1.02038
1.02036
1.02034
1.02032
1.0203
1.02027
1.02024
1.02023
1.02021
1.0202
1.0202
1.0202
1.0202
1.02019
1.02018
1.02019
1.02019
1.02019
1.02019
1.02019
1.02019
1.02018
1.02015
1.02014
1.02013
1.02011
1.02008
1.02006
1.02004
1.02003
1.02
1.01998
1.01997
1.01997
1.01994
1.01991
1.0199
1.01985
1.01973
1.01958
1.01935
1.01898
1.01839
1.01751
1.01621
1.01437
1.01168
1.00792
1.00267
0.995496
0.98596
0.973566
0.957948
0.938826
0.916329
0.890934
0.863647
0.836075
0.810385
0.789087
0.774491
0.767856
0.766091
0.765353
0.765092
0.765055
0.765078
0.765192
0.765411
0.765721
0.766102
0.766383
0.766404
0.766355
0.766241
0.766097
0.765979
0.765912
0.7659
0.765911
0.765948
0.765993
0.766017
0.766011
0.76597
0.765883
0.765778
0.765731
0.765731
0.76575
0.765798
0.765882
0.765964
0.765992
0.76599
0.765969
0.765915
0.765836
0.76576
0.765717
0.765711
0.765719
0.765741
0.765774
0.76579
0.76579
0.765782
0.765755
0.765708
0.765663
0.765647
0.765647
0.765655
0.765677
0.765701
0.765708
0.765706
0.765693
0.765661
0.765613
0.765556
0.765507
0.76548
0.765473
0.765476
0.765492
0.765526
0.765577
0.76564
0.765712
0.765788
0.765861
0.76592
0.765966
0.765995
0.765988
0.765946
0.765877
0.765795
0.765714
0.765637
0.765575
0.765536
0.76551
0.765504
0.765512
0.765525
0.765539
0.765549
0.765555
0.76555
0.765529
0.765492
0.765446
0.765401
0.765364
0.765339
0.765323
0.765309
0.765292
0.765269
0.765239
0.765205
0.765168
0.765132
0.765099
0.765071
0.765049
0.765032
0.765017
0.765001
0.764981
0.764958
0.764932
0.764904
0.764878
0.764855
0.76484
0.764829
0.764819
0.764809
0.764797
0.76478
0.764759
0.764732
0.764702
0.76467
0.76464
0.764615
0.764595
0.764578
0.764564
0.764548
0.764531
0.764509
0.764482
0.764449
0.764412
0.76438
0.764364
0.764359
0.764357
0.764357
0.764358
0.764362
0.764368
0.764376
0.764386
0.764396
0.764408
0.764421
0.764435
0.764452
0.764472
0.764494
0.764519
0.764546
0.764575
0.764605
0.764637
0.764672
0.76471
1.132
1.132
1.132
1.132
1.132
1.132
1.132
1.132
1.132
1.132
1.132
1.132
1.132
1.132
1.132
1.132
1.132
1.132
1.132
1.13199
1.1316
1.12263
1.05928
1.0208
1.01984
1.01983
1.01971
1.01953
1.0193
1.0191
1.01902
1.01898
1.01895
1.01896
1.01901
1.01906
1.01909
1.01907
1.01903
1.01895
1.01886
1.0188
1.01876
1.01877
1.01883
1.01892
1.01901
1.01907
1.01909
1.01909
1.01906
1.019
1.01898
1.01899
1.01902
1.01908
1.01914
1.0192
1.01924
1.01924
1.01922
1.01919
1.01915
1.01912
1.01911
1.01911
1.01911
1.01912
1.01912
1.0191
1.01908
1.01906
1.01903
1.01901
1.01901
1.01902
1.01902
1.01904
1.01905
1.01906
1.01905
1.01905
1.01905
1.01905
1.01906
1.01907
1.01908
1.01909
1.0191
1.01911
1.01911
1.0191
1.0191
1.01908
1.01906
1.01905
1.01905
1.01906
1.01907
1.01909
1.01911
1.01914
1.01914
1.01914
1.01914
1.01912
1.0191
1.01908
1.01908
1.01907
1.01908
1.0191
1.01911
1.0191
1.0191
1.01908
1.01906
1.01903
1.01902
1.01902
1.01903
1.01904
1.01907
1.01909
1.01911
1.01912
1.01911
1.01911
1.0191
1.0191
1.01909
1.0191
1.0191
1.0191
1.01911
1.0191
1.0191
1.01909
1.01909
1.01909
1.01908
1.01908
1.01908
1.01908
1.01908
1.01909
1.01909
1.0191
1.01911
1.01911
1.01911
1.0191
1.0191
1.01909
1.01908
1.01908
1.01908
1.01908
1.01908
1.01908
1.01908
1.01908
1.01905
1.01892
1.01884
1.01896
1.01956
1.02098
1.02319
1.0258
1.02837
1.03045
1.03202
1.03307
1.03376
1.0342
1.03447
1.03441
1.03422
1.03394
1.03365
1.03343
1.03329
1.03325
1.03326
1.03333
1.0334
1.03335
1.03317
1.03274
1.03192
1.03065
1.02922
1.02801
1.02706
1.02629
1.02562
1.02504
1.02452
1.02404
1.02359
1.02316
1.02278
1.02244
1.02215
1.02191
1.02171
1.02155
1.02142
1.02132
1.02125
1.0212
1.02116
1.02112
1.02108
1.02105
1.02102
1.02098
1.02093
1.02088
1.02084
1.02079
1.02073
1.02068
1.02062
1.02056
1.02051
1.02046
1.02045
1.02044
1.02043
1.02042
1.02042
1.02042
1.02042
1.02042
1.02042
1.02043
1.02042
1.02041
1.0204
1.02039
1.02038
1.02036
1.02034
1.02032
1.0203
1.02027
1.02024
1.02023
1.02021
1.0202
1.0202
1.0202
1.0202
1.02019
1.02018
1.02019
1.02019
1.02019
1.02019
1.02019
1.02019
1.02018
1.02015
1.02014
1.02013
1.02011
1.02009
1.02006
1.02004
1.02003
1.02
1.01998
1.01997
1.01997
1.01994
1.01991
1.0199
1.01985
1.01973
1.01959
1.01936
1.01898
1.01839
1.01751
1.01622
1.01437
1.01169
1.00796
1.0027
0.995515
0.985966
0.973612
0.958018
0.938833
0.916248
0.890769
0.863467
0.835911
0.810276
0.789054
0.774503
0.767872
0.766108
0.765369
0.765106
0.765068
0.765088
0.7652
0.765416
0.765722
0.766099
0.766378
0.766399
0.766349
0.766234
0.766088
0.765969
0.765902
0.76589
0.765901
0.765938
0.765984
0.766007
0.766002
0.765961
0.765872
0.765768
0.765722
0.765722
0.765741
0.76579
0.765874
0.765956
0.765985
0.765983
0.765961
0.765908
0.765829
0.765752
0.76571
0.765704
0.765712
0.765734
0.765767
0.765783
0.765783
0.765774
0.765748
0.765701
0.765656
0.765639
0.765639
0.765648
0.76567
0.765694
0.765702
0.7657
0.765686
0.765654
0.765603
0.765544
0.765492
0.765464
0.765457
0.76546
0.76548
0.765518
0.765574
0.765649
0.765742
0.765848
0.765953
0.766031
0.766087
0.766117
0.766106
0.76606
0.765976
0.76587
0.765766
0.765669
0.76559
0.76554
0.765505
0.76549
0.76549
0.765496
0.76551
0.765524
0.765534
0.765534
0.765519
0.765488
0.765446
0.765404
0.765368
0.765345
0.76533
0.765316
0.765298
0.765275
0.765245
0.76521
0.765173
0.765135
0.765101
0.765072
0.765049
0.765031
0.765017
0.765001
0.764981
0.764958
0.764932
0.764904
0.764878
0.764856
0.76484
0.764829
0.764819
0.764809
0.764797
0.76478
0.764759
0.764732
0.764702
0.76467
0.76464
0.764615
0.764595
0.764578
0.764564
0.764548
0.764531
0.764509
0.764482
0.764449
0.764413
0.764381
0.764364
0.764359
0.764357
0.764357
0.764358
0.764362
0.764368
0.764376
0.764386
0.764396
0.764408
0.764421
0.764435
0.764452
0.764472
0.764494
0.764519
0.764546
0.764575
0.764605
0.764637
0.764672
0.76471
1.132
1.132
1.132
1.132
1.132
1.132
1.132
1.132
1.132
1.132
1.132
1.132
1.132
1.132
1.132
1.132
1.132
1.132
1.132
1.13199
1.1316
1.12263
1.05928
1.0208
1.01984
1.01983
1.01971
1.01953
1.0193
1.0191
1.01902
1.01898
1.01895
1.01896
1.01901
1.01906
1.01909
1.01907
1.01903
1.01895
1.01886
1.0188
1.01876
1.01877
1.01883
1.01892
1.01901
1.01907
1.01909
1.01909
1.01906
1.019
1.01898
1.01899
1.01902
1.01908
1.01914
1.0192
1.01924
1.01924
1.01922
1.01919
1.01915
1.01912
1.01911
1.01911
1.01911
1.01912
1.01912
1.0191
1.01908
1.01906
1.01903
1.01901
1.01901
1.01902
1.01902
1.01904
1.01905
1.01906
1.01905
1.01905
1.01905
1.01905
1.01906
1.01907
1.01908
1.01909
1.0191
1.01911
1.01911
1.0191
1.0191
1.01908
1.01906
1.01905
1.01905
1.01906
1.01907
1.01909
1.01911
1.01914
1.01914
1.01914
1.01914
1.01912
1.0191
1.01908
1.01908
1.01907
1.01908
1.0191
1.01911
1.0191
1.0191
1.01908
1.01906
1.01903
1.01902
1.01902
1.01903
1.01904
1.01907
1.01909
1.01911
1.01912
1.01911
1.01911
1.0191
1.0191
1.01909
1.0191
1.0191
1.0191
1.01911
1.0191
1.0191
1.01909
1.01909
1.01909
1.01908
1.01908
1.01908
1.01908
1.01908
1.01909
1.01909
1.0191
1.01911
1.01911
1.01911
1.0191
1.0191
1.01909
1.01908
1.01908
1.01908
1.01908
1.01908
1.01908
1.01908
1.01908
1.01905
1.01892
1.01884
1.01896
1.01956
1.02098
1.02319
1.0258
1.02837
1.03045
1.03201
1.03307
1.03376
1.0342
1.03448
1.03442
1.03423
1.03394
1.03365
1.03343
1.03328
1.03325
1.03326
1.03333
1.0334
1.03336
1.03317
1.03274
1.03192
1.03065
1.02922
1.02801
1.02706
1.02629
1.02562
1.02504
1.02452
1.02404
1.02359
1.02317
1.02278
1.02244
1.02215
1.02191
1.02171
1.02155
1.02142
1.02132
1.02125
1.0212
1.02116
1.02112
1.02108
1.02105
1.02102
1.02098
1.02093
1.02088
1.02084
1.02079
1.02073
1.02068
1.02062
1.02056
1.02051
1.02046
1.02045
1.02044
1.02043
1.02042
1.02042
1.02042
1.02042
1.02042
1.02042
1.02043
1.02042
1.02041
1.0204
1.02039
1.02038
1.02036
1.02034
1.02032
1.0203
1.02027
1.02024
1.02023
1.02021
1.0202
1.0202
1.0202
1.0202
1.02019
1.02018
1.02019
1.02019
1.02019
1.02019
1.02019
1.02019
1.02018
1.02015
1.02014
1.02013
1.02011
1.02009
1.02006
1.02004
1.02003
1.02
1.01998
1.01998
1.01997
1.01995
1.01992
1.0199
1.01985
1.01973
1.01959
1.01936
1.01898
1.01839
1.01751
1.01623
1.01436
1.01167
1.00795
1.00267
0.995478
0.98593
0.973634
0.958084
0.938822
0.916166
0.890634
0.863287
0.835732
0.810155
0.78901
0.774502
0.767873
0.766103
0.76537
0.765116
0.76508
0.765098
0.765208
0.76542
0.765722
0.766096
0.766376
0.766396
0.766345
0.766229
0.766081
0.765961
0.765894
0.765882
0.765893
0.765931
0.765976
0.765999
0.765994
0.765952
0.765864
0.76576