/*--------------------------------*- C++ -*----------------------------------*\
| =========                 |                                                 |
| \\      /  F ield         | OpenFOAM: The Open Source CFD Toolbox           |
|  \\    /   O peration     | Version:  2406                                  |
|   \\  /    A nd           | Website:  www.openfoam.com                      |
|    \\/     M anipulation  |                                                 |
\*---------------------------------------------------------------------------*/
FoamFile
{
    version     2.0;
    format      ascii;
    arch        "LSB;label=32;scalar=64";
    class       volScalarField;
    location    "0.04";
    object      p;
}
// * * * * * * * * * * * * * * * * * * * * * * * * * * * * * * * * * * * * * //

dimensions      [1 -1 -2 0 0 0 0];

internalField   nonuniform List<scalar> 
13962
(
289825
289825
289825
289825
289825
289825
289825
289825
289825
289825
289825
289825
289825
289825
289825
289825
289825
289825
289825
289830
289958
292947
314934
329359
329882
329926
329957
329987
329995
329993
330021
330045
330072
330098
330117
330128
330149
330160
330173
330187
330206
330204
330186
330174
330154
330135
330125
330127
330120
330114
330107
330096
330081
330074
330065
330059
330057
330059
330074
330080
330085
330089
330094
330096
330089
330086
330082
330080
330074
330073
330075
330077
330078
330083
330090
330094
330099
330106
330111
330114
330114
330114
330112
330107
330106
330105
330104
330104
330105
330101
330096
330090
330080
330068
330055
330052
330054
330058
330064
330073
330084
330094
330095
330094
330094
330093
330091
330091
330093
330094
330095
330096
330093
330090
330088
330087
330084
330081
330081
330082
330082
330083
330086
330090
330098
330102
330103
330104
330104
330101
330095
330091
330089
330088
330088
330086
330086
330084
330081
330075
330071
330071
330073
330076
330080
330086
330092
330097
330097
330097
330097
330097
330097
330097
330096
330096
330094
330091
330089
330086
330083
330081
330090
330139
330166
330122
329898
329363
328537
327551
326569
325747
325129
324748
324515
324388
324310
324317
324360
324442
324531
324603
324645
324654
324657
324641
324648
324665
324727
324882
325194
325677
326221
326690
327054
327347
327598
327818
328017
328198
328363
328515
328653
328777
328887
328979
329054
329115
329164
329203
329232
329255
329274
329293
329312
329329
329345
329363
329382
329400
329417
329434
329454
329473
329489
329504
329518
329529
329534
329537
329540
329544
329544
329547
329551
329557
329561
329564
329568
329574
329576
329579
329584
329592
329600
329606
329612
329620
329626
329626
329627
329629
329631
329631
329630
329633
329639
329642
329647
329654
329661
329662
329663
329667
329675
329680
329684
329690
329695
329700
329701
329704
329710
329716
329721
329728
329731
329738
329744
329744
329749
329759
329769
329772
329779
329779
329786
329786
329789
329797
329798
329802
329815
329839
329875
329914
329969
330031
330079
330098
330071
329920
329716
329892
329982
329739
329646
329635
329630
329642
329676
329734
329833
329899
329859
329814
329747
329675
329622
329603
329624
329660
329708
329757
329782
329786
329767
329718
329654
329618
329610
329609
329626
329663
329701
329713
329709
329697
329669
329629
329591
329572
329575
329583
329599
329619
329629
329629
329623
329606
329577
329548
329534
329531
329532
329542
329554
329558
329558
329554
329543
329524
329501
329483
329478
329480
329484
329488
329491
329493
329486
329473
329455
329438
329427
329420
329418
329422
329428
329430
329425
329416
329405
329391
329376
329361
329351
329350
329348
329344
329339
329331
329319
329305
329290
329275
329263
329255
329250
329247
329243
329237
329229
329217
329204
329189
329175
329163
329154
329148
329143
329138
329131
329121
329110
329096
329081
329067
329056
329048
329043
329039
329035
329030
329022
329012
329000
328985
328969
328954
328942
328932
328923
328915
328907
328898
328886
328871
328853
328833
328815
328807
328804
328804
328805
328807
328810
328814
328820
328826
328833
328840
328848
328856
328865
328876
328888
328901
328915
328931
328947
328965
328984
329005
289825
289825
289825
289825
289825
289825
289825
289825
289825
289825
289825
289825
289825
289825
289825
289825
289825
289825
289825
289830
289958
292947
314934
329359
329882
329926
329957
329987
329995
329993
330021
330045
330072
330098
330117
330128
330149
330160
330173
330187
330206
330204
330186
330174
330154
330135
330125
330127
330120
330114
330107
330096
330081
330074
330065
330059
330057
330059
330074
330080
330085
330089
330094
330096
330089
330086
330082
330080
330074
330073
330075
330077
330078
330083
330090
330094
330099
330106
330111
330114
330114
330114
330112
330107
330106
330105
330104
330104
330105
330101
330096
330090
330080
330068
330055
330052
330054
330058
330064
330073
330084
330094
330095
330094
330094
330093
330091
330091
330093
330094
330095
330096
330093
330090
330088
330087
330084
330081
330081
330082
330082
330083
330086
330090
330098
330102
330103
330104
330104
330101
330095
330091
330089
330088
330088
330086
330086
330084
330081
330075
330071
330071
330073
330076
330080
330086
330092
330097
330097
330097
330097
330097
330097
330097
330096
330096
330094
330091
330089
330086
330083
330081
330090
330139
330166
330123
329898
329362
328534
327546
326567
325753
325142
324759
324517
324380
324295
324303
324353
324441
324535
324610
324655
324663
324664
324644
324644
324662
324725
324880
325192
325676
326220
326689
327052
327346
327597
327818
328016
328197
328362
328514
328653
328777
328887
328979
329054
329114
329164
329203
329232
329255
329274
329293
329312
329328
329345
329363
329382
329400
329417
329434
329454
329473
329489
329504
329518
329529
329534
329537
329540
329544
329544
329547
329551
329557
329561
329564
329568
329574
329576
329579
329584
329592
329600
329606
329612
329620
329626
329626
329628
329629
329631
329631
329630
329633
329639
329642
329647
329654
329661
329662
329663
329667
329675
329680
329684
329690
329695
329700
329701
329704
329710
329716
329721
329728
329731
329738
329744
329743
329748
329760
329769
329772
329778
329779
329786
329785
329789
329796
329796
329799
329812
329835
329868
329906
329961
330023
330072
330093
330070
329930
329727
329896
329990
329745
329646
329635
329630
329643
329676
329735
329832
329898
329858
329814
329747
329676
329623
329604
329624
329660
329708
329756
329782
329786
329767
329718
329654
329618
329610
329610
329626
329663
329701
329713
329709
329697
329669
329629
329591
329572
329575
329583
329599
329619
329629
329629
329623
329606
329577
329548
329534
329531
329532
329542
329554
329558
329558
329554
329543
329524
329501
329483
329478
329480
329484
329488
329491
329494
329487
329473
329455
329439
329428
329421
329418
329421
329427
329429
329425
329415
329404
329390
329375
329361
329351
329350
329348
329344
329339
329330
329319
329305
329290
329275
329263
329255
329250
329247
329243
329237
329229
329217
329204
329189
329175
329163
329154
329147
329142
329137
329131
329121
329110
329096
329081
329067
329056
329048
329043
329039
329035
329030
329022
329012
328999
328985
328969
328954
328942
328932
328923
328915
328907
328898
328886
328871
328853
328833
328815
328807
328804
328804
328805
328807
328810
328814
328820
328826
328833
328840
328848
328856
328865
328876
328888
328901
328915
328931
328947
328965
328984
329005
289825
289825
289825
289825
289825
289825
289825
289825
289825
289825
289825
289825
289825
289825
289825
289825
289825
289825
289825
289830
289958
292947
314934
329359
329882
329926
329957
329987
329995
329993
330021
330045
330072
330098
330117
330128
330149
330160
330173
330187
330206
330204
330186
330174
330154
330135
330125
330127
330120
330114
330107
330096
330081
330074
330065
330059
330057
330059
330074
330080
330085
330089
330094
330096
330089
330086
330082
330080
330074
330073
330075
330077
330078
330083
330090
330094
330099
330106
330111
330114
330114
330114
330112
330107
330106
330105
330104
330104
330105
330101
330096
330090
330080
330068
330055
330052
330054
330058
330064
330073
330084
330094
330095
330094
330094
330093
330091
330091
330093
330094
330095
330096
330093
330090
330088
330087
330084
330081
330081
330082
330082
330083
330086
330090
330098
330102
330103
330104
330104
330101
330095
330091
330089
330088
330088
330086
330086
330084
330081
330075
330071
330071
330073
330076
330080
330086
330092
330097
330097
330097
330097
330097
330097
330096
330096
330096
330094
330091
330089
330086
330083
330081
330089
330140
330167
330123
329898
329361
328530
327543
326565
325759
325154
324769
324520
324373
324282
324292
324347
324440
324538
324616
324662
324672
324670
324648
324641
324659
324724
324880
325192
325675
326220
326688
327051
327345
327597
327818
328016
328196
328362
328514
328653
328778
328887
328978
329053
329114
329164
329203
329232
329255
329274
329293
329312
329328
329345
329362
329382
329400
329417
329434
329454
329473
329489
329504
329518
329529
329534
329537
329540
329544
329544
329547
329551
329557
329561
329564
329568
329573
329576
329579
329584
329593
329600
329605
329612
329620
329626
329626
329628
329629
329631
329630
329630
329633
329639
329642
329647
329654
329661
329662
329663
329668
329675
329680
329684
329689
329695
329700
329702
329704
329710
329717
329721
329726
329731
329739
329742
329741
329749
329762
329768
329770
329777
329780
329788
329785
329789
329795
329795
329801
329815
329838
329870
329907
329964
330025
330074
330094
330072
329938
329726
329886
329992
329751
329646
329636
329631
329644
329678
329736
329831
329897
329857
329813
329746
329676
329623
329604
329625
329661
329709
329757
329782
329786
329766
329718
329654
329618
329610
329610
329626
329663
329701
329713
329709
329697
329669
329630
329591
329572
329575
329583
329599
329619
329629
329629
329623
329606
329577
329548
329535
329531
329533
329542
329554
329558
329558
329554
329543
329524
329501
329483
329477
329480
329484
329488
329492
329494
329487
329472
329455
329440
329429
329421
329419
329422
329427
329428
329424
329415
329403
329389
329375
329361
329351
329350
329349
329345
329339
329330
329319
329305
329289
329275
329263
329255
329250
329247
329243
329238
329229
329218
329204
329189
329175
329163
329154
329147
329142
329137
329131
329121
329110
329096
329081
329067
329056
329048
329043
329039
329035
329030
329022
329012
328999
328985
328969
328954
328942
328932
328923
328915
328907
328898
328886
328871
328853
328833
328815
328807
328804
328804
328805
328807
328810
328814
328820
328826
328833
328840
328848
328856
328865
328876
328888
328901
328915
328931
328947
328965
328984
329005
289825
289825
289825
289825
289825
289825
289825
289825
289825
289825
289825
289825
289825
289825
289825
289825
289825
289825
289825
289830
289958
292947
314934
329359
329882
329926
329957
329987
329995
329993
330021
330045
330072
330098
330117
330128
330149
330160
330173
330187
330206
330204
330186
330174
330154
330135
330125
330127
330120
330114
330107
330096
330081
330074
330065
330059
330057
330059
330074
330080
330085
330089
330094
330096
330089
330086
330082
330080
330074
330073
330075
330077
330078
330083
330090
330094
330099
330106
330111
330114
330114
330114
330112
330107
330106
330105
330104
330104
330105
330101
330096
330090
330080
330068
330055
330052
330054
330058
330064
330073
330084
330094
330095
330094
330094
330093
330091
330091
330093
330094
330095
330096
330093
330090
330088
330087
330084
330081
330081
330082
330082
330083
330086
330090
330098
330102
330103
330104
330104
330101
330095
330091
330089
330088
330088
330086
330086
330084
330081
330075
330071
330071
330073
330076
330080
330086
330092
330097
330097
330097
330097
330097
330097
330096
330096
330096
330094
330091
330089
330086
330083
330081
330089
330140
330167
330124
329898
329360
328527
327539
326563
325765
325164
324776
324521
324366
324270
324282
324343
324439
324540
324621
324669
324679
324676
324652
324638
324656
324723
324880
325191
325675
326220
326687
327050
327344
327597
327819
328016
328195
328360
328513
328653
328778
328887
328978
329053
329114
329163
329203
329232
329255
329274
329293
329312
329328
329345
329362
329382
329400
329417
329434
329454
329472
329488
329504
329518
329529
329534
329537
329540
329544
329544
329547
329551
329557
329561
329564
329568
329573
329576
329579
329585
329593
329600
329605
329612
329620
329626
329626
329628
329629
329631
329630
329630
329633
329639
329642
329647
329654
329661
329662
329663
329668
329676
329680
329683
329689
329695
329700
329702
329704
329711
329717
329720
329725
329731
329740
329740
329740
329752
329764
329766
329767
329776
329782
329790
329784
329789
329791
329792
329800
329813
329838
329868
329903
329956
330014
330065
330086
330065
329939
329726
329885
329998
329756
329645
329635
329631
329645
329680
329737
329831
329896
329856
329812
329745
329675
329623
329605
329626
329662
329710
329757
329782
329786
329766
329717
329654
329618
329610
329610
329626
329663
329701
329713
329709
329697
329669
329630
329592
329572
329575
329583
329599
329619
329629
329629
329623
329606
329577
329548
329535
329531
329533
329542
329554
329558
329558
329554
329543
329524
329502
329483
329477
329479
329484
329488
329492
329494
329487
329471
329455
329441
329430
329421
329420
329423
329426
329426
329423
329415
329402
329389
329375
329361
329351
329349
329349
329346
329339
329330
329319
329304
329289
329274
329263
329255
329250
329247
329244
329238
329229
329218
329204
329189
329175
329163
329153
329147
329142
329137
329130
329121
329110
329096
329081
329068
329056
329048
329043
329039
329035
329030
329022
329012
328999
328985
328969
328954
328942
328932
328923
328915
328907
328898
328886
328871
328853
328833
328815
328807
328804
328804
328805
328807
328810
328814
328820
328826
328833
328840
328848
328856
328865
328876
328888
328901
328915
328931
328947
328965
328984
329005
289825
289825
289825
289825
289825
289825
289825
289825
289825
289825
289825
289825
289825
289825
289825
289825
289825
289825
289825
289830
289958
292947
314934
329359
329882
329926
329957
329987
329995
329993
330021
330045
330072
330098
330117
330128
330149
330160
330173
330187
330206
330204
330186
330174
330154
330135
330125
330127
330120
330114
330107
330096
330081
330074
330065
330059
330057
330059
330074
330080
330085
330089
330094
330096
330089
330086
330082
330080
330074
330073
330075
330077
330078
330083
330090
330094
330099
330106
330111
330114
330114
330114
330112
330107
330106
330105
330104
330104
330105
330101
330096
330090
330080
330068
330055
330052
330054
330058
330064
330073
330084
330094
330095
330094
330094
330093
330091
330091
330093
330094
330095
330096
330093
330090
330088
330087
330084
330081
330081
330082
330082
330083
330086
330090
330098
330102
330103
330104
330104
330101
330095
330091
330089
330088
330088
330086
330086
330084
330081
330075
330071
330071
330073
330076
330080
330086
330092
330097
330097
330097
330097
330097
330097
330096
330096
330096
330094
330091
330089
330086
330083
330081
330089
330140
330168
330124
329898
329359
328524
327537
326562
325769
325174
324782
324523
324361
324260
324273
324339
324438
324542
324625
324675
324686
324681
324655
324636
324653
324721
324880
325191
325674
326219
326685
327048
327344
327598
327819
328015
328194
328359
328513
328654
328779
328887
328977
329052
329113
329163
329203
329232
329255
329274
329293
329312
329328
329344
329362
329382
329400
329417
329434
329454
329472
329488
329504
329519
329529
329534
329537
329540
329543
329544
329547
329551
329557
329561
329564
329568
329573
329576
329580
329585
329593
329599
329605
329612
329620
329626
329627
329628
329629
329631
329630
329630
329633
329639
329642
329647
329654
329661
329662
329663
329668
329676
329680
329683
329688
329695
329701
329702
329704
329711
329718
329720
329723
329731
329740
329738
329740
329754
329765
329765
329767
329776
329784
329791
329785
329792
329790
329792
329802
329814
329836
329857
329898
329961
330020
330073
330103
330084
329949
329724
329882
330002
329759
329643
329633
329631
329645
329681
329738
329831
329895
329855
329811
329745
329675
329623
329605
329626
329662
329710
329758
329782
329786
329766
329717
329653
329618
329610
329610
329626
329663
329701
329713
329709
329697
329669
329630
329592
329573
329575
329583
329599
329619
329629
329629
329623
329606
329577
329548
329535
329531
329533
329542
329554
329558
329558
329554
329542
329524
329502
329483
329476
329479
329483
329488
329492
329494
329486
329472
329457
329443
329431
329421
329421
329423
329425
329425
329422
329415
329401
329388
329375
329362
329352
329349
329350
329346
329339
329330
329318
329304
329288
329274
329262
329254
329250
329247
329244
329238
329230
329218
329204
329189
329175
329163
329153
329147
329142
329137
329130
329121
329110
329096
329082
329068
329056
329048
329043
329039
329035
329030
329022
329012
328999
328984
328969
328954
328942
328932
328923
328916
328907
328898
328886
328871
328853
328833
328815
328807
328804
328804
328805
328807
328810
328814
328820
328826
328833
328840
328848
328856
328865
328876
328888
328901
328915
328931
328947
328965
328984
329005
289825
289825
289825
289825
289825
289825
289825
289825
289825
289825
289825
289825
289825
289825
289825
289825
289825
289825
289825
289830
289958
292947
314934
329359
329882
329926
329957
329987
329995
329993
330021
330045
330072
330098
330117
330128
330149
330160
330173
330187
330206
330204
330186
330174
330154
330135
330125
330127
330120
330114
330107
330096
330081
330074
330065
330059
330057
330059
330074
330080
330085
330089
330094
330096
330089
330086
330082
330080
330074
330073
330075
330077
330078
330083
330090
330094
330099
330106
330111
330114
330114
330114
330112
330107
330106
330105
330104
330104
330105
330101
330096
330090
330080
330068
330055
330052
330054
330058
330064
330073
330084
330094
330095
330094
330094
330093
330091
330091
330093
330094
330095
330096
330093
330090
330088
330087
330084
330081
330081
330082
330082
330083
330086
330090
330098
330102
330103
330104
330104
330101
330095
330091
330089
330088
330088
330086
330086
330084
330081
330075
330071
330071
330073
330076
330080
330086
330092
330097
330097
330097
330097
330097
330097
330096
330096
330096
330094
330091
330089
330086
330083
330081
330089
330140
330168
330124
329898
329359
328522
327534
326562
325774
325181
324786
324524
324357
324252
324266
324335
324438
324543
324628
324680
324691
324686
324658
324634
324650
324720
324880
325191
325674
326219
326683
327047
327344
327599
327820
328014
328192
328358
328513
328655
328780
328887
328977
329051
329113
329163
329203
329233
329254
329274
329293
329312
329328
329344
329362
329381
329400
329417
329434
329453
329472
329488
329504
329519
329529
329534
329537
329539
329543
329544
329547
329551
329557
329561
329564
329567
329573
329576
329580
329585
329593
329599
329605
329611
329620
329627
329627
329628
329628
329631
329630
329629
329633
329639
329642
329647
329654
329661
329662
329663
329668
329676
329680
329682
329687
329695
329701
329703
329704
329711
329718
329720
329722
329730
329739
329737
329741
329757
329765
329765
329768
329777
329785
329791
329786
329793
329786
329793
329807
329814
329828
329848
329899
329954
330015
330072
330095
330076
329941
329717
329880
330004
329761
329643
329633
329631
329646
329681
329738
329831
329894
329854
329811
329744
329674
329622
329605
329626
329663
329711
329758
329783
329786
329766
329717
329653
329618
329610
329610
329626
329663
329701
329713
329709
329697
329669
329630
329592
329573
329575
329583
329599
329619
329629
329629
329623
329606
329577
329548
329535
329532
329533
329542
329554
329558
329558
329554
329542
329524
329502
329484
329476
329479
329483
329489
329492
329493
329486
329473
329458
329444
329430
329421
329421
329423
329424
329424
329422
329415
329402
329386
329374
329362
329353
329350
329351
329347
329340
329330
329318
329303
329288
329273
329262
329254
329250
329248
329244
329238
329230
329218
329204
329189
329175
329162
329153
329146
329141
329137
329130
329121
329110
329096
329082
329068
329056
329048
329043
329039
329035
329030
329022
329012
328999
328984
328969
328954
328942
328932
328923
328916
328907
328898
328886
328871
328853
328833
328815
328807
328804
328804
328805
328807
328810
328814
328820
328826
328833
328840
328848
328856
328865
328876
328888
328901
328915
328931
328947
328965
328984
329005
289825
289825
289825
289825
289825
289825
289825
289825
289825
289825
289825
289825
289825
289825
289825
289825
289825
289825
289825
289830
289958
292947
314934
329359
329882
329926
329957
329987
329995
329993
330021
330045
330072
330098
330117
330128
330149
330160
330173
330187
330206
330204
330186
330174
330154
330135
330125
330127
330120
330114
330107
330096
330081
330074
330065
330059
330057
330059
330074
330080
330085
330089
330094
330096
330089
330086
330082
330080
330074
330073
330075
330077
330078
330083
330090
330094
330099
330106
330111
330114
330114
330114
330112
330107
330106
330105
330104
330104
330105
330101
330096
330090
330080
330068
330055
330052
330054
330058
330064
330073
330084
330094
330095
330094
330094
330093
330091
330091
330093
330094
330095
330096
330093
330090
330088
330087
330084
330081
330081
330082
330082
330083
330086
330090
330098
330102
330103
330104
330104
330101
330095
330091
330089
330088
330088
330086
330086
330084
330081
330075
330071
330071
330073
330076
330080
330086
330092
330097
330097
330097
330097
330097
330097
330096
330096
330096
330094
330091
330089
330086
330083
330081
330089
330140
330168
330124
329898
329358
328520
327532
326562
325777
325187
324790
324525
324354
324246
324261
324332
324437
324544
324630
324684
324695
324689
324660
324632
324648
324719
324880
325191
325674
326219
326682
327045
327343
327600
327820
328014
328191
328357
328513
328656
328781
328887
328976
329051
329112
329163
329203
329233
329254
329273
329293
329312
329328
329344
329362
329381
329400
329417
329434
329453
329472
329488
329504
329519
329530
329534
329536
329539
329543
329544
329547
329551
329557
329561
329564
329567
329573
329576
329580
329585
329593
329599
329604
329611
329620
329627
329627
329628
329628
329631
329630
329629
329633
329639
329642
329647
329654
329661
329662
329663
329668
329677
329681
329682
329687
329694
329701
329703
329705
329712
329719
329720
329721
329729
329738
329736
329743
329759
329765
329765
329770
329780
329785
329790
329789
329797
329782
329795
329816
329834
329832
329838
329895
329953
330023
330078
330099
330078
329943
329719
329880
330004
329761
329643
329634
329633
329647
329682
329737
329829
329893
329854
329811
329745
329674
329622
329605
329626
329663
329712
329759
329783
329787
329766
329716
329652
329617
329609
329609
329626
329663
329701
329713
329709
329696
329669
329630
329592
329573
329576
329584
329599
329619
329629
329629
329623
329606
329577
329548
329535
329532
329533
329542
329554
329558
329558
329554
329542
329523
329502
329484
329476
329479
329483
329488
329492
329492
329485
329473
329460
329447
329431
329422
329422
329423
329423
329423
329421
329415
329401
329385
329374
329363
329356
329352
329351
329348
329341
329330
329318
329304
329288
329273
329261
329254
329250
329248
329244
329239
329230
329219
329204
329189
329175
329162
329153
329146
329141
329136
329130
329121
329110
329096
329082
329068
329056
329049
329043
329039
329035
329030
329022
329012
328999
328984
328969
328954
328942
328932
328923
328916
328907
328898
328886
328871
328853
328833
328815
328807
328804
328804
328805
328807
328810
328814
328820
328826
328833
328840
328848
328856
328865
328876
328888
328901
328916
328931
328947
328965
328984
329005
289825
289825
289825
289825
289825
289825
289825
289825
289825
289825
289825
289825
289825
289825
289825
289825
289825
289825
289825
289830
289958
292947
314934
329359
329882
329926
329957
329987
329995
329993
330021
330045
330072
330098
330117
330128
330149
330160
330173
330187
330206
330204
330186
330174
330154
330135
330125
330127
330120
330114
330107
330096
330081
330074
330065
330059
330057
330059
330074
330080
330085
330089
330094
330096
330089
330086
330082
330080
330074
330073
330075
330077
330078
330083
330090
330094
330099
330106
330111
330114
330114
330114
330112
330107
330106
330105
330104
330104
330105
330101
330096
330090
330080
330068
330055
330052
330054
330058
330064
330073
330084
330094
330095
330094
330094
330093
330091
330091
330093
330094
330095
330096
330093
330090
330088
330087
330084
330081
330081
330082
330082
330083
330086
330090
330098
330102
330103
330104
330104
330101
330095
330091
330089
330088
330088
330086
330086
330084
330081
330075
330071
330071
330073
330076
330080
330086
330092
330097
330097
330097
330097
330097
330097
330096
330096
330096
330094
330091
330089
330086
330083
330081
330089
330140
330169
330125
329898
329358
328519
327531
326562
325779
325191
324791
324526
324353
324243
324258
324329
324436
324545
324632
324686
324698
324691
324662
324631
324646
324718
324881
325192
325675
326219
326682
327045
327343
327600
327821
328014
328191
328357
328513
328656
328781
328887
328976
329050
329112
329163
329203
329233
329254
329273
329293
329312
329328
329344
329362
329381
329400
329418
329435
329453
329471
329488
329504
329519
329530
329534
329536
329539
329543
329544
329548
329551
329557
329561
329564
329567
329572
329576
329580
329585
329593
329599
329604
329611
329620
329627
329627
329628
329628
329630
329629
329629
329633
329639
329642
329647
329654
329661
329662
329663
329668
329677
329681
329681
329686
329694
329701
329704
329705
329712
329719
329720
329720
329728
329737
329735
329743
329759
329764
329766
329773
329782
329785
329789
329791
329799
329776
329796
329821
329850
329836
329822
329886
329948
330021
330074
330095
330076
329944
329725
329877
329996
329760
329645
329636
329635
329649
329683
329737
329828
329893
329853
329811
329745
329674
329621
329604
329626
329663
329712
329759
329784
329787
329766
329716
329652
329617
329609
329609
329626
329663
329701
329713
329709
329696
329669
329629
329592
329573
329576
329584
329599
329619
329629
329628
329623
329606
329577
329548
329535
329532
329533
329542
329554
329558
329558
329554
329541
329523
329503
329484
329477
329479
329483
329488
329491
329491
329485
329474
329460
329445
329430
329423
329423
329422
329423
329422
329424
329419
329406
329388
329376
329365
329357
329354
329352
329349
329341
329331
329318
329302
329286
329272
329261
329254
329250
329248
329244
329239
329230
329219
329204
329189
329175
329162
329153
329146
329141
329136
329130
329121
329110
329096
329082
329068
329056
329049
329044
329039
329035
329030
329022
329012
328999
328984
328969
328954
328941
328932
328923
328916
328907
328898
328886
328871
328853
328833
328815
328807
328804
328804
328805
328807
328810
328814
328820
328826
328833
328840
328848
328856
328865
328876
328888
328901
328916
328931
328947
328965
328984
329005
289825
289825
289825
289825
289825
289825
289825
289825
289825
289825
289825
289825
289825
289825
289825
289825
289825
289825
289825
289830
289958
292947
314934
329359
329881
329926
329957
329987
329995
329993
330021
330045
330072
330098
330117
330128
330149
330160
330173
330187
330206
330204
330186
330174
330154
330135
330125
330127
330120
330114
330107
330096
330081
330074
330065
330059
330057
330059
330074
330080
330085
330089
330094
330096
330089
330086
330082
330080
330074
330073
330075
330077
330078
330083
330090
330094
330099
330106
330111
330114
330114
330114
330112
330107
330106
330105
330104
330104
330105
330101
330096
330090
330080
330068
330055
330052
330054
330058
330064
330073
330084
330094
330095
330094
330094
330093
330091
330091
330093
330094
330095
330096
330093
330090
330088
330087
330084
330081
330081
330082
330082
330083
330086
330090
330098
330102
330103
330104
330104
330101
330095
330091
330089
330088
330088
330086
330086
330084
330081
330075
330071
330071
330073
330076
330080
330086
330092
330097
330097
330097
330097
330097
330097
330096
330096
330096
330094
330091
330089
330086
330083
330081
330089
330140
330169
330125
329897
329358
328518
327530
326562
325781
325192
324791
324526
324352
324238
324257
324328
324437
324546
324633
324686
324698
324692
324661
324630
324645
324718
324881
325192
325675
326219
326681
327044
327342
327600
327821
328014
328190
328356
328513
328657
328782
328887
328975
329050
329112
329163
329203
329233
329254
329273
329293
329312
329328
329344
329362
329381
329400
329418
329434
329453
329471
329488
329504
329519
329530
329534
329536
329539
329543
329544
329548
329551
329557
329561
329564
329567
329572
329576
329580
329585
329593
329599
329604
329611
329620
329627
329627
329628
329628
329630
329629
329629
329634
329640
329642
329647
329654
329661
329662
329663
329668
329678
329681
329681
329686
329694
329702
329704
329705
329713
329720
329720
329719
329728
329737
329735
329744
329760
329763
329766
329777
329782
329783
329787
329796
329799
329772
329807
329838
329877
329847
329804
329873
329934
330012
330073
330098
330077
329947
329732
329876
329990
329756
329643
329633
329630
329646
329680
329735
329827
329892
329853
329811
329745
329674
329621
329604
329626
329663
329712
329760
329784
329787
329766
329716
329652
329617
329609
329609
329626
329663
329701
329713
329709
329696
329669
329629
329592
329573
329576
329584
329599
329619
329629
329628
329623
329606
329577
329548
329535
329532
329533
329542
329554
329558
329558
329554
329541
329523
329503
329484
329477
329479
329483
329488
329492
329492
329487
329477
329465
329449
329431
329425
329422
329422
329422
329418
329421
329410
329395
329380
329370
329361
329356
329354
329353
329350
329343
329333
329320
329304
329287
329271
329260
329253
329250
329248
329244
329239
329230
329219
329204
329189
329175
329162
329152
329146
329141
329136
329130
329121
329110
329096
329082
329068
329056
329049
329044
329039
329035
329030
329022
329012
328999
328984
328969
328954
328941
328932
328923
328916
328907
328898
328886
328871
328853
328833
328816
328807
328804
328804
328805