/*--------------------------------*- C++ -*----------------------------------*\
| =========                 |                                                 |
| \\      /  F ield         | OpenFOAM: The Open Source CFD Toolbox           |
|  \\    /   O peration     | Version:  2406                                  |
|   \\  /    A nd           | Website:  www.openfoam.com                      |
|    \\/     M anipulation  |                                                 |
\*---------------------------------------------------------------------------*/
FoamFile
{
    version     2.0;
    format      ascii;
    arch        "LSB;label=32;scalar=64";
    class       volScalarField;
    location    "0.04";
    object      rho;
}
// * * * * * * * * * * * * * * * * * * * * * * * * * * * * * * * * * * * * * //

dimensions      [1 -3 0 0 0 0 0];

internalField   nonuniform List<scalar> 
13962
(
4.32005
4.32005
4.32005
4.32005
4.32005
4.32005
4.32005
4.32005
4.32005
4.32005
4.32005
4.32005
4.32005
4.32005
4.32005
4.32005
4.32005
4.32005
4.32005
4.3201
4.32147
4.35323
4.58375
4.73048
4.73848
4.73968
4.74001
4.73983
4.73902
4.73823
4.73827
4.7386
4.7391
4.73977
4.74057
4.74127
4.74167
4.74174
4.74162
4.74116
4.74061
4.74026
4.74004
4.74008
4.74028
4.74074
4.74122
4.74138
4.74127
4.741
4.74046
4.73975
4.7393
4.73919
4.73918
4.73938
4.73983
4.74028
4.74056
4.7406
4.74051
4.74025
4.73991
4.73972
4.73961
4.73964
4.73977
4.74003
4.7402
4.74025
4.74025
4.74019
4.74002
4.73985
4.73981
4.73985
4.73995
4.74013
4.74035
4.74049
4.74051
4.74049
4.7404
4.74022
4.74009
4.74004
4.74004
4.74008
4.74019
4.74027
4.74028
4.74022
4.74008
4.73987
4.73964
4.73953
4.73953
4.73958
4.7397
4.73989
4.74012
4.74026
4.74028
4.74024
4.74016
4.74004
4.73993
4.7399
4.73993
4.73998
4.74008
4.7402
4.74025
4.74025
4.74022
4.74016
4.74005
4.73991
4.73984
4.73985
4.73987
4.73993
4.74005
4.74019
4.74031
4.74037
4.74036
4.74032
4.74024
4.74014
4.74005
4.74
4.74
4.74003
4.74009
4.74012
4.74012
4.74011
4.74005
4.73996
4.73988
4.73985
4.73986
4.7399
4.73997
4.74005
4.74014
4.74019
4.74019
4.74017
4.74015
4.74013
4.74012
4.74011
4.74012
4.74013
4.74013
4.74011
4.74009
4.74006
4.74001
4.73997
4.74004
4.74051
4.7408
4.74037
4.7381
4.73263
4.72419
4.71408
4.704
4.69555
4.68917
4.68523
4.6828
4.68147
4.68066
4.68073
4.68118
4.68204
4.68298
4.68372
4.68416
4.68426
4.68427
4.6841
4.68416
4.68433
4.68496
4.68655
4.68977
4.69474
4.70035
4.70518
4.70892
4.71193
4.71451
4.71678
4.71881
4.72067
4.72236
4.72391
4.72533
4.72661
4.72773
4.72868
4.72946
4.73008
4.73059
4.73098
4.73129
4.73152
4.73171
4.7319
4.73209
4.73226
4.73243
4.73261
4.73281
4.733
4.73317
4.73335
4.73355
4.73375
4.73391
4.73406
4.7342
4.73431
4.73436
4.73439
4.73442
4.73447
4.73447
4.7345
4.73454
4.7346
4.73464
4.73466
4.7347
4.73476
4.73479
4.73482
4.73487
4.73496
4.73504
4.7351
4.73517
4.73525
4.73531
4.73531
4.73532
4.73533
4.73535
4.73534
4.73534
4.73537
4.73543
4.73547
4.73552
4.73559
4.73566
4.73567
4.73568
4.73571
4.73578
4.73583
4.73587
4.73592
4.73598
4.73602
4.73604
4.73607
4.73613
4.73619
4.73621
4.73623
4.73617
4.73607
4.73585
4.73536
4.73459
4.73335
4.7313
4.72793
4.72272
4.71467
4.70267
4.6849
4.6593
4.62314
4.5731
4.50569
4.41738
4.30499
4.16649
4.00164
3.81307
3.60651
3.39131
3.1805
2.99022
2.83759
2.73672
2.69017
2.67733
2.67442
2.67382
2.67396
2.67443
2.67539
2.67688
2.67879
2.68092
2.68251
2.68295
2.68298
2.68264
2.68212
2.68165
2.68131
2.68108
2.6809
2.68082
2.68083
2.6808
2.68074
2.68059
2.6803
2.67999
2.67988
2.67994
2.68006
2.68028
2.68059
2.68088
2.68098
2.68097
2.68088
2.68067
2.68037
2.68008
2.6799
2.67984
2.67982
2.67986
2.67996
2.68001
2.68001
2.67999
2.67993
2.67981
2.6797
2.67968
2.6797
2.67974
2.67981
2.67989
2.6799
2.67988
2.67983
2.67973
2.67958
2.67941
2.67928
2.67923
2.67923
2.67924
2.67926
2.67929
2.6793
2.67928
2.67921
2.67911
2.67903
2.67898
2.67896
2.67898
2.67905
2.67918
2.67932
2.67947
2.67966
2.67992
2.68023
2.68058
2.68092
2.68119
2.68138
2.68144
2.68142
2.68136
2.68125
2.68109
2.68087
2.6806
2.68031
2.68002
2.67978
2.67959
2.67945
2.67936
2.67929
2.67921
2.67911
2.679
2.67888
2.67876
2.67864
2.67854
2.67846
2.67839
2.67833
2.67826
2.67819
2.6781
2.67801
2.67792
2.67783
2.67776
2.67771
2.67767
2.67763
2.67759
2.67753
2.67747
2.67739
2.67729
2.67718
2.67707
2.67697
2.67688
2.67681
2.67676
2.67671
2.67666
2.67661
2.67654
2.67646
2.67636
2.67624
2.67614
2.67608
2.67607
2.67606
2.67605
2.67605
2.67605
2.67606
2.67608
2.6761
2.67613
2.67616
2.6762
2.67624
2.6763
2.67636
2.67643
2.67651
2.6766
2.67669
2.67678
2.67688
2.67699
2.67711
4.32005
4.32005
4.32005
4.32005
4.32005
4.32005
4.32005
4.32005
4.32005
4.32005
4.32005
4.32005
4.32005
4.32005
4.32005
4.32005
4.32005
4.32005
4.32005
4.3201
4.32147
4.35323
4.58375
4.73048
4.73848
4.73968
4.74001
4.73983
4.73902
4.73823
4.73827
4.7386
4.7391
4.73977
4.74057
4.74127
4.74167
4.74174
4.74162
4.74116
4.74061
4.74026
4.74004
4.74008
4.74028
4.74074
4.74122
4.74138
4.74127
4.741
4.74046
4.73975
4.7393
4.73919
4.73918
4.73938
4.73983
4.74028
4.74056
4.7406
4.74051
4.74025
4.73991
4.73972
4.73961
4.73964
4.73977
4.74003
4.7402
4.74025
4.74025
4.74019
4.74002
4.73985
4.73981
4.73985
4.73995
4.74013
4.74035
4.74049
4.74051
4.74049
4.7404
4.74022
4.74009
4.74004
4.74004
4.74008
4.74019
4.74027
4.74028
4.74022
4.74008
4.73987
4.73964
4.73953
4.73953
4.73958
4.7397
4.73989
4.74012
4.74026
4.74028
4.74024
4.74016
4.74004
4.73993
4.7399
4.73993
4.73998
4.74008
4.7402
4.74025
4.74025
4.74022
4.74016
4.74005
4.73991
4.73984
4.73985
4.73987
4.73993
4.74005
4.74019
4.74031
4.74037
4.74036
4.74032
4.74024
4.74014
4.74005
4.74
4.74
4.74003
4.74009
4.74012
4.74012
4.74011
4.74005
4.73996
4.73988
4.73985
4.73986
4.7399
4.73997
4.74005
4.74014
4.74019
4.74019
4.74017
4.74015
4.74013
4.74012
4.74011
4.74012
4.74013
4.74013
4.74011
4.74009
4.74006
4.74001
4.73997
4.74004
4.74052
4.74081
4.74038
4.7381
4.73262
4.72416
4.71404
4.70398
4.69561
4.6893
4.68534
4.68283
4.68138
4.68051
4.68059
4.68111
4.68203
4.68301
4.68379
4.68425
4.68435
4.68434
4.68413
4.68413
4.6843
4.68495
4.68654
4.68975
4.69473
4.70034
4.70517
4.70891
4.71192
4.71451
4.71678
4.71881
4.72066
4.72235
4.72391
4.72533
4.7266
4.72773
4.72868
4.72945
4.73007
4.73058
4.73098
4.73129
4.73151
4.73171
4.7319
4.73209
4.73226
4.73243
4.73261
4.73281
4.733
4.73317
4.73335
4.73355
4.73374
4.73391
4.73406
4.7342
4.73431
4.73436
4.73439
4.73442
4.73447
4.73447
4.7345
4.73454
4.7346
4.73464
4.73466
4.7347
4.73476
4.73479
4.73482
4.73487
4.73496
4.73504
4.7351
4.73517
4.73525
4.73531
4.73531
4.73533
4.73533
4.73535
4.73534
4.73534
4.73537
4.73543
4.73547
4.73552
4.73559
4.73566
4.73567
4.73568
4.73571
4.73578
4.73583
4.73587
4.73592
4.73598
4.73602
4.73604
4.73607
4.73613
4.73619
4.73621
4.73622
4.73616
4.73608
4.73585
4.73535
4.73459
4.73336
4.7313
4.72792
4.72272
4.71467
4.70268
4.68491
4.65932
4.62318
4.57316
4.50581
4.41757
4.30528
4.16688
4.00214
3.81368
3.60718
3.39198
3.18108
2.99065
2.8379
2.73689
2.69022
2.67739
2.67446
2.67382
2.67396
2.67443
2.67539
2.67688
2.67879
2.68091
2.6825
2.68294
2.68298
2.68264
2.68212
2.68166
2.68131
2.68108
2.68091
2.68082
2.68082
2.6808
2.68074
2.68059
2.6803
2.67999
2.67988
2.67994
2.68006
2.68028
2.68059
2.68088
2.68098
2.68097
2.68088
2.68067
2.68037
2.68008
2.6799
2.67984
2.67982
2.67986
2.67996
2.68
2.68001
2.67999
2.67993
2.67981
2.6797
2.67968
2.6797
2.67974
2.67981
2.67989
2.6799
2.67988
2.67983
2.67973
2.67958
2.67941
2.67928
2.67923
2.67923
2.67924
2.67926
2.67929
2.67931
2.67928
2.67921
2.67912
2.67903
2.67898
2.67896
2.67898
2.67905
2.67917
2.67932
2.67947
2.67966
2.67991
2.68023
2.68058
2.68092
2.6812
2.68139
2.68145
2.68142
2.68136
2.68125
2.68109
2.68087
2.6806
2.68031
2.68002
2.67977
2.67958
2.67945
2.67936
2.67929
2.67921
2.67911
2.679
2.67888
2.67876
2.67864
2.67854
2.67846
2.67839
2.67833
2.67826
2.67819
2.6781
2.67801
2.67792
2.67783
2.67776
2.67771
2.67767
2.67763
2.67759
2.67753
2.67747
2.67739
2.67729
2.67718
2.67707
2.67697
2.67688
2.67681
2.67676
2.67671
2.67666
2.67661
2.67654
2.67646
2.67636
2.67624
2.67614
2.67608
2.67607
2.67606
2.67605
2.67605
2.67605
2.67606
2.67608
2.6761
2.67613
2.67616
2.6762
2.67624
2.6763
2.67636
2.67643
2.67651
2.6766
2.67669
2.67678
2.67688
2.67699
2.67711
4.32005
4.32005
4.32005
4.32005
4.32005
4.32005
4.32005
4.32005
4.32005
4.32005
4.32005
4.32005
4.32005
4.32005
4.32005
4.32005
4.32005
4.32005
4.32005
4.3201
4.32147
4.35323
4.58375
4.73048
4.73848
4.73968
4.74001
4.73983
4.73902
4.73823
4.73827
4.7386
4.7391
4.73977
4.74057
4.74127
4.74167
4.74174
4.74162
4.74116
4.74061
4.74026
4.74004
4.74008
4.74028
4.74074
4.74122
4.74138
4.74127
4.741
4.74046
4.73975
4.7393
4.73919
4.73918
4.73938
4.73983
4.74028
4.74056
4.7406
4.74051
4.74025
4.73991
4.73972
4.73961
4.73964
4.73977
4.74003
4.7402
4.74025
4.74025
4.74019
4.74002
4.73985
4.73981
4.73985
4.73995
4.74013
4.74035
4.74049
4.74051
4.74049
4.7404
4.74022
4.74009
4.74004
4.74004
4.74008
4.74019
4.74027
4.74028
4.74022
4.74008
4.73987
4.73964
4.73953
4.73953
4.73958
4.7397
4.73989
4.74012
4.74026
4.74028
4.74024
4.74016
4.74004
4.73993
4.7399
4.73993
4.73998
4.74008
4.7402
4.74025
4.74025
4.74022
4.74016
4.74005
4.73991
4.73984
4.73985
4.73987
4.73993
4.74005
4.74019
4.74031
4.74037
4.74036
4.74032
4.74024
4.74014
4.74005
4.74
4.74
4.74003
4.74009
4.74012
4.74012
4.74011
4.74005
4.73996
4.73988
4.73985
4.73986
4.7399
4.73997
4.74005
4.74014
4.74019
4.74019
4.74017
4.74015
4.74013
4.74012
4.74011
4.74012
4.74013
4.74013
4.74011
4.74009
4.74006
4.74001
4.73997
4.74004
4.74052
4.74082
4.74038
4.7381
4.73261
4.72412
4.714
4.70396
4.69567
4.68943
4.68544
4.68285
4.68131
4.68037
4.68047
4.68105
4.68202
4.68304
4.68386
4.68433
4.68444
4.68441
4.68417
4.68409
4.68427
4.68493
4.68654
4.68975
4.69473
4.70034
4.70516
4.70889
4.71192
4.71451
4.71678
4.71881
4.72065
4.72234
4.7239
4.72533
4.72661
4.72773
4.72867
4.72945
4.73007
4.73058
4.73098
4.73129
4.73151
4.73171
4.7319
4.73209
4.73226
4.73243
4.73261
4.73281
4.733
4.73317
4.73335
4.73355
4.73374
4.73391
4.73406
4.7342
4.73431
4.73436
4.73439
4.73442
4.73446
4.73447
4.7345
4.73454
4.7346
4.73464
4.73467
4.7347
4.73476
4.73479
4.73482
4.73487
4.73496
4.73504
4.7351
4.73517
4.73525
4.73531
4.73531
4.73533
4.73533
4.73535
4.73534
4.73533
4.73537
4.73543
4.73547
4.73552
4.73559
4.73566
4.73567
4.73568
4.73572
4.73579
4.73583
4.73586
4.73592
4.73598
4.73602
4.73604
4.73607
4.73613
4.73619
4.73621
4.73621
4.73617
4.73609
4.73583
4.73533
4.7346
4.73339
4.7313
4.72791
4.72271
4.7147
4.70274
4.68497
4.65942
4.62332
4.5734
4.50621
4.41816
4.3061
4.16792
4.0034
3.81511
3.60866
3.39337
3.18226
2.99154
2.8385
2.73714
2.69024
2.67741
2.67449
2.67381
2.67396
2.67443
2.6754
2.67689
2.67879
2.68091
2.68249
2.68293
2.68297
2.68264
2.68212
2.68166
2.68131
2.68109
2.68091
2.68083
2.68083
2.6808
2.68074
2.68058
2.6803
2.67999
2.67988
2.67994
2.68006
2.68028
2.68059
2.68088
2.68098
2.68097
2.68088
2.68067
2.68037
2.68008
2.6799
2.67984
2.67982
2.67986
2.67995
2.68
2.68
2.67999
2.67993
2.67981
2.6797
2.67968
2.6797
2.67974
2.67981
2.67989
2.6799
2.67988
2.67983
2.67973
2.67958
2.67941
2.67928
2.67923
2.67922
2.67924
2.67926
2.67929
2.67931
2.67928
2.67921
2.67912
2.67904
2.67899
2.67897
2.67899
2.67906
2.67917
2.67931
2.67947
2.67966
2.67992
2.68023
2.68059
2.68093
2.68121
2.6814
2.68146
2.68144
2.68137
2.68126
2.6811
2.68087
2.6806
2.6803
2.68001
2.67977
2.67958
2.67945
2.67936
2.67929
2.67921
2.67911
2.679
2.67888
2.67876
2.67864
2.67854
2.67846
2.67839
2.67832
2.67826
2.67818
2.6781
2.67801
2.67792
2.67783
2.67776
2.67771
2.67767
2.67763
2.67759
2.67753
2.67747
2.67739
2.67729
2.67718
2.67707
2.67697
2.67688
2.67681
2.67676
2.67671
2.67666
2.67661
2.67654
2.67646
2.67636
2.67624
2.67614
2.67608
2.67607
2.67606
2.67605
2.67605
2.67605
2.67606
2.67608
2.6761
2.67613
2.67616
2.6762
2.67624
2.6763
2.67636
2.67643
2.67651
2.6766
2.67669
2.67678
2.67688
2.67699
2.67711
4.32005
4.32005
4.32005
4.32005
4.32005
4.32005
4.32005
4.32005
4.32005
4.32005
4.32005
4.32005
4.32005
4.32005
4.32005
4.32005
4.32005
4.32005
4.32005
4.3201
4.32147
4.35323
4.58375
4.73048
4.73848
4.73968
4.74001
4.73983
4.73902
4.73823
4.73827
4.7386
4.7391
4.73977
4.74057
4.74127
4.74167
4.74174
4.74162
4.74116
4.74061
4.74026
4.74004
4.74008
4.74028
4.74074
4.74122
4.74138
4.74127
4.741
4.74046
4.73975
4.7393
4.73919
4.73918
4.73938
4.73983
4.74028
4.74056
4.7406
4.74051
4.74025
4.73991
4.73972
4.73961
4.73964
4.73977
4.74003
4.7402
4.74025
4.74025
4.74019
4.74002
4.73985
4.73981
4.73985
4.73995
4.74013
4.74035
4.74049
4.74051
4.74049
4.7404
4.74022
4.74009
4.74004
4.74004
4.74008
4.74019
4.74027
4.74028
4.74022
4.74008
4.73987
4.73964
4.73953
4.73953
4.73958
4.7397
4.73989
4.74012
4.74026
4.74028
4.74024
4.74016
4.74004
4.73993
4.7399
4.73993
4.73998
4.74008
4.7402
4.74025
4.74025
4.74022
4.74016
4.74005
4.73991
4.73984
4.73985
4.73987
4.73993
4.74005
4.74019
4.74031
4.74037
4.74036
4.74032
4.74024
4.74014
4.74005
4.74
4.74
4.74003
4.74009
4.74012
4.74012
4.74011
4.74005
4.73996
4.73988
4.73985
4.73986
4.7399
4.73997
4.74005
4.74014
4.74019
4.74019
4.74017
4.74015
4.74013
4.74012
4.74011
4.74012
4.74013
4.74013
4.74011
4.74009
4.74006
4.74001
4.73997
4.74004
4.74052
4.74082
4.74039
4.73809
4.7326
4.72409
4.71397
4.70394
4.69573
4.68954
4.68552
4.68287
4.68125
4.68025
4.68037
4.681
4.68201
4.68306
4.68391
4.68441
4.68451
4.68448
4.68422
4.68406
4.68423
4.68492
4.68653
4.68974
4.69472
4.70033
4.70514
4.70888
4.71191
4.71451
4.71678
4.7188
4.72064
4.72233
4.7239
4.72533
4.72661
4.72773
4.72867
4.72944
4.73007
4.73058
4.73098
4.73129
4.73151
4.73171
4.7319
4.73209
4.73226
4.73242
4.73261
4.73281
4.733
4.73317
4.73335
4.73355
4.73374
4.7339
4.73406
4.7342
4.73431
4.73436
4.73439
4.73442
4.73446
4.73447
4.7345
4.73454
4.7346
4.73464
4.73467
4.7347
4.73476
4.73479
4.73482
4.73488
4.73496
4.73503
4.7351
4.73517
4.73525
4.73532
4.73532
4.73533
4.73533
4.73535
4.73534
4.73533
4.73537
4.73543
4.73547
4.73552
4.73559
4.73566
4.73567
4.73568
4.73572
4.73579
4.73583
4.73586
4.73591
4.73598
4.73603
4.73605
4.73607
4.73614
4.7362
4.73621
4.7362
4.73617
4.7361
4.73581
4.73533
4.73463
4.73342
4.73129
4.7279
4.72273
4.71476
4.70281
4.68506
4.65958
4.62355
4.57376
4.50678
4.41896
4.30715
4.16919
4.00481
3.81651
3.60996
3.39453
3.18325
2.99236
2.83912
2.73748
2.69035
2.67747
2.67452
2.6738
2.67395
2.67443
2.6754
2.67689
2.67879
2.6809
2.68248
2.68293
2.68296
2.68263
2.68212
2.68166
2.68132
2.6811
2.68092
2.68083
2.68083
2.6808
2.68074
2.68058
2.6803
2.67999
2.67988
2.67994
2.68006
2.68028
2.68059
2.68088
2.68098
2.68097
2.68088
2.68067
2.68037
2.68008
2.6799
2.67984
2.67982
2.67986
2.67995
2.68
2.68
2.67999
2.67992
2.67981
2.6797
2.67968
2.6797
2.67974
2.67981
2.67989
2.6799
2.67988
2.67983
2.67973
2.67958
2.67941
2.67928
2.67922
2.67922
2.67924
2.67926
2.67929
2.67931
2.67928
2.6792
2.67912
2.67905
2.679
2.67897
2.67899
2.67907
2.67917
2.67931
2.67947
2.67967
2.67992
2.68024
2.68061
2.68095
2.68123
2.68142
2.68148
2.68146
2.68139
2.68128
2.68111
2.68088
2.6806
2.68029
2.68
2.67975
2.67957
2.67945
2.67937
2.6793
2.67922
2.67912
2.67901
2.67888
2.67876
2.67865
2.67854
2.67845
2.67838
2.67832
2.67826
2.67818
2.6781
2.67801
2.67792
2.67784
2.67776
2.67771
2.67767
2.67763
2.67759
2.67753
2.67747
2.67739
2.67729
2.67718
2.67707
2.67697
2.67688
2.67681
2.67676
2.67671
2.67666
2.67661
2.67654
2.67646
2.67636
2.67624
2.67614
2.67609
2.67607
2.67606
2.67605
2.67605
2.67605
2.67606
2.67608
2.6761
2.67613
2.67616
2.6762
2.67624
2.6763
2.67636
2.67643
2.67651
2.6766
2.67669
2.67678
2.67688
2.67699
2.67711
4.32005
4.32005
4.32005
4.32005
4.32005
4.32005
4.32005
4.32005
4.32005
4.32005
4.32005
4.32005
4.32005
4.32005
4.32005
4.32005
4.32005
4.32005
4.32005
4.3201
4.32147
4.35323
4.58375
4.73048
4.73848
4.73968
4.74001
4.73983
4.73902
4.73823
4.73827
4.7386
4.7391
4.73977
4.74057
4.74127
4.74167
4.74174
4.74162
4.74116
4.74061
4.74026
4.74004
4.74008
4.74028
4.74074
4.74122
4.74138
4.74127
4.741
4.74046
4.73975
4.7393
4.73919
4.73918
4.73938
4.73983
4.74028
4.74056
4.7406
4.74051
4.74025
4.73991
4.73972
4.73961
4.73964
4.73977
4.74003
4.7402
4.74025
4.74025
4.74019
4.74002
4.73985
4.73981
4.73985
4.73995
4.74013
4.74035
4.74049
4.74051
4.74049
4.7404
4.74022
4.74009
4.74004
4.74004
4.74008
4.74019
4.74027
4.74028
4.74022
4.74008
4.73987
4.73964
4.73953
4.73953
4.73958
4.7397
4.73989
4.74012
4.74026
4.74028
4.74024
4.74016
4.74004
4.73993
4.7399
4.73993
4.73998
4.74008
4.7402
4.74025
4.74025
4.74022
4.74016
4.74005
4.73991
4.73984
4.73985
4.73987
4.73993
4.74005
4.74019
4.74031
4.74037
4.74036
4.74032
4.74024
4.74014
4.74005
4.74
4.74
4.74003
4.74009
4.74012
4.74012
4.74011
4.74005
4.73996
4.73988
4.73985
4.73986
4.7399
4.73997
4.74005
4.74014
4.74019
4.74019
4.74017
4.74015
4.74013
4.74012
4.74011
4.74012
4.74013
4.74013
4.74011
4.74009
4.74006
4.74001
4.73997
4.74004
4.74052
4.74083
4.74039
4.73809
4.7326
4.72406
4.71394
4.70393
4.69578
4.68963
4.68558
4.68289
4.68119
4.68015
4.68028
4.68096
4.682
4.68308
4.68395
4.68447
4.68457
4.68453
4.68425
4.68403
4.6842
4.6849
4.68653
4.68974
4.69472
4.70033
4.70512
4.70886
4.7119
4.71452
4.71679
4.7188
4.72063
4.72232
4.7239
4.72534
4.72662
4.72773
4.72866
4.72943
4.73006
4.73058
4.73098
4.73129
4.73151
4.73171
4.7319
4.73209
4.73226
4.73242
4.73261
4.73281
4.733
4.73317
4.73335
4.73355
4.73374
4.7339
4.73406
4.73421
4.73431
4.73436
4.73439
4.73442
4.73446
4.73447
4.7345
4.73454
4.7346
4.73464
4.73467
4.7347
4.73476
4.73479
4.73482
4.73488
4.73496
4.73503
4.73509
4.73517
4.73525
4.73532
4.73532
4.73533
4.73533
4.73535
4.73534
4.73533
4.73537
4.73543
4.73547
4.73552
4.73559
4.73566
4.73567
4.73567
4.73572
4.7358
4.73583
4.73585
4.73591
4.73597
4.73603
4.73605
4.73608
4.73615
4.73621
4.73621
4.73619
4.73617
4.7361
4.7358
4.73533
4.73466
4.73343
4.73128
4.72791
4.72276
4.71483
4.70291
4.68521
4.65982
4.62386
4.57424
4.50745
4.41982
4.30816
4.17021
4.00585
3.81749
3.61072
3.39512
3.18382
2.99295
2.83963
2.73777
2.69045
2.67751
2.67454
2.67378
2.67394
2.67442
2.67539
2.67689
2.67879
2.6809
2.68248
2.68292
2.68296
2.68263
2.68212
2.68166
2.68132
2.6811
2.68092
2.68084
2.68083
2.68081
2.68074
2.68058
2.68029
2.67999
2.67988
2.67994
2.68006
2.68028
2.68059
2.68088
2.68098
2.68097
2.68088
2.68067
2.68037
2.68008
2.6799
2.67984
2.67982
2.67986
2.67995
2.68
2.68
2.67999
2.67992
2.67981
2.6797
2.67968
2.6797
2.67974
2.67982
2.67989
2.6799
2.67988
2.67983
2.67972
2.67958
2.67941
2.67928
2.67922
2.67922
2.67924
2.67927
2.67929
2.67931
2.67928
2.67921
2.67913
2.67907
2.67901
2.67898
2.67901
2.67907
2.67917
2.6793
2.67947
2.67968
2.67993
2.68025
2.68063
2.68099
2.68127
2.68145
2.68152
2.68149
2.68142
2.6813
2.68113
2.68089
2.6806
2.68028
2.67998
2.67973
2.67955
2.67944
2.67937
2.6793
2.67922
2.67913
2.67901
2.67889
2.67877
2.67865
2.67854
2.67845
2.67838
2.67832
2.67825
2.67818
2.6781
2.67801
2.67793
2.67784
2.67777
2.67771
2.67767
2.67763
2.67758
2.67753
2.67747
2.67738
2.67729
2.67718
2.67707
2.67697
2.67688
2.67682
2.67676
2.67671
2.67666
2.67661
2.67654
2.67646
2.67636
2.67624
2.67614
2.67609
2.67607
2.67606
2.67605
2.67605
2.67605
2.67606
2.67608
2.6761
2.67613
2.67616
2.6762
2.67624
2.6763
2.67636
2.67643
2.67651
2.6766
2.67669
2.67678
2.67688
2.67699
2.67711
4.32005
4.32005
4.32005
4.32005
4.32005
4.32005
4.32005
4.32005
4.32005
4.32005
4.32005
4.32005
4.32005
4.32005
4.32005
4.32005
4.32005
4.32005
4.32005
4.3201
4.32147
4.35323
4.58375
4.73048
4.73848
4.73968
4.74001
4.73983
4.73902
4.73823
4.73827
4.7386
4.7391
4.73977
4.74057
4.74127
4.74167
4.74174
4.74162
4.74116
4.74061
4.74026
4.74004
4.74008
4.74028
4.74074
4.74122
4.74138
4.74127
4.741
4.74046
4.73975
4.7393
4.73919
4.73918
4.73938
4.73983
4.74028
4.74056
4.7406
4.74051
4.74025
4.73991
4.73972
4.73961
4.73964
4.73977
4.74003
4.7402
4.74025
4.74025
4.74019
4.74002
4.73985
4.73981
4.73985
4.73995
4.74013
4.74035
4.74049
4.74051
4.74049
4.7404
4.74022
4.74009
4.74004
4.74004
4.74008
4.74019
4.74027
4.74028
4.74022
4.74008
4.73987
4.73964
4.73953
4.73953
4.73958
4.7397
4.73989
4.74012
4.74026
4.74028
4.74024
4.74016
4.74004
4.73993
4.7399
4.73993
4.73998
4.74008
4.7402
4.74025
4.74025
4.74022
4.74016
4.74005
4.73991
4.73984
4.73985
4.73987
4.73993
4.74005
4.74019
4.74031
4.74037
4.74036
4.74032
4.74024
4.74014
4.74005
4.74
4.74
4.74003
4.74009
4.74012
4.74012
4.74011
4.74005
4.73996
4.73988
4.73985
4.73986
4.7399
4.73997
4.74005
4.74014
4.74019
4.74019
4.74017
4.74015
4.74013
4.74012
4.74011
4.74012
4.74013
4.74013
4.74011
4.74009
4.74006
4.74001
4.73997
4.74003
4.74053
4.74083
4.74039
4.73809
4.73259
4.72404
4.71391
4.70393
4.69582
4.68971
4.68562
4.6829
4.68115
4.68007
4.68021
4.68093
4.68199
4.6831
4.68398
4.68453
4.68463
4.68457
4.68428
4.68401
4.68417
4.68489
4.68653
4.68974
4.69472
4.70033
4.70511
4.70885
4.7119
4.71453
4.7168
4.71879
4.72061
4.72231
4.7239
4.72535
4.72663
4.72773
4.72866
4.72942
4.73006
4.73058
4.73098
4.73129
4.73151
4.7317
4.7319
4.73209
4.73226
4.73242
4.7326
4.73281
4.733
4.73318
4.73335
4.73355
4.73374
4.7339
4.73406
4.73421
4.73432
4.73436
4.73439
4.73442
4.73446
4.73447
4.73451
4.73454
4.73461
4.73464
4.73467
4.7347
4.73475
4.73478
4.73482
4.73488
4.73496
4.73503
4.73509
4.73516
4.73525
4.73532
4.73532
4.73533
4.73533
4.73535
4.73533
4.73533
4.73537
4.73543
4.73547
4.73552
4.73559
4.73566
4.73567
4.73567
4.73572
4.7358
4.73583
4.73585
4.7359
4.73597
4.73604
4.73606
4.73608
4.73615
4.73622
4.73621
4.73617
4.73616
4.73609
4.73578
4.73534
4.73469
4.73343
4.73128
4.72794
4.72281
4.71491
4.70301
4.68537
4.66007
4.62415
4.5747
4.50808
4.42051
4.30885
4.17087
4.00646
3.81779
3.61082
3.39514
3.1838
2.993
2.83976
2.73789
2.69052
2.67754
2.67455
2.67377
2.67394
2.67441
2.67538
2.67688
2.67878
2.68089
2.68247
2.68292
2.68296
2.68263
2.68211
2.68166
2.68132
2.68111
2.68093
2.68085
2.68084
2.68081
2.68074
2.68058
2.68029
2.67998
2.67988
2.67994
2.68006
2.68028
2.68058
2.68088
2.68098
2.68097
2.68088
2.68067
2.68037
2.68008
2.6799
2.67984
2.67982
2.67987
2.67995
2.68
2.68
2.67998
2.67992
2.6798
2.6797
2.67968
2.6797
2.67974
2.67982
2.67989
2.6799
2.67988
2.67983
2.67972
2.67958
2.67942
2.67928
2.67922
2.67922
2.67924
2.67927
2.67929
2.6793
2.67927
2.67922
2.67914
2.67908
2.67902
2.67899
2.67902
2.67908
2.67917
2.6793
2.67947
2.67969
2.67994
2.68026
2.68065
2.68102
2.68131
2.6815
2.68156
2.68154
2.68146
2.68133
2.68115
2.6809
2.68059
2.68026
2.67995
2.6797
2.67953
2.67943
2.67937
2.67931
2.67923
2.67914
2.67903
2.6789
2.67878
2.67866
2.67854
2.67845
2.67838
2.67831
2.67825
2.67818
2.6781
2.67802
2.67793
2.67784
2.67777
2.67771
2.67767
2.67763
2.67758
2.67753
2.67746
2.67738
2.67729
2.67718
2.67707
2.67697
2.67688
2.67682
2.67676
2.67671
2.67666
2.67661
2.67654
2.67646
2.67636
2.67624
2.67614
2.67609
2.67607
2.67606
2.67605
2.67605
2.67605
2.67606
2.67608
2.6761
2.67613
2.67616
2.6762
2.67624
2.6763
2.67636
2.67643
2.67651
2.6766
2.67669
2.67678
2.67688
2.67699
2.67711
4.32005
4.32005
4.32005
4.32005
4.32005
4.32005
4.32005
4.32005
4.32005
4.32005
4.32005
4.32005
4.32005
4.32005
4.32005
4.32005
4.32005
4.32005
4.32005
4.3201
4.32147
4.35323
4.58375
4.73048
4.73848
4.73968
4.74001
4.73983
4.73902
4.73823
4.73827
4.7386
4.7391
4.73977
4.74057
4.74127
4.74167
4.74174
4.74162
4.74116
4.74061
4.74026
4.74004
4.74008
4.74028
4.74074
4.74122
4.74138
4.74127
4.741
4.74046
4.73975
4.7393
4.73919
4.73918
4.73938
4.73983
4.74028
4.74056
4.7406
4.74051
4.74025
4.73991
4.73972
4.73961
4.73964
4.73977
4.74003
4.7402
4.74025
4.74025
4.74019
4.74002
4.73985
4.73981
4.73985
4.73995
4.74013
4.74035
4.74049
4.74051
4.74049
4.7404
4.74022
4.74009
4.74004
4.74004
4.74008
4.74019
4.74027
4.74028
4.74022
4.74008
4.73987
4.73964
4.73953
4.73953
4.73958
4.7397
4.73989
4.74012
4.74026
4.74028
4.74024
4.74016
4.74004
4.73993
4.7399
4.73993
4.73998
4.74008
4.7402
4.74025
4.74025
4.74022
4.74016
4.74005
4.73991
4.73984
4.73985
4.73987
4.73993
4.74005
4.74019
4.74031
4.74037
4.74036
4.74032
4.74024
4.74014
4.74005
4.74
4.74
4.74003
4.74009
4.74012
4.74012
4.74011
4.74005
4.73996
4.73988
4.73985
4.73986
4.7399
4.73997
4.74005
4.74014
4.74019
4.74019
4.74017
4.74015
4.74013
4.74012
4.74011
4.74012
4.74013
4.74013
4.74011
4.74009
4.74006
4.74001
4.73997
4.74003
4.74053
4.74083
4.74039
4.73809
4.73259
4.72402
4.71389
4.70393
4.69585
4.68977
4.68566
4.68291
4.68112
4.68
4.68016
4.68089
4.68199
4.68311
4.684
4.68456
4.68467
4.68461
4.6843
4.684
4.68415
4.68487
4.68654
4.68974
4.69472
4.70033
4.70509
4.70884
4.7119
4.71453
4.7168
4.71878
4.7206
4.7223
4.72389
4.72536
4.72664
4.72773
4.72865
4.72942
4.73005
4.73058
4.73099
4.73129
4.73151
4.7317
4.7319
4.7321
4.73226
4.73242
4.7326
4.73281
4.733
4.73318
4.73335
4.73355
4.73373
4.7339
4.73406
4.73421
4.73432
4.73436
4.73439
4.73441
4.73446
4.73447
4.73451
4.73455
4.73461
4.73464
4.73467
4.7347
4.73475
4.73478
4.73483
4.73488
4.73496
4.73503
4.73509
4.73516
4.73525
4.73533
4.73533
4.73533
4.73533
4.73534
4.73533
4.73533
4.73537
4.73543
4.73547
4.73552
4.73559
4.73566
4.73567
4.73567
4.73572
4.7358
4.73584
4.73584
4.73589
4.73597
4.73604
4.73607
4.73609
4.73616
4.73623
4.73621
4.73616
4.73615
4.73608
4.73578
4.73536
4.73471
4.73343
4.7313
4.72798
4.72286
4.71497
4.7031
4.68554
4.6603
4.62437
4.57505
4.50858
4.42116
4.30936
4.17117
4.00665
3.81782
3.61079
3.39504
3.1837
2.99295
2.8398
2.73798
2.69057
2.67754
2.67455
2.67377
2.67393
2.67442
2.67539
2.67688
2.67877
2.68088
2.68246
2.68292
2.68296
2.68263
2.68212
2.68166
2.68133
2.68111
2.68094
2.68086
2.68085
2.68082
2.68075
2.68058
2.68029
2.67998
2.67988
2.67993
2.68006
2.68027
2.68058
2.68088
2.68098
2.68097
2.68088
2.68067
2.68037
2.68008
2.6799
2.67985
2.67983
2.67987
2.67995
2.68
2.68
2.67998
2.67992
2.6798
2.6797
2.67968
2.67971
2.67974
2.67982
2.67989
2.6799
2.67988
2.67983
2.67972
2.67958
2.67942
2.67928
2.67922
2.67922
2.67924
2.67927
2.67929
2.6793
2.67927
2.67922
2.67916
2.6791
2.67903
2.679
2.67903
2.67908
2.67917
2.6793
2.67948
2.67969
2.67995
2.68026
2.68067
2.68106
2.68137
2.68155
2.6816
2.68158
2.68151
2.68137
2.68118
2.68091
2.68059
2.68024
2.67992
2.67967
2.67951
2.67943
2.67937
2.67932
2.67924
2.67915
2.67904
2.67892
2.67879
2.67866
2.67855
2.67845
2.67837
2.67831
2.67825
2.67818
2.6781
2.67802
2.67793
2.67785
2.67777
2.67772
2.67767
2.67763
2.67758
2.67753
2.67746
2.67738
2.67729
2.67718
2.67707
2.67697
2.67689
2.67682
2.67676
2.67671
2.67666
2.67661
2.67654
2.67646
2.67636
2.67624
2.67614
2.67609
2.67607
2.67606
2.67605
2.67605
2.67605
2.67606
2.67607
2.6761
2.67613
2.67616
2.6762
2.67624
2.6763
2.67636
2.67643
2.67651
2.6766
2.67669
2.67678
2.67688
2.67699
2.67711
4.32005
4.32005
4.32005
4.32005
4.32005
4.32005
4.32005
4.32005
4.32005
4.32005
4.32005
4.32005
4.32005
4.32005
4.32005
4.32005
4.32005
4.32005
4.32005
4.3201
4.32147
4.35323
4.58375
4.73048
4.73848
4.73968
4.74001
4.73983
4.73902
4.73823
4.73827
4.7386
4.7391
4.73977
4.74057
4.74127
4.74167
4.74174
4.74162
4.74116
4.74061
4.74026
4.74004
4.74008
4.74028
4.74074
4.74122
4.74138
4.74127
4.741
4.74046
4.73975
4.7393
4.73919
4.73918
4.73938
4.73983
4.74028
4.74056
4.7406
4.74051
4.74025
4.73991
4.73972
4.73961
4.73964
4.73977
4.74003
4.7402
4.74025
4.74025
4.74019
4.74002
4.73985
4.73981
4.73985
4.73995
4.74013
4.74035
4.74049
4.74051
4.74049
4.7404
4.74022
4.74009
4.74004
4.74004
4.74008
4.74019
4.74027
4.74028
4.74022
4.74008
4.73987
4.73964
4.73953
4.73953
4.73958
4.7397
4.73989
4.74012
4.74026
4.74028
4.74024
4.74016
4.74004
4.73993
4.7399
4.73993
4.73998
4.74008
4.7402
4.74025
4.74025
4.74022
4.74016
4.74005
4.73991
4.73984
4.73985
4.73987
4.73993
4.74005
4.74019
4.74031
4.74037
4.74036
4.74032
4.74024
4.74014
4.74005
4.74
4.74
4.74003
4.74009
4.74012
4.74012
4.74011
4.74005
4.73996
4.73988
4.73985
4.73986
4.7399
4.73997
4.74005
4.74014
4.74019
4.74019
4.74017
4.74015
4.74013
4.74012
4.74011
4.74012
4.74013
4.74013
4.74011
4.74009
4.74006
4.74001
4.73997
4.74003
4.74053
4.74084
4.7404
4.73809
4.73258
4.724
4.71388
4.70393
4.69588
4.68981
4.68567
4.68291
4.68111
4.67997
4.68013
4.68087
4.68198
4.68311
4.68401
4.68459
4.6847
4.68463
4.68432
4.68399
4.68413
4.68487
4.68654
4.68975
4.69472
4.70033
4.70509
4.70883
4.7119
4.71454
4.71681
4.71878
4.72059
4.72229
4.7239
4.72536
4.72665
4.72773
4.72865
4.72941
4.73005
4.73057
4.73099
4.73129
4.73151
4.7317
4.7319
4.7321
4.73226
4.73242
4.7326
4.73281
4.733
4.73318
4.73335
4.73354
4.73373
4.7339
4.73406
4.73421
4.73432
4.73436
4.73439
4.73441
4.73446
4.73447
4.73451
4.73455
4.73461
4.73464
4.73467
4.7347
4.73475
4.73478
4.73483
4.73488
4.73496
4.73503
4.73509
4.73516
4.73526
4.73533
4.73533
4.73533
4.73532
4.73534
4.73533
4.73533
4.73537
4.73544
4.73547
4.73552
4.73559
4.73566
4.73567
4.73567
4.73572
4.73581
4.73584
4.73584
4.73589
4.73596
4.73604
4.73607
4.73609
4.73617
4.73624
4.73621
4.73616
4.73614
4.73607
4.73577
4.73537
4.73472
4.73343
4.73131
4.72803
4.72291
4.71501
4.70315
4.68567
4.66047
4.62449
4.57528
4.50887
4.42157
4.30962
4.17121
4.00666
3.81773
3.61058
3.39472
3.18341
2.9928
2.83978
2.73804
2.69057
2.6775
2.67454
2.67378
2.67394
2.67443
2.67539
2.67688
2.67876
2.68086
2.68246
2.68292
2.68296
2.68264
2.68212
2.68166
2.68133
2.68111
2.68094
2.68086
2.68085
2.68082
2.68075
2.68059
2.68029
2.67998
2.67987
2.67993
2.68006
2.68027
2.68058
2.68088
2.68098
2.68097
2.68088
2.68067
2.68037
2.68008
2.6799
2.67985
2.67983
2.67987
2.67995
2.68
2.68
2.67998
2.67992
2.6798
2.6797
2.67968
2.67971
2.67974
2.67982
2.67989
2.6799
2.67988
2.67983
2.67972
2.67957
2.67942
2.67928
2.67922
2.67922
2.67924
2.67926
2.67929
2.67929
2.67927
2.67923
2.67916
2.67909
2.67902
2.67901
2.67903
2.67909
2.67918
2.6793
2.67949
2.67971
2.67997
2.68028
2.68068
2.68108
2.68141
2.6816
2.68165
2.68163
2.68154
2.68141
2.6812
2.68092
2.68058
2.68022
2.67989
2.67964
2.6795
2.67942
2.67937
2.67932
2.67925
2.67916
2.67905
2.67892
2.6788
2.67867
2.67855
2.67845
2.67837
2.67831
2.67825
2.67818
2.6781
2.67802
2.67794
2.67785
2.67778
2.67772
2.67767
2.67763
2.67758
2.67753
2.67746
2.67738
2.67729
2.67718
2.67707
2.67697
2.67689
2.67682
2.67676
2.67671
2.67666
2.67661
2.67654
2.67646
2.67636
2.67624
2.67614
2.67609
2.67607
2.67606
2.67605
2.67605
2.67605