/*--------------------------------*- C++ -*----------------------------------*\
| =========                 |                                                 |
| \\      /  F ield         | OpenFOAM: The Open Source CFD Toolbox           |
|  \\    /   O peration     | Version:  2406                                  |
|   \\  /    A nd           | Website:  www.openfoam.com                      |
|    \\/     M anipulation  |                                                 |
\*---------------------------------------------------------------------------*/
FoamFile
{
    version     2.0;
    format      ascii;
    arch        "LSB;label=32;scalar=64";
    class       volScalarField;
    location    "0.015";
    object      Ma;
}
// * * * * * * * * * * * * * * * * * * * * * * * * * * * * * * * * * * * * * //

dimensions      [0 0 0 0 0 0 0];

internalField   nonuniform List<scalar> 
13946
(
4.29915e-14
3.89266e-14
3.67518e-14
3.27607e-14
2.9914e-14
2.5737e-14
2.36877e-14
2.34854e-14
2.82199e-14
3.1156e-14
3.72754e-14
4.71903e-14
5.62661e-14
6.048e-14
5.71298e-14
4.61911e-14
2.90429e-14
1.58995e-14
1.23686e-14
1.00946e-14
8.98347e-15
9.41118e-15
1.9879e-14
2.86705e-14
3.57596e-14
4.45839e-14
4.65463e-14
3.77631e-14
2.76381e-14
1.8955e-14
1.4999e-14
1.49057e-14
1.76443e-14
1.72392e-14
1.54204e-14
2.17015e-14
3.76852e-14
5.06996e-14
5.6977e-14
5.68724e-14
5.34644e-14
4.91534e-14
5.04738e-14
5.00661e-14
4.821e-14
4.92809e-14
4.56989e-14
3.33561e-14
1.9924e-14
1.11189e-14
1.35159e-14
1.56077e-14
1.20484e-14
1.33837e-14
1.3551e-14
1.51347e-14
1.70991e-14
1.75825e-14
2.93008e-14
5.1111e-14
6.22144e-14
7.62919e-14
8.04016e-14
8.90385e-14
7.96065e-14
7.15426e-14
5.99398e-14
4.52742e-14
3.76682e-14
3.78052e-14
3.64193e-14
3.45275e-14
3.46219e-14
3.33414e-14
2.9543e-14
2.92989e-14
2.76729e-14
2.45017e-14
2.19965e-14
2.79166e-14
2.12741e-14
1.49092e-14
1.27352e-14
1.51332e-14
1.59172e-14
1.55744e-14
1.60013e-14
1.76712e-14
1.2159e-14
1.42831e-14
1.37915e-14
1.9533e-14
3.73693e-14
3.46119e-14
3.52492e-14
3.67596e-14
3.35065e-14
2.52619e-14
1.88149e-14
1.55866e-14
1.98001e-14
2.49776e-14
3.35137e-14
4.92932e-14
6.14709e-14
6.62033e-14
5.98152e-14
4.21708e-14
2.2422e-14
1.54528e-14
1.26575e-14
8.0428e-15
5.31009e-15
7.49373e-15
1.58281e-14
2.15331e-14
3.27224e-14
3.9162e-14
3.93262e-14
2.99978e-14
2.15284e-14
1.67788e-14
1.24085e-14
1.21351e-14
1.34974e-14
1.32462e-14
1.69285e-14
2.06374e-14
3.4821e-14
4.63552e-14
4.91847e-14
5.04454e-14
5.00318e-14
4.95075e-14
5.117e-14
5.10372e-14
4.50828e-14
4.02765e-14
3.74687e-14
2.80617e-14
1.66484e-14
8.08183e-15
1.36006e-14
1.33505e-14
1.12876e-14
1.03534e-14
1.23081e-14
1.38144e-14
1.49818e-14
1.10414e-14
2.30769e-14
4.31084e-14
6.58237e-14
7.82833e-14
8.40525e-14
8.76937e-14
8.10658e-14
7.02236e-14
5.39952e-14
3.95433e-14
3.53213e-14
3.60391e-14
3.88023e-14
3.62366e-14
3.36698e-14
3.37355e-14
3.06559e-14
3.3133e-14
3.1975e-14
3.14927e-14
2.92756e-14
2.88901e-14
2.3921e-14
1.73946e-14
1.44091e-14
1.53287e-14
1.8263e-14
1.87881e-14
1.84997e-14
1.75255e-14
1.14758e-14
7.33318e-15
1.45363e-14
1.96673e-14
3.28408e-14
3.27207e-14
3.42269e-14
3.85593e-14
3.53701e-14
2.46942e-14
2.46231e-14
2.47728e-14
2.53633e-14
2.15274e-14
3.13873e-14
4.56512e-14
6.13592e-14
6.73762e-14
5.94957e-14
4.54653e-14
3.28688e-14
2.14976e-14
1.97186e-14
2.10048e-14
2.26403e-14
1.85376e-14
1.46599e-14
2.41719e-14
3.07444e-14
3.61553e-14
3.39344e-14
2.80061e-14
1.99976e-14
2.22065e-14
1.89227e-14
1.58963e-14
1.33259e-14
1.81632e-14
2.16293e-14
2.42495e-14
3.47322e-14
4.46468e-14
4.81311e-14
4.61372e-14
4.71713e-14
4.68676e-14
4.79753e-14
4.53238e-14
4.26136e-14
3.78192e-14
3.64682e-14
3.01746e-14
2.533e-14
2.2929e-14
1.86999e-14
2.11229e-14
2.11342e-14
2.40124e-14
2.18079e-14
2.14226e-14
2.06035e-14
2.25355e-14
2.00369e-14
4.1415e-14
6.51284e-14
7.45739e-14
7.95871e-14
8.51057e-14
7.95667e-14
6.82027e-14
5.18889e-14
4.00571e-14
3.56208e-14
3.59678e-14
3.99653e-14
3.92976e-14
3.77229e-14
3.96383e-14
3.57831e-14
3.57992e-14
3.77907e-14
3.84942e-14
3.95073e-14
3.77619e-14
3.21984e-14
2.75868e-14
2.19706e-14
2.07307e-14
2.23682e-14
2.47005e-14
2.7289e-14
2.69383e-14
1.96201e-14
2.37367e-14
2.00898e-14
2.98971e-14
3.79703e-14
3.75947e-14
3.73087e-14
4.08959e-14
3.9815e-14
3.85958e-14
3.39e-14
2.96895e-14
2.83187e-14
3.05223e-14
3.07621e-14
3.18247e-14
4.72401e-14
6.26285e-14
6.04502e-14
5.45372e-14
4.32906e-14
4.0042e-14
3.51442e-14
3.24543e-14
3.24636e-14
2.99383e-14
3.16535e-14
3.15411e-14
3.04945e-14
3.35722e-14
3.59201e-14
3.69651e-14
3.43654e-14
3.44029e-14
3.84696e-14
3.14174e-14
2.70425e-14
2.64792e-14
2.51511e-14
2.63208e-14
2.96677e-14
4.00215e-14
4.87785e-14
4.35618e-14
4.4833e-14
4.4254e-14
4.44003e-14
4.34823e-14
4.36203e-14
3.97582e-14
3.93113e-14
3.85048e-14
3.48176e-14
2.95081e-14
2.92044e-14
3.31627e-14
3.14863e-14
3.09883e-14
3.54876e-14
3.58906e-14
3.78999e-14
3.83171e-14
3.29579e-14
3.12585e-14
3.71678e-14
5.42028e-14
6.13354e-14
6.89154e-14
7.89391e-14
6.75121e-14
5.7495e-14
4.26048e-14
3.72294e-14
3.63123e-14
3.9237e-14
4.41021e-14
4.62937e-14
4.59699e-14
4.59086e-14
4.61622e-14
4.78715e-14
4.99434e-14
4.41323e-14
4.16032e-14
4.19084e-14
3.97677e-14
3.80254e-14
3.60733e-14
3.29768e-14
3.45533e-14
3.7542e-14
3.7661e-14
3.61435e-14
3.43541e-14
3.33431e-14
3.58241e-14
4.02616e-14
4.51483e-14
2.59937e-14
2.85068e-14
2.74534e-14
3.52777e-14
3.59212e-14
2.71184e-14
2.48049e-14
1.85051e-14
1.33182e-14
1.59706e-14
2.13291e-14
2.16213e-14
3.27755e-14
3.89121e-14
4.06529e-14
3.84714e-14
3.03722e-14
2.52541e-14
2.48592e-14
2.21635e-14
2.03715e-14
1.8134e-14
1.96833e-14
2.35254e-14
1.9629e-14
2.7782e-14
2.7191e-14
2.91476e-14
2.82671e-14
2.74674e-14
2.5407e-14
2.34429e-14
1.78304e-14
1.86059e-14
1.55107e-14
1.84479e-14
2.12175e-14
2.63709e-14
2.87728e-14
2.62542e-14
2.93007e-14
2.81864e-14
2.86669e-14
2.70261e-14
2.95367e-14
2.544e-14
2.58222e-14
2.41454e-14
1.92004e-14
1.50115e-14
1.79151e-14
2.60603e-14
2.26001e-14
2.13717e-14
2.74805e-14
2.9765e-14
3.09466e-14
3.33482e-14
2.18227e-14
2.43353e-14
2.61638e-14
3.51848e-14
3.69926e-14
3.99892e-14
4.28889e-14
3.91342e-14
3.43463e-14
2.5932e-14
2.50474e-14
2.73897e-14
2.83212e-14
3.41779e-14
3.74215e-14
4.09002e-14
3.87542e-14
3.67269e-14
3.37037e-14
3.14378e-14
2.5834e-14
2.1154e-14
2.17959e-14
2.29563e-14
2.48082e-14
2.55668e-14
2.34846e-14
2.47758e-14
2.78284e-14
2.36918e-14
2.02753e-14
2.29349e-14
1.83008e-14
2.30266e-14
2.32421e-14
2.99673e-14
2.84023e-14
3.18497e-14
3.56423e-14
3.573e-14
3.00943e-14
1.57271e-14
6.91989e-15
8.24606e-15
1.01465e-14
7.02974e-15
6.15625e-15
1.08582e-14
1.19737e-14
1.28855e-14
2.06507e-14
1.57564e-14
1.55917e-14
1.53586e-14
9.89927e-15
5.32771e-15
1.1955e-14
1.13574e-14
9.37489e-15
7.67723e-15
1.32484e-14
1.84852e-14
2.37833e-14
2.88061e-14
3.18275e-14
3.0977e-14
2.92134e-14
2.93645e-14
3.01407e-14
2.25614e-14
1.35874e-14
8.8224e-15
4.41847e-15
3.90751e-15
8.65402e-15
5.76359e-15
8.16417e-15
7.42177e-15
1.17942e-14
1.24771e-14
1.13701e-14
8.45535e-15
6.87712e-15
6.48131e-15
6.16758e-15
1.6207e-14
2.13344e-14
2.31798e-14
2.18788e-14
2.17072e-14
2.37389e-14
3.1825e-14
3.36449e-14
2.64111e-14
8.84735e-15
7.32914e-15
8.60097e-15
1.22654e-14
1.25544e-14
1.49714e-14
1.32894e-14
1.42198e-14
1.37061e-14
1.58602e-14
1.18366e-14
1.28682e-14
1.47899e-14
1.96434e-14
2.8699e-14
3.6975e-14
3.71382e-14
2.96896e-14
1.61094e-14
6.54876e-15
6.67352e-15
3.02081e-15
6.11389e-15
7.99722e-15
8.0447e-15
8.93122e-15
1.07452e-14
1.37704e-14
1.45929e-14
1.24367e-14
9.23596e-15
6.63535e-15
5.76971e-15
5.15681e-15
3.73566e-15
1.40622e-14
3.80894e-14
3.66109e-14
3.96982e-14
3.95291e-14
3.67433e-14
2.39625e-14
1.59491e-14
1.87013e-14
2.40522e-14
1.96961e-14
1.6608e-14
2.29241e-14
1.8467e-14
1.78487e-14
2.81869e-14
2.14843e-14
1.73492e-14
2.0323e-14
2.07727e-14
1.59922e-14
1.74025e-14
1.86618e-14
1.58425e-14
1.71198e-14
2.44018e-14
2.6029e-14
3.15319e-14
3.9501e-14
4.78584e-14
4.287e-14
4.23531e-14
4.08309e-14
4.55456e-14
3.32141e-14
2.31025e-14
2.12412e-14
1.73284e-14
1.78296e-14
2.01256e-14
2.17442e-14
1.56401e-14
1.72152e-14
1.67228e-14
1.9496e-14
1.72481e-14
1.4473e-14
2.08222e-14
1.70438e-14
1.76509e-14
2.38785e-14
2.88804e-14
3.1463e-14
2.94146e-14
2.31795e-14
2.69288e-14
3.29443e-14
3.47927e-14
2.93469e-14
1.70295e-14
1.21372e-14
1.2996e-14
2.08542e-14
1.53883e-14
1.63261e-14
1.94279e-14
1.78616e-14
1.79427e-14
2.12606e-14
1.94675e-14
1.95914e-14
1.782e-14
2.05134e-14
2.75066e-14
3.86293e-14
4.63992e-14
4.01874e-14
2.36408e-14
1.62815e-14
1.69721e-14
2.01826e-14
1.73269e-14
1.91968e-14
1.76418e-14
1.85481e-14
1.8256e-14
2.03786e-14
2.25264e-14
1.97632e-14
1.58393e-14
1.7841e-14
1.96278e-14
2.31815e-14
1.86189e-14
2.29815e-14
2.48846e-14
2.61887e-14
3.04428e-14
3.20874e-14
2.82914e-14
1.69522e-14
1.47109e-14
1.33746e-14
1.1571e-14
1.16522e-14
1.2536e-14
1.04296e-14
1.20787e-14
1.12376e-14
1.34559e-14
1.70854e-14
1.4207e-14
1.24765e-14
1.16549e-14
1.26643e-14
1.4133e-14
1.27058e-14
1.31586e-14
1.29512e-14
1.46415e-14
1.48684e-14
2.00735e-14
2.38126e-14
2.60506e-14
2.40264e-14
2.07457e-14
2.37396e-14
2.31776e-14
2.05069e-14
1.28492e-14
1.50421e-14
1.61068e-14
1.51442e-14
1.54062e-14
1.46631e-14
1.55168e-14
1.331e-14
8.8763e-15
8.22558e-15
1.16407e-14
1.12983e-14
1.04907e-14
1.25824e-14
1.26776e-14
1.83201e-14
2.13807e-14
2.38651e-14
2.20597e-14
1.65622e-14
1.78032e-14
2.19523e-14
2.27555e-14
1.62745e-14
7.26539e-15
7.04102e-15
5.14404e-15
8.08879e-15
7.72312e-15
1.01144e-14
9.11722e-15
1.01133e-14
1.13067e-14
1.04691e-14
1.12059e-14
7.94622e-15
8.46274e-15
1.35521e-14
2.39638e-14
3.01869e-14
3.24071e-14
2.75896e-14
1.89772e-14
1.34624e-14
1.21778e-14
1.57376e-14
1.66406e-14
1.35729e-14
1.19365e-14
1.27158e-14
1.26726e-14
1.2328e-14
1.61675e-14
1.65627e-14
1.41566e-14
1.36935e-14
1.88473e-14
1.88888e-14
1.97812e-14
1.62387e-14
2.74958e-14
2.943e-14
2.93602e-14
2.65971e-14
2.60554e-14
2.81865e-14
2.90774e-14
2.1316e-14
1.83223e-14
2.29279e-14
2.37324e-14
2.27757e-14
2.43099e-14
2.52968e-14
2.11747e-14
2.34942e-14
1.91475e-14
1.64478e-14
2.08893e-14
1.97258e-14
1.65324e-14
1.69751e-14
1.79758e-14
1.68527e-14
2.01138e-14
2.32445e-14
2.58392e-14
2.6168e-14
2.70325e-14
2.75401e-14
2.38922e-14
2.1231e-14
1.84107e-14
1.87791e-14
1.85269e-14
2.224e-14
1.71651e-14
1.50583e-14
1.57189e-14
1.89294e-14
1.69558e-14
1.49166e-14
1.75007e-14
1.97616e-14
2.11424e-14
1.98003e-14
1.85386e-14
2.01442e-14
1.88965e-14
1.96357e-14
2.0509e-14
2.5008e-14
2.11047e-14
1.89097e-14
2.15361e-14
2.16983e-14
1.92342e-14
1.4953e-14
1.93994e-14
2.33252e-14
2.21172e-14
2.51233e-14
2.16408e-14
1.89099e-14
1.82166e-14
1.8514e-14
2.35546e-14
2.22812e-14
2.56856e-14
2.50688e-14
2.77588e-14
2.83059e-14
2.71554e-14
2.87696e-14
3.19114e-14
3.4028e-14
3.15346e-14
2.72456e-14
2.06674e-14
2.34939e-14
2.1615e-14
1.93808e-14
2.27427e-14
2.23948e-14
2.00926e-14
2.41307e-14
2.96571e-14
2.82136e-14
2.97013e-14
2.7502e-14
3.12608e-14
2.78372e-14
2.60896e-14
2.60189e-14
2.25679e-14
4.37864e-14
4.39448e-14
4.21891e-14
4.45685e-14
4.46499e-14
4.90842e-14
4.62389e-14
4.38017e-14
4.23344e-14
4.27152e-14
4.45634e-14
4.31068e-14
4.40873e-14
4.31779e-14
4.24234e-14
4.22051e-14
4.09702e-14
4.17692e-14
4.18545e-14
4.37198e-14
4.29251e-14
4.27634e-14
4.32514e-14
4.45697e-14
4.35505e-14
4.62217e-14
4.70457e-14
4.70132e-14
4.74188e-14
4.67996e-14
4.50543e-14
4.3851e-14
4.30396e-14
4.31433e-14
4.22333e-14
4.23369e-14
4.20168e-14
4.06473e-14
4.00202e-14
4.02039e-14
3.99742e-14
3.93871e-14
3.9255e-14
4.09739e-14
4.18686e-14
4.33431e-14
4.31933e-14
4.38675e-14
4.53941e-14
4.26818e-14
4.42362e-14
4.62664e-14
4.41458e-14
4.30985e-14
4.39344e-14
4.21473e-14
4.26939e-14
4.17525e-14
4.44601e-14
4.6785e-14
4.59385e-14
4.71377e-14
4.4396e-14
4.18047e-14
4.34559e-14
4.35663e-14
4.15646e-14
4.3234e-14
4.29116e-14
4.66636e-14
4.67372e-14
4.8294e-14
4.63311e-14
4.82193e-14
4.71881e-14
4.89661e-14
4.84262e-14
4.42235e-14
4.10515e-14
3.9055e-14
3.96202e-14
3.99041e-14
4.11496e-14
4.11215e-14
4.25625e-14
4.41733e-14
4.47894e-14
4.3391e-14
4.29608e-14
4.27237e-14
4.34201e-14
4.75265e-14
4.63471e-14
4.6062e-14
4.56242e-14
3.29096e-14
3.0653e-14
3.16468e-14
2.95819e-14
2.91059e-14
2.88941e-14
2.80305e-14
2.97734e-14
3.26036e-14
3.26262e-14
2.98987e-14
3.07119e-14
3.1912e-14
3.33579e-14
3.45579e-14
3.2833e-14
2.96994e-14
2.6635e-14
2.84958e-14
2.91572e-14
2.99976e-14
2.86252e-14
2.71163e-14
3.16217e-14
3.44853e-14
3.37678e-14
3.41807e-14
3.5783e-14
3.397e-14
3.52811e-14
3.71033e-14
3.49499e-14
3.44699e-14
3.28227e-14
3.23652e-14
2.95862e-14
3.11335e-14
3.15054e-14
3.01479e-14
2.89468e-14
2.98222e-14
2.9367e-14
2.89051e-14
2.57288e-14
2.71939e-14
2.8219e-14
2.94504e-14
3.25172e-14
3.19017e-14
3.12306e-14
3.27111e-14
3.42407e-14
3.46221e-14
3.19014e-14
3.27909e-14
3.23035e-14
3.43309e-14
3.45758e-14
3.22247e-14
2.91931e-14
3.2161e-14
3.57795e-14
3.47577e-14
3.60844e-14
3.46318e-14
3.43284e-14
3.28037e-14
3.14646e-14
3.21033e-14
3.31332e-14
2.84495e-14
2.87625e-14
2.92149e-14
3.23288e-14
3.19888e-14
3.38414e-14
3.21232e-14
3.47848e-14
3.44225e-14
3.32055e-14
3.51697e-14
3.0285e-14
2.54181e-14
2.05308e-14
2.38241e-14
2.39997e-14
2.36254e-14
2.78326e-14
3.08123e-14
3.04641e-14
2.72083e-14
2.66625e-14
2.71186e-14
2.81746e-14
2.9212e-14
3.38167e-14
3.58799e-14
3.44519e-14
3.62951e-14
1.50391e-14
1.39874e-14
8.16928e-15
2.16012e-15
4.9388e-16
1.75858e-15
3.36637e-15
4.92142e-15
5.42298e-15
3.62606e-15
3.53168e-15
8.55725e-15
1.10253e-14
1.59835e-14
2.05334e-14
2.13229e-14
1.97299e-14
1.70628e-14
1.32637e-14
1.00113e-14
7.41695e-15
4.32215e-15
7.44893e-15
5.84806e-15
5.63227e-15
6.4889e-15
7.50751e-15
1.20636e-14
1.5168e-14
1.61521e-14
1.65176e-14
1.60218e-14
1.52993e-14
1.28512e-14
6.47713e-15
2.90249e-15
7.0739e-15
8.37298e-15
8.11693e-15
8.64827e-15
8.15198e-15
8.55102e-15
8.71121e-15
8.41452e-15
2.22676e-15
3.57242e-15
4.74117e-15
7.6012e-15
4.50881e-15
3.7492e-15
3.30523e-15
5.70135e-15
8.47476e-15
1.00246e-14
9.98702e-15
8.08247e-15
4.21782e-15
8.24342e-15
1.23708e-14
1.72346e-14
1.69713e-14
1.67989e-14
1.67351e-14
1.66232e-14
1.28479e-14
8.85145e-15
5.15237e-15
3.74322e-15
5.46649e-15
6.77994e-15
4.72554e-15
4.34416e-15
4.40663e-15
4.21886e-15
4.06288e-15
6.19073e-15
6.28583e-15
1.23247e-14
1.83515e-14
2.23472e-14
2.17101e-14
1.89968e-14
1.84389e-14
1.88017e-14
1.17418e-14
9.49131e-15
9.75583e-15
1.05084e-14
1.59181e-14
2.00023e-14
2.04281e-14
2.04194e-14
2.2523e-14
2.52466e-14
2.46336e-14
2.78131e-14
2.69675e-14
2.72405e-14
2.2577e-14
4.09968e-14
3.83567e-14
3.57115e-14
3.79782e-14
3.73052e-14
3.68061e-14
3.62155e-14
3.80482e-14
3.91237e-14
3.87881e-14
3.73032e-14
3.97345e-14
3.98559e-14
4.09336e-14
4.15954e-14
4.25272e-14
4.19356e-14
4.01499e-14
3.80195e-14
3.81401e-14
3.56351e-14
3.54979e-14
3.58038e-14
3.73465e-14
3.28115e-14
3.27439e-14
3.06045e-14
3.41068e-14
3.70409e-14
3.77206e-14
3.9056e-14
3.94698e-14
3.89183e-14
3.90049e-14
3.58726e-14
3.26749e-14
3.33496e-14
3.39851e-14
3.51686e-14
3.62098e-14
3.84294e-14
3.78922e-14
3.97466e-14
3.88915e-14
3.81713e-14
3.8842e-14
3.80847e-14
3.59841e-14
3.72305e-14
3.68853e-14
3.72347e-14
3.4245e-14
3.62275e-14
3.77548e-14
3.73324e-14
3.6013e-14
3.58473e-14
3.59304e-14
3.80156e-14
4.00532e-14
4.06165e-14
3.98098e-14
3.93571e-14
3.86533e-14
3.90336e-14
3.71752e-14
3.76418e-14
3.63063e-14
3.49119e-14
3.32357e-14
3.54364e-14
3.56495e-14
3.36234e-14
3.68107e-14
3.51114e-14
3.21657e-14
3.31866e-14
3.81206e-14
4.20772e-14
4.64922e-14
4.28544e-14
4.37785e-14
4.47965e-14
4.49148e-14
4.02761e-14
3.77152e-14
3.86471e-14
3.90273e-14
4.00853e-14
4.34088e-14
3.86106e-14
3.95186e-14
3.88314e-14
4.48884e-14
4.43677e-14
4.79551e-14
4.5619e-14
4.71137e-14
4.07645e-14
3.1579e-14
3.45283e-14
3.52587e-14
3.42659e-14
3.52271e-14
3.67051e-14
3.78762e-14
3.69048e-14
3.91325e-14
3.70334e-14
3.78216e-14
3.78745e-14
3.96489e-14
4.04129e-14
4.14386e-14
4.08894e-14
4.05766e-14
3.95959e-14
3.73248e-14
3.88494e-14
3.84524e-14
3.86989e-14
3.95293e-14
3.86542e-14
3.91095e-14
3.73115e-14
3.85388e-14
3.5901e-14
3.32389e-14
2.91128e-14
3.31318e-14
3.38467e-14
3.62124e-14
3.43444e-14
3.70774e-14
4.02371e-14
4.00606e-14
4.23475e-14
4.09981e-14
4.067e-14
3.61511e-14
3.60356e-14
3.20945e-14
3.42498e-14
3.68951e-14
3.69825e-14
3.91194e-14
3.88431e-14
3.97019e-14
3.77627e-14
3.53932e-14
3.60607e-14
3.54372e-14
3.5233e-14
3.60603e-14
3.63707e-14
3.63263e-14
3.72966e-14
3.77868e-14
3.93109e-14
3.97781e-14
3.93303e-14
3.75812e-14
3.81712e-14
3.87586e-14
3.77162e-14
3.4755e-14
3.73499e-14
4.02187e-14
4.15241e-14
4.12561e-14
4.13476e-14
3.92471e-14
4.08682e-14
4.0198e-14
4.13023e-14
4.14092e-14
4.09812e-14
4.01989e-14
3.78158e-14
3.91419e-14
3.87574e-14
4.19869e-14
4.01667e-14
4.12182e-14
4.0315e-14
3.87797e-14
4.00665e-14
4.10134e-14
3.77038e-14
3.54409e-14
3.49289e-14
3.60928e-14
3.72507e-14
3.87517e-14
3.56844e-14
3.27673e-14
3.19858e-14
3.29988e-14
3.6595e-14
3.81249e-14
4.18688e-14
4.10193e-14
3.92672e-14
3.84865e-14
3.7606e-14
1.94313e-14
1.79198e-14
1.95455e-14
2.04016e-14
2.11747e-14
2.2113e-14
2.1053e-14
1.83598e-14
1.45878e-14
1.1511e-14
1.44658e-14
1.66011e-14
1.70204e-14
1.56511e-14
1.62682e-14
1.71458e-14
1.60212e-14
1.2389e-14
1.35863e-14
1.35327e-14
1.67863e-14
1.7933e-14
1.94134e-14
2.079e-14
2.07642e-14
2.07141e-14
2.05614e-14
1.72502e-14
1.82142e-14
2.26767e-14
1.89546e-14
1.35346e-14
1.57031e-14
1.98726e-14
2.18856e-14
2.45093e-14
2.47551e-14
2.52542e-14
2.5453e-14
2.40209e-14
2.21847e-14
1.61882e-14
1.42378e-14
1.35087e-14
1.48118e-14
2.16153e-14
2.62344e-14
2.52869e-14
2.49037e-14
2.29683e-14
1.80103e-14
1.8038e-14
1.66156e-14
1.60537e-14
1.43988e-14
1.48982e-14
1.64923e-14
1.49013e-14
1.0817e-14
9.86097e-15
1.13859e-14
1.27831e-14
1.13019e-14
1.28322e-14
1.40831e-14
1.6877e-14
1.87422e-14
1.94275e-14
1.68747e-14
1.54342e-14
1.39124e-14
1.45326e-14
1.38141e-14
1.46822e-14
1.48224e-14
1.39151e-14
1.16867e-14
1.19613e-14
1.00685e-14
6.8726e-15
9.12216e-15
9.64161e-15
4.84663e-15
8.31775e-15
1.46502e-14
1.68793e-14
1.97603e-14
1.70677e-14
1.58508e-14
1.63358e-14
1.95785e-14
1.89974e-14
2.03045e-14
2.09513e-14
2.2667e-14
2.47048e-14
2.2286e-14
2.07074e-14
1.63642e-14
1.19077e-14
1.42819e-14
1.37066e-14
1.53857e-14
1.3797e-14
1.17095e-14
7.7177e-15
5.76224e-14
5.77222e-14
5.70799e-14
5.79688e-14
5.96363e-14
6.18117e-14
6.00177e-14
5.62269e-14
5.42964e-14
5.23927e-14
5.59553e-14
5.68127e-14
5.65694e-14
5.35945e-14
5.47715e-14
5.51052e-14
5.40587e-14
5.11983e-14
5.50281e-14
5.63813e-14
5.44879e-14
5.48478e-14
5.6907e-14
5.84658e-14
5.73944e-14
5.76244e-14
5.8295e-14
5.71339e-14
5.60269e-14
5.68785e-14
5.62617e-14
5.22592e-14
5.29899e-14
5.70959e-14
5.83706e-14
6.03668e-14
5.86822e-14
5.84175e-14
5.88313e-14
5.73891e-14
5.88369e-14
5.66603e-14
5.64453e-14
5.52857e-14
5.48223e-14
5.77862e-14
5.77886e-14
5.80005e-14
5.989e-14
5.68428e-14
5.37797e-14
5.78799e-14
5.62206e-14
5.60104e-14
5.46061e-14
5.42863e-14
5.47179e-14
5.27434e-14
5.26029e-14
5.31406e-14
5.15343e-14
5.23409e-14
5.06374e-14
5.15004e-14
5.41541e-14
5.29796e-14
5.35903e-14
5.36623e-14
5.31732e-14
5.35571e-14
5.1371e-14
5.20389e-14
5.14288e-14
5.3774e-14
5.20009e-14
5.32344e-14
5.15701e-14
5.20775e-14
5.07446e-14
4.77688e-14
4.85953e-14
4.80843e-14
4.90791e-14
4.78893e-14
5.21285e-14
5.32859e-14
5.52686e-14
5.26532e-14
5.29907e-14
5.2995e-14
5.3991e-14
5.40268e-14
5.79752e-14
5.77163e-14
5.95362e-14
5.76492e-14
5.5411e-14
5.46918e-14
5.55229e-14
5.12759e-14
5.22425e-14
5.379e-14
5.45907e-14
5.32539e-14
5.42655e-14
5.17128e-14
4.51759e-14
4.8225e-14
5.02965e-14
5.12188e-14
5.05821e-14
5.1085e-14
5.23943e-14
5.04999e-14
4.77829e-14
4.73025e-14
4.48948e-14
4.64227e-14
4.7082e-14
4.62259e-14
4.6404e-14
4.87811e-14
4.82717e-14
4.98987e-14
4.93022e-14
5.094e-14
5.16869e-14
5.10196e-14
5.06176e-14
5.11344e-14
5.13913e-14
5.00175e-14
4.93071e-14
4.92383e-14
4.83574e-14
4.75992e-14
4.39749e-14
4.52552e-14
4.41477e-14
4.67138e-14
4.77594e-14
4.89142e-14
4.96379e-14
4.91325e-14
4.94157e-14
4.98336e-14
5.03843e-14
5.02958e-14
5.12576e-14
4.95959e-14
5.1567e-14
4.96055e-14
4.85627e-14
4.66435e-14
4.91842e-14
4.78105e-14
4.77479e-14
4.68138e-14
4.79824e-14
4.8145e-14
4.79717e-14
4.65909e-14
4.75304e-14
4.50505e-14
4.7442e-14
4.57349e-14
4.78349e-14
4.54204e-14
4.30244e-14
4.23322e-14
4.42851e-14
4.42418e-14
4.24426e-14
4.29303e-14
4.26239e-14
4.50297e-14
4.60761e-14
4.64238e-14
4.50576e-14
4.47106e-14
4.45724e-14
4.63853e-14
4.71343e-14
4.39393e-14
4.51508e-14
4.21205e-14
4.01459e-14
4.14708e-14
3.87834e-14
4.06844e-14
3.87697e-14
4.17042e-14
4.4599e-14
4.50711e-14
4.42376e-14
4.62125e-14
4.52405e-14
4.58606e-14
4.49841e-14
4.82704e-14
4.80471e-14
4.8301e-14
4.56e-14
4.64268e-14
4.40192e-14
4.58595e-14
4.61124e-14
4.69088e-14
4.74384e-14
4.74474e-14
4.68377e-14
4.8005e-14
4.83284e-14
2.48283e-15
3.23065e-15
4.16889e-15
5.14511e-15
4.36109e-15
4.47702e-15
4.86532e-15
5.22162e-15
6.743e-15
5.10791e-15
4.3142e-15
4.00381e-15
1.46782e-15
2.49341e-15
2.60198e-15
1.38861e-15
3.00784e-15
4.92178e-15
4.26352e-15
3.58108e-15
4.67402e-15
5.20054e-15
4.66322e-15
3.8561e-15
6.97163e-15
8.45474e-15
8.00173e-15
7.42982e-15
5.71897e-15
2.26437e-15
4.05235e-15
4.99754e-15
5.22753e-15
8.33345e-15
1.07286e-14
1.21928e-14
1.15209e-14
8.91457e-15
6.41579e-15
8.88278e-15
9.72116e-15
1.08489e-14
1.1052e-14
9.72662e-15
9.50156e-15
5.61848e-15
1.971e-15
5.06965e-15
6.00718e-15
6.12286e-15
5.35598e-15
5.10829e-15
3.02717e-15
2.93884e-15
1.57585e-15
2.2478e-15
4.8286e-15
1.02229e-14
1.46073e-14
1.79259e-14
1.46295e-14
8.94401e-15
5.20697e-15
4.0877e-15
5.07476e-15
6.34836e-15
5.98925e-15
5.74552e-15
5.66002e-15
2.81815e-15
1.94561e-15
3.11996e-15
1.85108e-15
5.61319e-15
8.36934e-15
1.19154e-14
1.50579e-14
1.58383e-14
1.09909e-14
7.68071e-15
7.85889e-15
6.31465e-15
7.43949e-15
5.3165e-15
3.77066e-15
7.60651e-15
9.525e-15
7.85129e-15
3.90482e-15
1.31225e-15
1.72183e-15
1.94025e-15
4.96913e-15
8.65514e-15
1.06224e-14
1.06545e-14
1.00736e-14
7.66742e-15
6.26666e-15
6.60063e-15
6.39308e-15
5.7778e-15
5.2926e-15
5.65143e-15
3.07333e-15
4.08067e-15
5.4493e-15
3.71457e-14
3.88893e-14
3.72814e-14
3.81804e-14
3.92231e-14
3.81564e-14
4.02809e-14
3.947e-14
3.76072e-14
3.7104e-14
3.91646e-14
3.80185e-14
3.71385e-14
3.61159e-14
3.59409e-14
3.7157e-14
3.51886e-14
3.40975e-14
3.55505e-14
3.49793e-14
3.2924e-14
3.26809e-14
3.27326e-14
3.09361e-14
3.35636e-14
3.67892e-14
3.95875e-14
3.84771e-14
3.7165e-14
3.83036e-14
4.09244e-14
4.3134e-14
4.17938e-14
4.0883e-14
4.03308e-14
3.83082e-14
4.08216e-14
4.22424e-14
4.24694e-14
3.95943e-14
4.00253e-14
3.91103e-14
3.63875e-14
3.63739e-14
3.49758e-14
3.47998e-14
3.48408e-14
3.37266e-14
3.25988e-14
3.56287e-14
3.82065e-14
3.79363e-14
3.59684e-14
3.7812e-14
3.81663e-14
3.82365e-14
4.07392e-14
3.98923e-14
3.96043e-14
4.22727e-14
4.27393e-14
4.18511e-14
3.88404e-14
3.91157e-14
3.73743e-14
3.93117e-14
4.00888e-14
4.05162e-14
4.16549e-14
3.9867e-14
3.95773e-14
3.76984e-14
3.6284e-14
3.73628e-14
3.77162e-14
3.96405e-14
3.97089e-14
4.11134e-14
4.05733e-14
4.17426e-14
4.62021e-14
5.09923e-14
4.6451e-14
4.20586e-14
4.21103e-14
3.88869e-14
3.86013e-14
4.1142e-14
4.17899e-14
4.33299e-14
3.60974e-14
3.48268e-14
3.85953e-14
4.47307e-14
4.11164e-14
4.26146e-14
3.58307e-14
2.93994e-14
3.14227e-14
3.44076e-14
3.50752e-14
4.05545e-14
3.72077e-14
3.45342e-14
3.65586e-14
3.52944e-14
3.56586e-14
3.85968e-14
6.3654e-14
6.35972e-14
6.23891e-14
6.21962e-14
6.20004e-14
6.31924e-14
6.45434e-14
6.28439e-14
6.23024e-14
6.20975e-14
6.20435e-14
6.46895e-14
6.31993e-14
6.15709e-14
6.20422e-14
6.30385e-14
6.23469e-14
6.11634e-14
6.12692e-14
6.06994e-14
5.96538e-14
5.87979e-14
5.87028e-14
5.70049e-14
6.0773e-14
6.42145e-14
6.48075e-14
6.5389e-14
6.46774e-14
6.57077e-14
6.65884e-14
6.77953e-14
6.73085e-14
6.7659e-14
6.76801e-14
6.72934e-14
6.61575e-14
6.67404e-14
6.70727e-14
6.66675e-14
6.48299e-14
6.43798e-14
6.29072e-14
6.11464e-14
5.84442e-14
6.12673e-14
6.16773e-14
6.26487e-14
6.3843e-14
6.45709e-14
6.40036e-14
6.36825e-14
6.45812e-14
6.36969e-14
6.36056e-14
6.37049e-14
6.71162e-14
6.64563e-14
6.50079e-14
6.52962e-14
6.6376e-14
6.51451e-14
6.45278e-14
6.5162e-14
6.4849e-14
6.33624e-14
6.30859e-14
6.25492e-14
6.37754e-14
6.24803e-14
6.27822e-14
6.29374e-14
6.37674e-14
6.36744e-14
6.28017e-14
6.42216e-14
6.26098e-14
6.33532e-14
6.41037e-14
6.51735e-14
6.82397e-14
6.75915e-14
7.0116e-14
6.84504e-14
6.77215e-14
6.81071e-14
6.87389e-14
6.70512e-14
6.86036e-14
6.72439e-14
6.64774e-14
6.55753e-14
6.74817e-14
6.70348e-14
6.69061e-14
6.54472e-14
6.69831e-14
5.97953e-14
6.11543e-14
6.2137e-14
6.58567e-14
6.67066e-14
6.59541e-14
6.37077e-14
6.57212e-14
6.66133e-14
6.81457e-14
6.80637e-14
3.73861e-14
3.32208e-14
3.45615e-14
3.5053e-14
3.32159e-14
3.14337e-14
2.93949e-14
3.14661e-14
3.45585e-14
3.3632e-14
3.51179e-14
3.3643e-14
3.49389e-14
3.47896e-14
3.38934e-14
3.24658e-14
3.65455e-14
3.73191e-14
3.49726e-14
3.45743e-14
3.61383e-14
3.75287e-14
3.9386e-14
3.97243e-14
4.02547e-14
3.8114e-14
3.69266e-14
3.75725e-14
3.86645e-14
3.85549e-14
3.96448e-14
3.88188e-14
4.18379e-14
4.24769e-14
4.30665e-14
4.23293e-14
4.01523e-14
3.98463e-14
3.75185e-14
3.8959e-14
3.7964e-14
3.80393e-14
3.80272e-14
3.76582e-14
3.51517e-14
3.61786e-14
3.58012e-14
3.64847e-14
3.92729e-14
3.87629e-14
3.7172e-14
3.57705e-14
3.8648e-14
3.83805e-14
3.9105e-14
4.03579e-14
3.91068e-14
4.01994e-14
4.18427e-14
4.11182e-14
3.81965e-14
3.85399e-14
3.85611e-14
3.76151e-14
3.93438e-14
3.72089e-14
3.43546e-14
3.41138e-14
3.14724e-14
3.51989e-14
3.81024e-14
3.97528e-14
4.06514e-14
4.02477e-14
3.78807e-14
3.58503e-14
3.6267e-14
3.52935e-14
3.35992e-14
3.41231e-14
3.33835e-14
3.08486e-14
3.64203e-14
3.82861e-14
3.97811e-14
4.18922e-14
4.24775e-14
3.95279e-14
3.85984e-14
3.54367e-14
4.10548e-14
3.925e-14
3.73487e-14
3.18897e-14
3.57373e-14
3.27735e-14
3.83851e-14
3.82867e-14
3.59581e-14
3.69972e-14
3.87245e-14
3.45822e-14
3.92253e-14
4.24631e-14
4.13413e-14
4.4138e-14
4.57657e-14
4.35422e-14
3.56895e-14
3.37818e-14
3.62019e-14
3.34294e-14
3.66096e-14
4.21442e-14
4.35781e-14
4.11162e-14
3.69909e-14
3.45695e-14
3.61464e-14
3.57021e-14
3.46201e-14
3.5236e-14
3.8098e-14
3.61699e-14
3.99106e-14
3.66534e-14
3.33808e-14
3.13799e-14
3.27422e-14
3.65215e-14
3.1575e-14
2.66251e-14
2.94495e-14
3.47792e-14
3.0528e-14
2.90084e-14
3.28504e-14
3.31688e-14
3.79667e-14
3.36561e-14
3.32834e-14
3.09964e-14
2.96016e-14
2.82721e-14
3.23205e-14
2.96194e-14
3.13856e-14
2.95459e-14
3.16803e-14
3.31496e-14
3.46834e-14
3.37123e-14
3.11318e-14
3.50642e-14
3.77531e-14
3.78863e-14
3.60197e-14
3.7209e-14
3.65819e-14
3.42632e-14
3.56892e-14
3.29957e-14
3.39714e-14
2.80314e-14
2.97672e-14
3.27384e-14
3.32607e-14
3.34531e-14
3.85435e-14
3.7245e-14
3.64558e-14
3.8366e-14
3.55378e-14
3.83166e-14
3.88418e-14
3.7774e-14
3.66262e-14
3.77508e-14
3.10466e-14
2.94787e-14
2.74323e-14
2.98167e-14
3.45431e-14
3.55077e-14
3.33582e-14
3.55784e-14
3.96268e-14
4.1291e-14
3.74838e-14
3.67508e-14
3.50441e-14
3.35385e-14
3.34671e-14
2.99665e-14
3.0857e-14
2.96468e-14
2.7816e-14
2.87382e-14
2.74943e-14
2.93222e-14
3.42307e-14
3.67369e-14
3.71891e-14
3.64857e-14
3.43401e-14
3.16237e-14
3.72517e-14
3.5934e-14
3.69603e-14
3.62707e-14
3.53637e-14
3.03241e-14
2.81804e-14
2.54506e-14
2.29465e-14
2.48562e-14
7.7287e-14
7.08539e-14
6.65963e-14
7.31627e-14
7.79057e-14
7.81509e-14
7.92385e-14
7.90562e-14
7.74633e-14
7.10154e-14
6.64452e-14
6.60383e-14
6.82042e-14
7.02662e-14
6.71289e-14
6.85653e-14
7.33752e-14
7.59021e-14
7.28054e-14
7.37162e-14
7.57437e-14
7.55068e-14
7.66303e-14
7.28264e-14
7.243e-14
7.35275e-14
7.34701e-14
6.90397e-14
6.70446e-14
7.30105e-14
7.47532e-14
7.51375e-14
7.40099e-14
6.94925e-14
7.00097e-14
6.80436e-14
6.54115e-14
7.01943e-14
7.28715e-14
7.41032e-14
7.58069e-14
7.48579e-14
7.7454e-14
7.70281e-14
7.73184e-14
7.82188e-14
7.89212e-14
7.86498e-14
7.75695e-14
7.88765e-14
7.81104e-14
7.38597e-14
6.96117e-14
6.70353e-14
7.06667e-14
6.90456e-14
7.11626e-14
7.48747e-14
7.56891e-14
7.46641e-14
7.79473e-14
7.94974e-14
8.00431e-14
8.11471e-14
8.08793e-14
8.21948e-14
8.14786e-14
8.02252e-14
7.80115e-14
7.81195e-14
7.49405e-14
7.11513e-14
7.37532e-14
7.703e-14
7.81878e-14
7.86602e-14
7.64956e-14
7.45041e-14
7.79894e-14
7.53834e-14
8.02792e-14
7.84967e-14
7.99238e-14
7.81035e-14
7.8412e-14
7.52501e-14
7.39645e-14
7.18453e-14
7.24085e-14
7.17265e-14
7.44323e-14
7.48934e-14
7.7856e-14
7.78123e-14
7.89927e-14
7.67045e-14
7.59611e-14
7.31383e-14
7.35095e-14
7.3474e-14
7.81547e-14
7.81718e-14
7.87676e-14
7.72081e-14
7.45492e-14
7.17941e-14
7.02734e-14
6.72909e-14
4.77001e-14
5.0213e-14
4.6545e-14
5.14726e-14
5.02523e-14
4.69434e-14
4.78928e-14
4.97394e-14
5.14416e-14
5.39853e-14
5.02222e-14
4.94288e-14
4.96645e-14
4.83147e-14
4.68314e-14
4.92964e-14
4.49212e-14
4.6086e-14
5.00036e-14
5.32361e-14
5.09663e-14
4.6515e-14
5.06661e-14
5.29487e-14
5.18428e-14
4.88935e-14
5.45476e-14
5.56722e-14
5.18647e-14
5.06814e-14
4.84681e-14
5.33756e-14
5.17707e-14
5.10455e-14
4.90037e-14
5.01229e-14
4.71152e-14
5.16022e-14
5.03408e-14
5.34461e-14
5.24836e-14
5.31328e-14
5.31905e-14
5.13377e-14
5.25944e-14
4.8866e-14
4.66786e-14
4.7188e-14
5.08288e-14
4.92972e-14
4.95282e-14
5.21726e-14
4.91671e-14
4.81578e-14
4.68437e-14
5.29917e-14
5.46997e-14
5.1615e-14
5.26096e-14
5.46933e-14
5.05947e-14
5.0535e-14
5.33026e-14
5.19306e-14
5.51747e-14
5.27223e-14
5.18689e-14
5.24606e-14
5.65932e-14
5.51486e-14
5.942e-14
5.77632e-14
6.03883e-14
5.9554e-14
5.69262e-14
5.61477e-14
5.86643e-14
5.42293e-14
4.96505e-14
4.81577e-14
5.33833e-14
5.50204e-14
5.45106e-14
5.23237e-14
5.12041e-14
5.26905e-14
5.20548e-14
5.53018e-14
5.69034e-14
5.583e-14
5.66482e-14
5.48048e-14
5.21975e-14
5.19438e-14
5.1102e-14
5.11727e-14
4.93901e-14
4.89708e-14
4.48056e-14
4.69664e-14
4.74444e-14
5.16811e-14
5.1324e-14
5.43586e-14
5.5861e-14
5.65358e-14
5.6699e-14
5.63452e-14
1.65589e-14
1.29086e-14
9.59424e-15
9.80703e-15
1.2826e-14
1.2949e-14
1.15785e-14
7.50146e-15
3.62494e-15
5.12546e-15
6.79203e-15
5.78792e-15
4.15068e-15
3.80217e-15
3.47149e-15
1.7998e-15
7.42021e-15
8.73291e-15
6.44251e-15
6.92583e-15
7.02573e-15
7.61718e-15
4.89466e-15
3.2874e-15
1.53676e-15
2.4468e-15
4.98181e-15
6.01468e-15
8.77466e-15
9.60619e-15
1.24178e-14
1.42004e-14
1.3489e-14
9.45262e-15
5.88095e-15