/*--------------------------------*- C++ -*----------------------------------*\
| =========                 |                                                 |
| \\      /  F ield         | OpenFOAM: The Open Source CFD Toolbox           |
|  \\    /   O peration     | Version:  2406                                  |
|   \\  /    A nd           | Website:  www.openfoam.com                      |
|    \\/     M anipulation  |                                                 |
\*---------------------------------------------------------------------------*/
FoamFile
{
    version     2.0;
    format      ascii;
    arch        "LSB;label=32;scalar=64";
    class       volVectorField;
    location    "0.015";
    object      U;
}
// * * * * * * * * * * * * * * * * * * * * * * * * * * * * * * * * * * * * * //

dimensions      [0 1 -1 0 0 0 0];

internalField   nonuniform List<vector> 
13946
(
(-6.19818e-13 6.18295e-12 -1.34044e-11)
(-6.71595e-13 4.08987e-12 -1.27194e-11)
(-1.41448e-12 3.61607e-12 -1.20186e-11)
(-1.92121e-12 3.14186e-12 -1.06393e-11)
(-1.95839e-12 4.6596e-12 -8.95204e-12)
(-2.04608e-12 5.05107e-12 -6.96652e-12)
(-1.95189e-12 4.65218e-12 -6.3888e-12)
(-1.68605e-12 3.25377e-12 -7.19115e-12)
(-8.19075e-14 3.43313e-12 -9.0698e-12)
(7.66976e-13 4.29341e-12 -9.77868e-12)
(-1.68494e-13 5.43305e-12 -1.15998e-11)
(6.90667e-14 5.1283e-12 -1.53853e-11)
(1.17547e-12 3.19472e-12 -1.90346e-11)
(1.69708e-12 2.48107e-12 -2.05663e-11)
(8.3499e-13 2.55437e-12 -1.94487e-11)
(-3.77265e-13 1.98105e-12 -1.57456e-11)
(-6.09362e-15 2.01146e-12 -9.77621e-12)
(2.24754e-13 2.1461e-12 -5.01996e-12)
(5.88642e-13 3.54484e-12 -2.27055e-12)
(4.33327e-13 3.19171e-12 -1.28852e-12)
(-1.17965e-13 2.86895e-12 -1.1343e-12)
(5.3513e-14 2.51541e-12 -2.03234e-12)
(-2.26572e-13 5.21229e-12 -4.41051e-12)
(1.0147e-13 5.13324e-12 -8.4096e-12)
(1.74179e-12 4.55271e-12 -1.12812e-11)
(9.44777e-13 5.40773e-12 -1.43047e-11)
(2.80307e-13 5.11948e-12 -1.51523e-11)
(1.00429e-12 6.36478e-12 -1.12652e-11)
(5.73075e-13 6.32421e-12 -7.06343e-12)
(1.19787e-12 5.77375e-12 -2.76825e-12)
(1.58362e-12 4.51339e-12 -1.92132e-12)
(5.77769e-13 4.61921e-12 -2.13764e-12)
(2.01298e-13 5.34328e-12 -2.85963e-12)
(2.71824e-13 5.3824e-12 -2.46081e-12)
(-2.52064e-13 3.9564e-12 -3.51674e-12)
(-1.5366e-12 2.5859e-12 -6.82453e-12)
(-3.68455e-15 3.61148e-12 -1.24373e-11)
(-1.76018e-12 5.03965e-12 -1.65857e-11)
(-3.12263e-12 5.19974e-12 -1.86179e-11)
(-1.85914e-12 3.93827e-12 -1.90536e-11)
(-7.1856e-13 3.80069e-12 -1.7962e-11)
(-6.94414e-13 3.50541e-12 -1.651e-11)
(-8.03388e-13 4.25019e-12 -1.67981e-11)
(-3.17474e-14 4.47855e-12 -1.66128e-11)
(3.23363e-13 4.67682e-12 -1.5891e-11)
(1.4878e-12 3.93978e-12 -1.64041e-11)
(3.06323e-12 3.41067e-12 -1.50211e-11)
(1.02491e-12 3.78028e-12 -1.07734e-11)
(9.62359e-13 3.49619e-12 -5.80812e-12)
(1.47303e-12 3.11867e-12 -1.64484e-12)
(1.85339e-12 4.03795e-12 1.35475e-12)
(9.66401e-13 4.06404e-12 3.36452e-12)
(-3.2851e-13 3.92916e-12 1.26421e-12)
(-5.46702e-13 4.52442e-12 -6.21406e-13)
(-1.3033e-12 4.34757e-12 -1.04293e-12)
(-2.20642e-12 4.52102e-12 -1.32101e-12)
(-2.97017e-12 4.56896e-12 -2.19868e-12)
(-2.38244e-12 3.785e-12 -4.06315e-12)
(-1.18893e-12 4.24129e-12 -9.05512e-12)
(-8.60093e-13 3.58507e-12 -1.71738e-11)
(8.83176e-13 2.96194e-12 -2.11563e-11)
(1.89873e-13 3.89204e-12 -2.59276e-11)
(4.95953e-13 1.88027e-12 -2.75626e-11)
(1.99029e-12 2.76064e-12 -3.04095e-11)
(2.71826e-12 1.76254e-12 -2.71654e-11)
(1.66383e-12 2.26383e-12 -2.44256e-11)
(2.2002e-12 2.41408e-12 -2.03386e-11)
(6.9289e-13 2.92132e-12 -1.52667e-11)
(-1.64094e-12 3.73346e-12 -1.2286e-11)
(-2.57807e-12 5.35155e-12 -1.15548e-11)
(-1.78275e-12 4.33116e-12 -1.16066e-11)
(-1.68142e-12 4.13163e-12 -1.09955e-11)
(-2.06978e-12 3.03683e-12 -1.13165e-11)
(-6.33658e-13 3.94345e-12 -1.07396e-11)
(1.86961e-12 3.2229e-12 -9.44447e-12)
(1.01679e-12 4.40751e-12 -8.99579e-12)
(7.36318e-13 3.67898e-12 -8.7388e-12)
(5.12739e-13 2.80713e-12 -7.92208e-12)
(-1.69083e-12 2.56171e-12 -6.90821e-12)
(-6.18764e-13 2.22476e-12 -9.31187e-12)
(-5.02122e-13 2.11383e-12 -6.98085e-12)
(-1.73806e-12 2.33121e-12 -4.2187e-12)
(5.59132e-13 3.32147e-12 -2.79464e-12)
(1.90418e-12 3.8703e-12 -2.90562e-12)
(3.84526e-13 4.08759e-12 -3.61474e-12)
(2.59991e-13 3.14867e-12 -4.32044e-12)
(5.24672e-14 2.81407e-12 -4.7242e-12)
(-6.97497e-13 3.02864e-12 -5.21743e-12)
(3.73964e-13 3.49978e-12 -2.25223e-12)
(1.88538e-12 4.42361e-12 9.8558e-13)
(7.89043e-13 2.66129e-12 3.84176e-12)
(-1.73263e-13 3.28605e-12 5.85095e-12)
(3.68881e-13 4.02731e-12 -1.21891e-11)
(4.06698e-13 4.03047e-12 -1.11838e-11)
(-1.28238e-12 3.51939e-12 -1.15202e-11)
(-2.69469e-12 3.30258e-12 -1.18921e-11)
(-2.18032e-12 3.66152e-12 -1.06974e-11)
(-1.82438e-12 3.88805e-12 -7.54486e-12)
(-1.20354e-12 2.79383e-12 -5.70573e-12)
(-1.31684e-12 2.3607e-12 -4.62447e-12)
(-7.87604e-13 2.83975e-12 -6.13333e-12)
(1.96576e-13 3.77462e-12 -7.70696e-12)
(-1.90189e-13 3.09054e-12 -1.10934e-11)
(1.06279e-14 3.39612e-12 -1.65964e-11)
(1.59156e-12 2.06445e-12 -2.09639e-11)
(1.94843e-12 1.71159e-12 -2.26034e-11)
(1.39007e-12 1.24996e-12 -2.04712e-11)
(6.2322e-13 7.83034e-13 -1.4458e-11)
(1.80982e-13 8.15019e-13 -7.66027e-12)
(-6.27386e-13 2.6117e-12 -4.58124e-12)
(4.95216e-13 3.02327e-12 -3.08812e-12)
(4.06941e-13 2.44131e-12 -1.23053e-12)
(1.36507e-13 1.81847e-12 -6.87247e-14)
(-2.80306e-13 2.48015e-12 -6.34502e-13)
(-1.76813e-12 4.20739e-12 -2.95975e-12)
(-3.21568e-13 3.35882e-12 -6.58613e-12)
(1.13506e-12 3.59818e-12 -1.05937e-11)
(9.08605e-13 3.97119e-12 -1.28272e-11)
(7.0764e-13 4.45207e-12 -1.2741e-11)
(9.72575e-13 4.51606e-12 -9.2162e-12)
(1.31029e-12 4.52652e-12 -5.7037e-12)
(2.47769e-12 4.04725e-12 -3.27576e-12)
(1.06123e-12 3.17267e-12 -2.64436e-12)
(-4.22151e-13 3.75805e-12 -1.75817e-12)
(-5.81783e-13 4.26934e-12 -1.71771e-12)
(2.05706e-13 4.16679e-12 -1.82169e-12)
(1.31811e-12 4.34041e-12 -3.64272e-12)
(-5.91788e-13 2.83137e-12 -6.47566e-12)
(-1.61865e-12 3.16703e-12 -1.1426e-11)
(-1.65364e-12 4.40717e-12 -1.52193e-11)
(-2.16146e-12 2.8024e-12 -1.65284e-11)
(-1.50265e-12 2.40991e-12 -1.71021e-11)
(-1.45507e-12 1.48747e-12 -1.70677e-11)
(-1.19782e-12 2.28226e-12 -1.68176e-11)
(-4.81255e-13 2.18945e-12 -1.74418e-11)
(3.27225e-13 2.25293e-12 -1.73913e-11)
(5.71758e-13 2.01618e-12 -1.5351e-11)
(1.803e-12 2.25243e-12 -1.35376e-11)
(2.68171e-12 1.9905e-12 -1.2436e-11)
(8.3922e-13 2.66422e-12 -9.23042e-12)
(4.4442e-13 1.77207e-12 -5.42192e-12)
(1.14534e-12 2.49624e-12 -4.13645e-13)
(1.96954e-12 3.4485e-12 2.46482e-12)
(1.03317e-12 3.25384e-12 3.06525e-12)
(-4.24809e-13 3.05338e-12 2.35459e-12)
(-6.70706e-13 2.82878e-12 2.05138e-12)
(-5.84829e-13 3.58348e-12 2.16984e-12)
(-1.9827e-12 3.79443e-12 2.05183e-12)
(-3.06444e-12 3.88226e-12 1.43051e-12)
(-2.44638e-12 2.58911e-12 -1.30777e-12)
(-6.48377e-13 3.52743e-12 -7.07337e-12)
(-1.24887e-13 1.11177e-12 -1.47725e-11)
(-2.89055e-13 1.67414e-13 -2.26188e-11)
(-1.41524e-13 7.876e-13 -2.68913e-11)
(6.93088e-13 1.07968e-12 -2.88573e-11)
(1.79469e-12 9.67602e-13 -3.00681e-11)
(2.32473e-12 3.40351e-13 -2.77601e-11)
(1.68029e-12 8.7983e-13 -2.40587e-11)
(1.713e-12 2.07901e-12 -1.83596e-11)
(1.46739e-13 2.53998e-12 -1.33493e-11)
(-1.23024e-12 3.22838e-12 -1.16366e-11)
(-1.80954e-12 2.57603e-12 -1.19786e-11)
(-1.16754e-12 1.71427e-12 -1.31727e-11)
(-6.6253e-13 1.69828e-12 -1.23191e-11)
(-9.85469e-13 1.91837e-12 -1.13683e-11)
(-7.5664e-13 1.38078e-12 -1.14863e-11)
(-9.88099e-14 2.63587e-12 -1.01998e-11)
(2.06236e-13 3.76641e-12 -1.07437e-11)
(1.12398e-12 2.30094e-12 -1.06861e-11)
(1.0485e-12 1.83176e-12 -1.06151e-11)
(-4.22273e-14 1.17591e-12 -9.99192e-12)
(-6.8956e-13 -2.73149e-13 -9.90076e-12)
(-8.55553e-13 1.3161e-12 -8.06953e-12)
(-1.62275e-12 6.30335e-13 -5.71879e-12)
(-1.02098e-12 1.97116e-12 -4.42645e-12)
(3.7472e-14 2.96968e-12 -4.35095e-12)
(3.81717e-13 3.55602e-12 -5.15767e-12)
(1.24568e-12 2.89831e-12 -5.63368e-12)
(1.05812e-12 1.77758e-12 -6.0117e-12)
(6.5805e-13 1.28347e-12 -5.84765e-12)
(8.10447e-13 2.11488e-12 -3.22866e-12)
(1.69594e-12 1.76286e-12 6.06037e-13)
(8.95547e-13 2.95721e-12 3.92542e-12)
(5.85022e-13 1.51324e-12 6.56134e-12)
(-1.89052e-13 -5.84025e-12 -9.65576e-12)
(-3.43197e-13 -5.82346e-12 -9.61343e-12)
(-1.22375e-12 -4.74445e-12 -1.06935e-11)
(-1.96564e-12 -6.42924e-12 -1.14194e-11)
(-2.08963e-12 -6.71554e-12 -9.91412e-12)
(-1.59711e-12 -4.8929e-12 -6.74756e-12)
(-9.84367e-13 -7.0424e-12 -4.58716e-12)
(-1.48692e-12 -7.75631e-12 -3.17946e-12)
(-7.82022e-13 -7.83097e-12 -3.74713e-12)
(-1.02544e-13 -5.11882e-12 -5.34046e-12)
(-1.35337e-13 -6.41777e-12 -8.66873e-12)
(-6.45316e-14 -5.48323e-12 -1.46991e-11)
(1.63944e-12 -7.20944e-12 -1.97483e-11)
(1.88341e-12 -8.27901e-12 -2.15419e-11)
(1.74781e-12 -8.3142e-12 -1.85978e-11)
(7.41761e-13 -7.88388e-12 -1.34695e-11)
(-4.54585e-13 -7.73084e-12 -8.22332e-12)
(-2.6038e-13 -4.64619e-12 -5.73822e-12)
(3.97461e-13 -5.83182e-12 -3.42841e-12)
(6.0981e-13 -7.13677e-12 -8.96045e-13)
(5.80878e-14 -7.76134e-12 5.44684e-13)
(-7.55243e-13 -6.32562e-12 -4.72451e-14)
(-1.06858e-12 -4.78022e-12 -1.17889e-12)
(-5.36258e-13 -6.63559e-12 -4.96871e-12)
(6.00843e-13 -5.28543e-12 -9.12899e-12)
(8.74384e-13 -5.71097e-12 -1.10004e-11)
(8.6952e-13 -4.41564e-12 -1.07587e-11)
(9.92515e-13 -5.103e-12 -8.09993e-12)
(1.02781e-12 -4.18369e-12 -5.35454e-12)
(2.25292e-12 -5.38612e-12 -4.91477e-12)
(1.58501e-12 -5.49683e-12 -3.0923e-12)
(-3.51884e-14 -5.24348e-12 -1.53262e-12)
(-3.02495e-13 -4.22468e-12 -1.74172e-12)
(8.63557e-14 -5.91766e-12 -1.98412e-12)
(1.05684e-12 -6.15801e-12 -4.02674e-12)
(-5.81619e-13 -5.71569e-12 -6.03677e-12)
(-1.57566e-12 -5.42068e-12 -1.0517e-11)
(-1.70463e-12 -5.23575e-12 -1.43215e-11)
(-1.62942e-12 -7.51669e-12 -1.4644e-11)
(-7.28051e-13 -6.46215e-12 -1.44608e-11)
(-1.23917e-12 -7.17563e-12 -1.44836e-11)
(-1.39852e-12 -6.83068e-12 -1.45194e-11)
(-4.97793e-13 -7.28486e-12 -1.47823e-11)
(2.53813e-13 -6.52135e-12 -1.4143e-11)
(4.91224e-13 -7.82071e-12 -1.23719e-11)
(1.69072e-12 -6.97947e-12 -1.0833e-11)
(2.29023e-12 -7.75256e-12 -9.57725e-12)
(1.23545e-12 -7.39458e-12 -7.16445e-12)
(1.08822e-12 -8.03676e-12 -3.1628e-12)
(1.40752e-12 -7.65316e-12 1.24105e-12)
(1.79904e-12 -5.18888e-12 3.33749e-12)
(8.75994e-13 -6.14449e-12 3.76478e-12)
(-5.64235e-13 -6.47813e-12 3.23537e-12)
(-1.05755e-12 -7.01222e-12 4.22005e-12)
(-1.35399e-12 -6.15897e-12 4.05004e-12)
(-2.05405e-12 -6.06909e-12 3.62611e-12)
(-2.39127e-12 -5.46126e-12 3.82001e-12)
(-2.21254e-12 -7.4065e-12 4.77373e-13)
(-7.74176e-13 -4.54804e-12 -5.11199e-12)
(1.14415e-13 -6.58448e-12 -1.26177e-11)
(2.86472e-13 -9.03335e-12 -2.04764e-11)
(2.20197e-14 -9.06432e-12 -2.39719e-11)
(1.20936e-13 -7.52364e-12 -2.62958e-11)
(1.71969e-12 -8.47342e-12 -2.79406e-11)
(1.94662e-12 -9.50713e-12 -2.55642e-11)
(1.06039e-12 -9.92594e-12 -2.12068e-11)
(1.5702e-12 -9.37308e-12 -1.50888e-11)
(-7.98021e-14 -8.34059e-12 -1.09516e-11)
(-1.09004e-12 -7.05804e-12 -9.94247e-12)
(-8.09168e-13 -6.43247e-12 -1.05242e-11)
(-7.96372e-13 -6.84075e-12 -1.18832e-11)
(-1.58274e-12 -6.91598e-12 -1.14915e-11)
(-1.38283e-12 -5.69428e-12 -1.15641e-11)
(-8.19298e-13 -7.17097e-12 -1.1553e-11)
(-2.48735e-13 -5.30005e-12 -1.10938e-11)
(7.67395e-13 -5.74046e-12 -1.08545e-11)
(1.13244e-12 -6.59301e-12 -1.11319e-11)
(7.07675e-13 -8.22494e-12 -1.03372e-11)
(2.06797e-13 -8.97235e-12 -1.0188e-11)
(-3.76631e-13 -9.18381e-12 -9.16129e-12)
(-5.89613e-13 -8.36261e-12 -7.22237e-12)
(-1.82572e-12 -7.52559e-12 -5.46938e-12)
(-9.85155e-13 -5.80183e-12 -4.73061e-12)
(3.36524e-13 -5.49296e-12 -4.52453e-12)
(2.47631e-13 -5.43302e-12 -5.4326e-12)
(1.34681e-12 -5.69434e-12 -6.14967e-12)
(1.18954e-12 -7.26947e-12 -5.80441e-12)
(4.99334e-14 -7.78626e-12 -5.00774e-12)
(5.20263e-13 -6.21108e-12 -2.57222e-12)
(1.1749e-12 -7.97962e-12 1.22042e-12)
(9.98491e-13 -5.30517e-12 4.30412e-12)
(7.54894e-13 -7.34829e-12 7.1414e-12)
(-8.75945e-13 -9.96647e-12 -8.37731e-12)
(-6.49065e-13 -1.01836e-11 -7.92449e-12)
(-1.03602e-12 -1.07819e-11 -6.86087e-12)
(-8.27534e-13 -1.08147e-11 -8.93787e-12)
(-2.40056e-13 -1.01661e-11 -9.15513e-12)
(-3.59345e-12 -9.58156e-12 -8.43884e-12)
(-2.28148e-12 -1.02714e-11 -5.00197e-12)
(9.25081e-13 -9.94203e-12 -2.09904e-12)
(-3.90159e-13 -9.72056e-12 2.6941e-13)
(-2.81821e-12 -9.94603e-12 1.77826e-12)
(-2.19486e-12 -1.01546e-11 -1.95688e-12)
(3.83748e-13 -9.54902e-12 -5.31858e-12)
(1.25394e-12 -1.10379e-11 -1.18389e-11)
(3.61223e-12 -1.19141e-11 -1.75571e-11)
(3.01656e-12 -1.17955e-11 -1.6833e-11)
(1.20092e-12 -1.18652e-11 -1.44588e-11)
(8.80515e-13 -1.05452e-11 -1.04576e-11)
(-2.42995e-12 -1.05295e-11 -8.51997e-12)
(-2.06654e-12 -1.07709e-11 -5.05876e-12)
(1.39906e-12 -1.05541e-11 -3.32423e-12)
(2.03013e-12 -1.09664e-11 2.93208e-13)
(7.03581e-14 -1.01457e-11 1.70839e-12)
(-2.72535e-12 -1.05038e-11 7.60203e-13)
(-1.80585e-12 -1.06877e-11 9.10688e-14)
(8.83345e-14 -1.00363e-11 -3.01548e-12)
(1.8721e-13 -9.14457e-12 -7.03257e-12)
(-1.80285e-13 -9.34195e-12 -8.06729e-12)
(2.37623e-13 -9.56222e-12 -8.35995e-12)
(1.13063e-12 -9.0496e-12 -7.50372e-12)
(2.09243e-12 -9.41485e-12 -6.83863e-12)
(3.30978e-12 -9.86964e-12 -8.14986e-12)
(1.59322e-12 -9.2967e-12 -5.25442e-12)
(-1.08414e-12 -8.59015e-12 -3.37696e-12)
(4.15148e-13 -8.66326e-12 -2.75401e-12)
(2.53727e-12 -7.72361e-12 -2.93572e-12)
(3.98445e-13 -8.43908e-12 -3.23182e-12)
(-2.05203e-12 -8.45621e-12 -5.31363e-12)
(-1.93869e-12 -9.45332e-12 -9.80037e-12)
(-4.82607e-13 -9.56443e-12 -1.37587e-11)
(-2.00661e-12 -1.05511e-11 -1.04292e-11)
(-1.91915e-12 -1.11788e-11 -1.0428e-11)
(-8.85655e-13 -1.09109e-11 -1.05578e-11)
(-1.1163e-12 -1.10301e-11 -1.04843e-11)
(-7.08669e-13 -1.06004e-11 -1.05087e-11)
(6.7289e-13 -1.11624e-11 -9.98354e-12)
(1.4246e-12 -1.09378e-11 -8.06379e-12)
(2.87698e-12 -1.09627e-11 -7.35256e-12)
(2.9406e-12 -1.13041e-11 -6.21895e-12)
(1.58274e-12 -1.11707e-11 -3.98559e-12)
(1.55517e-12 -1.00207e-11 -6.29107e-14)
(-6.29813e-13 -9.53654e-12 3.06412e-12)
(1.00415e-12 -1.02802e-11 4.8163e-12)
(2.14435e-12 -9.60567e-12 4.49678e-12)
(-2.57524e-13 -9.27057e-12 5.23484e-12)
(-1.53274e-12 -8.16741e-12 8.92646e-12)
(-1.34659e-12 -9.49769e-12 7.75346e-12)
(-2.73843e-12 -1.09908e-11 6.4304e-12)
(-2.33808e-12 -1.08988e-11 7.01075e-12)
(-2.88409e-12 -1.04587e-11 3.25347e-12)
(-2.52966e-12 -9.75355e-12 -3.72411e-12)
(1.61701e-12 -8.26306e-12 -9.60534e-12)
(7.70979e-13 -1.25552e-11 -1.37389e-11)
(-1.07751e-12 -1.3161e-11 -1.64299e-11)
(1.34359e-12 -1.37703e-11 -1.92222e-11)
(3.94783e-12 -1.40692e-11 -2.28567e-11)
(3.30188e-12 -1.31304e-11 -1.88414e-11)
(1.12795e-12 -1.37372e-11 -1.41574e-11)
(8.78685e-13 -1.20893e-11 -8.2132e-12)
(-9.4505e-13 -1.122e-11 -6.07587e-12)
(-2.5235e-12 -1.03839e-11 -6.44498e-12)
(-2.43686e-12 -1.08146e-11 -7.67681e-12)
(-6.24534e-13 -1.14286e-11 -9.93529e-12)
(-1.64146e-12 -1.16058e-11 -1.07574e-11)
(-9.79891e-13 -1.10391e-11 -1.12588e-11)
(-1.01919e-12 -1.10068e-11 -1.12574e-11)
(-8.91814e-13 -1.16868e-11 -1.06911e-11)
(1.57313e-12 -1.25738e-11 -1.0492e-11)
(2.78042e-12 -1.1788e-11 -1.21616e-11)
(3.49273e-12 -1.10739e-11 -9.7569e-12)
(6.32288e-13 -1.15801e-11 -8.36184e-12)
(-1.26323e-12 -1.2471e-11 -7.09278e-12)
(-2.23783e-12 -1.22009e-11 -5.73659e-12)
(-3.93735e-12 -1.11548e-11 -5.55329e-12)
(-2.25963e-12 -1.11632e-11 -4.89534e-12)
(1.28638e-13 -1.02117e-11 -4.91316e-12)
(8.61087e-13 -1.03272e-11 -5.79798e-12)
(2.33092e-12 -1.09121e-11 -6.47684e-12)
(2.26508e-12 -1.07118e-11 -6.90224e-12)
(-5.3608e-13 -1.13093e-11 -5.10873e-12)
(6.8988e-13 -1.14911e-11 -2.62024e-12)
(8.84347e-13 -1.13976e-11 7.8544e-13)
(3.17354e-13 -1.13932e-11 4.65474e-12)
(2.63815e-12 -1.07688e-11 8.27773e-12)
(-1.27549e-12 -1.02268e-11 1.15986e-11)
(-2.93474e-14 -4.51381e-12 -7.70876e-12)
(-4.05579e-13 -5.80388e-12 -7.88206e-12)
(-3.03974e-14 -6.00738e-12 -7.27493e-12)
(-1.04054e-12 -7.35927e-12 -9.57819e-12)
(-2.30279e-12 -5.81157e-12 -1.06451e-11)
(-2.27229e-12 -4.43427e-12 -7.87588e-12)
(-8.97684e-13 -7.44643e-12 -4.05125e-12)
(-7.74774e-13 -6.19034e-12 -1.23417e-12)
(-1.11986e-12 -4.37e-12 -7.73221e-13)
(-9.39501e-13 -5.15461e-12 -1.63434e-12)
(-6.83833e-13 -7.1091e-12 -1.65005e-12)
(-6.5712e-14 -6.43283e-12 -3.71835e-12)
(1.25768e-12 -8.70311e-12 -7.03892e-12)
(2.19058e-12 -7.65028e-12 -1.07473e-11)
(1.80672e-12 -5.38802e-12 -1.27629e-11)
(8.99448e-13 -5.88127e-12 -1.18069e-11)
(1.92389e-13 -5.44368e-12 -8.9038e-12)
(-4.02836e-13 -5.3402e-12 -6.82964e-12)
(-5.20146e-13 -7.26257e-12 -4.46888e-12)
(8.57381e-13 -7.33872e-12 -1.85028e-12)
(4.98723e-13 -6.89439e-12 1.11005e-12)
(-5.16668e-13 -5.79712e-12 2.22805e-12)
(-1.25144e-12 -6.36469e-12 1.91896e-12)
(-1.33118e-12 -7.96698e-12 3.46068e-13)
(-1.62836e-12 -5.62776e-12 -3.34398e-12)
(-8.2913e-14 -6.20659e-12 -7.25462e-12)
(1.20133e-12 -5.10684e-12 -7.73294e-12)
(7.53247e-13 -5.93347e-12 -8.03531e-12)
(1.07289e-12 -5.4656e-12 -7.95898e-12)
(1.75153e-12 -5.60654e-12 -7.38945e-12)
(1.83103e-12 -5.34693e-12 -6.65556e-12)
(5.92742e-13 -4.4395e-12 -6.69675e-12)
(-6.25788e-14 -3.78192e-12 -4.82096e-12)
(-1.28107e-13 -4.82206e-12 -4.19725e-12)
(8.902e-13 -2.84466e-12 -4.41923e-12)
(1.11685e-12 -3.45959e-12 -5.19405e-12)
(-6.8401e-13 -3.91131e-12 -6.11577e-12)
(-1.39368e-12 -5.30515e-12 -7.2143e-12)
(-6.64416e-13 -5.60263e-12 -8.12068e-12)
(-4.18746e-13 -5.60283e-12 -7.0598e-12)
(-7.45001e-13 -7.79151e-12 -6.33514e-12)
(-1.38868e-12 -7.16978e-12 -6.36376e-12)
(-1.19009e-12 -6.91012e-12 -6.92036e-12)
(2.63613e-14 -6.02294e-12 -7.07025e-12)
(4.88858e-13 -7.66732e-12 -6.634e-12)
(4.2531e-13 -6.75061e-12 -5.53944e-12)
(1.74458e-12 -7.67389e-12 -4.10103e-12)
(2.63538e-12 -6.55885e-12 -4.34642e-12)
(1.5637e-12 -5.81603e-12 -2.69608e-12)
(9.38147e-13 -4.99311e-12 8.96125e-13)
(6.93566e-13 -4.59053e-12 4.04375e-12)
(1.17103e-12 -6.81635e-12 5.68996e-12)
(6.88884e-13 -5.27822e-12 5.65595e-12)
(-8.12371e-13 -4.19754e-12 5.97205e-12)
(-1.00948e-12 -4.41111e-12 8.28936e-12)
(-1.05206e-13 -5.7341e-12 8.47022e-12)
(-1.96242e-12 -6.37272e-12 8.28526e-12)
(-3.44048e-12 -7.90626e-12 7.54976e-12)
(-2.68522e-12 -5.54072e-12 4.28193e-12)
(-2.51577e-12 -7.73484e-12 -1.94567e-12)
(7.99874e-13 -5.39072e-12 -7.15182e-12)
(2.86027e-12 -7.78717e-12 -8.79711e-12)
(1.41096e-12 -7.86314e-12 -9.88947e-12)
(1.3147e-12 -9.18708e-12 -1.01358e-11)
(1.96446e-12 -8.7396e-12 -1.17051e-11)
(1.82392e-12 -6.92002e-12 -1.13869e-11)
(8.51652e-13 -7.11966e-12 -9.37602e-12)
(6.718e-13 -6.50655e-12 -6.05273e-12)
(-5.92122e-13 -6.29633e-12 -5.83963e-12)
(-1.31177e-12 -5.92442e-12 -7.19601e-12)
(-5.08583e-13 -7.00161e-12 -6.74165e-12)
(-4.72213e-13 -7.95034e-12 -8.63312e-12)
(-2.09651e-12 -7.49318e-12 -1.02395e-11)
(-1.59008e-12 -8.10397e-12 -1.1374e-11)
(-2.13286e-13 -6.59259e-12 -1.15703e-11)
(8.4186e-13 -7.51861e-12 -1.01029e-11)
(1.40191e-12 -7.88184e-12 -8.37085e-12)
(8.62587e-13 -7.38622e-12 -7.83754e-12)
(8.58716e-13 -5.47829e-12 -6.93352e-12)
(8.3219e-13 -5.56271e-12 -4.60596e-12)
(-1.9361e-13 -5.68508e-12 -4.87336e-12)
(-1.87526e-12 -5.79133e-12 -5.0184e-12)
(-2.24986e-12 -6.13156e-12 -5.47991e-12)
(-1.4222e-12 -7.62395e-12 -4.1296e-12)
(-5.0933e-13 -6.61857e-12 -4.59055e-12)
(9.35792e-13 -6.65086e-12 -5.23336e-12)
(1.66979e-12 -6.94794e-12 -6.35615e-12)
(1.59679e-12 -6.55697e-12 -4.5551e-12)
(2.76042e-13 -5.94623e-12 -3.62183e-12)
(4.40992e-13 -7.57467e-12 -2.13409e-12)
(9.73837e-13 -6.2089e-12 -2.38115e-13)
(7.9996e-13 -7.41183e-12 2.65459e-12)
(8.50519e-13 -4.50644e-12 6.53975e-12)
(-1.25827e-12 -3.42339e-12 9.6312e-12)
(9.91117e-13 1.50154e-12 -9.59362e-12)
(1.2788e-12 -1.0828e-12 -1.08166e-11)
(1.12103e-12 -1.46199e-12 -1.21096e-11)
(-1.14825e-12 -1.27324e-12 -1.21588e-11)
(-3.29199e-12 -3.7703e-13 -9.79718e-12)
(-1.95851e-12 2.52372e-13 -5.03118e-12)
(-9.90971e-13 -1.13905e-12 -1.83739e-12)
(-2.22781e-12 -4.12653e-13 -1.70218e-12)
(-1.47843e-12 1.92756e-12 -2.50154e-12)
(-3.66744e-15 1.17084e-12 -2.11318e-12)
(1.13386e-13 -6.30537e-13 -2.01635e-12)
(7.05968e-13 1.31753e-13 -3.66181e-12)
(1.14325e-12 -1.37181e-12 -3.70726e-12)
(7.23806e-13 -4.0234e-13 -4.35015e-12)
(1.41321e-12 9.07888e-13 -6.89526e-12)
(1.05351e-12 -1.35425e-12 -5.13589e-12)
(-6.77027e-13 -1.65305e-12 -5.05177e-12)
(-3.04276e-13 -8.76527e-13 -5.19602e-12)
(3.90468e-13 2.57063e-13 -3.36975e-12)
(9.63056e-13 -1.51595e-12 3.56042e-13)
(-2.70803e-13 -1.50983e-12 3.81142e-12)
(-5.47979e-13 -6.91031e-13 3.8022e-12)
(-4.9306e-13 -8.39823e-13 3.0711e-12)
(-2.12588e-12 -1.56247e-12 2.06623e-14)
(-1.94929e-12 5.72563e-13 -4.07458e-12)
(-5.20298e-13 -1.98482e-13 -6.32824e-12)
(1.75176e-13 9.25522e-13 -8.119e-12)
(8.42468e-13 7.05763e-13 -9.83842e-12)
(9.10869e-13 2.17182e-12 -1.06814e-11)
(1.14746e-12 1.31908e-12 -1.05012e-11)
(1.73621e-12 1.20214e-12 -9.81498e-12)
(5.67301e-13 1.09422e-12 -1.0016e-11)
(1.30337e-13 2.45767e-12 -1.00616e-11)
(-1.69145e-13 7.90844e-13 -7.71125e-12)
(4.98765e-13 1.92826e-12 -4.22342e-12)
(2.15744e-12 7.67494e-13 -1.98723e-12)
(5.90665e-13 -9.79938e-13 -9.9829e-13)
(-2.46991e-13 -1.18418e-12 5.83116e-13)
(-3.65124e-13 -2.70075e-12 1.19069e-12)
(-1.63048e-13 -1.25266e-12 1.52564e-12)
(-4.61715e-13 -2.58571e-12 9.86439e-13)
(-2.00908e-12 -1.4885e-12 -5.03489e-13)
(-2.27051e-12 -6.57234e-13 -3.29265e-12)
(1.88872e-13 5.29981e-13 -4.25086e-12)
(1.1098e-12 -1.38371e-12 -3.4817e-12)
(1.10194e-12 -1.63302e-12 -2.13604e-12)
(1.79353e-12 -1.00206e-12 -1.16827e-12)
(1.68457e-12 -9.77583e-13 -1.08066e-12)
(1.03038e-12 -8.35241e-13 1.65327e-12)
(-1.81237e-13 -1.64316e-12 5.31879e-12)
(5.34697e-13 -5.61628e-13 7.29075e-12)
(9.04198e-13 -6.47046e-13 7.88809e-12)
(-3.65239e-13 -2.20298e-15 7.51009e-12)
(-7.13567e-13 1.85872e-12 7.18938e-12)
(3.46402e-13 -1.72781e-13 8.14902e-12)
(7.15822e-13 -1.21649e-12 1.08456e-11)
(-8.59132e-13 -1.43349e-12 1.14411e-11)
(-2.96542e-12 -1.84425e-12 8.37786e-12)
(-2.15218e-12 3.32788e-13 2.12182e-12)
(-1.55106e-12 -1.78422e-12 -8.68886e-13)
(1.05387e-12 2.74871e-15 -2.76159e-12)
(2.06048e-12 -1.06638e-12 -3.51922e-12)
(7.33286e-13 -1.40764e-12 -4.01195e-12)
(1.8767e-12 -1.45238e-12 -4.56521e-12)
(1.55101e-12 -8.02797e-13 -4.21996e-12)
(1.32037e-12 -1.56686e-12 -4.43651e-12)
(4.09819e-13 -1.31252e-12 -4.50512e-12)
(-3.62804e-13 -3.20251e-13 -5.42905e-12)
(-8.87895e-13 -9.53889e-13 -3.85342e-12)
(-1.66683e-12 -4.85545e-13 -4.06732e-12)
(-8.47162e-13 1.08842e-13 -5.01049e-12)
(-1.86759e-14 -1.63614e-12 -6.54945e-12)
(-1.24842e-12 -1.33197e-12 -9.69239e-12)
(-1.7137e-12 -1.37161e-12 -1.25159e-11)
(-1.92186e-12 1.29224e-13 -1.26169e-11)
(2.86444e-13 1.05711e-12 -1.01443e-11)
(1.62103e-12 -1.23733e-12 -5.14694e-12)
(1.32237e-12 -1.14332e-12 -1.41747e-12)
(1.65713e-12 -8.52514e-13 -1.33681e-12)
(-8.30231e-15 -2.71718e-13 -1.00192e-12)
(-1.56719e-12 -4.17193e-13 -1.33588e-12)
(-1.99541e-12 2.67295e-13 -1.87093e-12)
(-1.29602e-12 1.89875e-13 -2.43469e-12)
(-1.11474e-12 -2.46104e-13 -2.84915e-12)
(-3.58032e-13 5.59491e-14 -3.67492e-12)
(1.07168e-12 1.48716e-12 -4.36295e-12)
(2.03096e-12 -7.12594e-13 -4.52971e-12)
(1.1886e-12 -4.76094e-13 -4.07774e-12)
(2.98423e-13 4.6615e-13 -3.12544e-12)
(6.13401e-13 6.63111e-13 -2.09379e-12)
(1.28089e-13 2.1496e-13 -1.96699e-12)
(-8.17748e-14 1.25925e-12 -1.24432e-12)
(-8.9536e-13 -2.27535e-13 8.9148e-13)
(-1.2363e-12 1.69002e-12 4.35546e-12)
(2.44492e-12 5.58638e-12 -1.15828e-11)
(2.63375e-12 5.10776e-12 -1.11927e-11)
(9.29812e-13 4.86461e-12 -1.27121e-11)
(-1.55727e-12 4.70177e-12 -1.26496e-11)
(-4.16199e-12 5.65354e-12 -1.0496e-11)
(-1.9137e-12 6.21107e-12 -5.05733e-12)
(-3.03718e-13 5.30132e-12 -1.35885e-12)
(-3.61355e-12 4.82493e-12 -2.22894e-12)
(-2.73867e-12 4.97339e-12 -6.0075e-12)
(1.98104e-12 5.74052e-12 -2.98987e-12)
(2.3593e-13 5.05293e-12 -2.64362e-12)
(3.8206e-13 4.51392e-12 -6.4455e-12)
(1.32903e-12 4.97495e-12 -3.70956e-12)
(-8.4336e-13 5.33662e-12 -2.90426e-12)
(2.12441e-12 5.50634e-12 -7.68126e-12)
(2.70915e-12 5.38762e-12 -4.26012e-12)
(-3.03702e-13 4.2617e-12 -4.1587e-12)
(-1.47663e-12 4.94649e-12 -4.7045e-12)
(1.58069e-13 4.70155e-12 -5.36965e-12)
(2.67943e-12 4.71635e-12 -8.84303e-13)
(-2.74563e-13 5.07704e-12 3.14899e-12)
(-1.20369e-12 5.50272e-12 3.06638e-12)
(-7.34844e-13 5.11363e-12 1.71853e-12)
(-3.09259e-12 4.64164e-12 -1.87251e-12)
(-3.75055e-12 3.8721e-12 -6.42382e-12)
(-8.22817e-13 5.05451e-12 -7.3343e-12)
(9.4263e-13 3.96875e-12 -1.00393e-11)
(-4.9202e-13 4.44314e-12 -1.28179e-11)
(7.07157e-13 5.01996e-12 -1.56464e-11)
(2.50786e-12 4.53142e-12 -1.37926e-11)
(2.13361e-12 4.91075e-12 -1.35347e-11)
(-2.90223e-13 5.73974e-12 -1.28012e-11)
(2.56683e-13 5.52449e-12 -1.46428e-11)
(3.9513e-13 6.20008e-12 -9.57568e-12)
(5.92456e-13 7.04702e-12 -3.60887e-12)
(3.87422e-12 6.08732e-12 -1.10581e-12)
(1.3172e-12 5.75416e-12 7.86265e-13)
(1.58454e-13 5.78641e-12 2.00926e-12)
(-7.52175e-13 6.01648e-12 3.32766e-12)
(-1.46501e-14 5.51449e-12 5.04296e-12)
(3.74916e-14 4.96077e-12 2.06865e-12)
(-2.89801e-12 5.14209e-12 -4.03231e-13)
(-2.93128e-12 4.94323e-12 1.89061e-14)
(5.11081e-13 3.54363e-12 -5.66324e-12)
(2.23275e-12 4.07766e-12 -3.67744e-12)
(2.1406e-13 3.81709e-12 -3.1817e-12)
(1.05799e-12 5.45806e-12 -4.50512e-12)
(2.80142e-12 4.83596e-12 -1.75332e-12)
(1.72736e-12 5.31669e-12 2.35482e-12)
(2.62667e-13 4.99147e-12 6.50827e-12)
(5.00544e-13 6.35731e-12 7.60546e-12)
(6.01672e-13 6.16354e-12 8.8636e-12)
(-1.81808e-12 6.21483e-12 7.76255e-12)
(-8.5611e-13 6.37355e-12 4.70119e-12)
(2.12766e-12 5.96996e-12 6.7437e-12)
(1.25701e-12 5.4325e-12 9.85346e-12)
(-1.38138e-12 5.48211e-12 1.0536e-11)
(-4.7238e-12 5.01884e-12 7.36299e-12)
(-2.67691e-12 4.93686e-12 1.64699e-12)
(-2.61753e-12 3.10764e-12 -9.43e-13)
(7.50808e-13 3.90875e-12 -2.02616e-12)
(4.43611e-12 5.05378e-12 -2.47865e-12)
(2.02666e-12 4.12941e-12 -2.6092e-12)
(4.8217e-13 4.57497e-12 -3.21202e-12)
(1.4616e-12 4.48097e-12 -4.72889e-12)
(2.02459e-12 4.529e-12 -3.61511e-12)
(-3.40716e-13 4.73636e-12 -3.93365e-12)
(-4.47515e-13 4.74372e-12 -5.53913e-12)
(-7.61032e-13 5.4537e-12 -3.79971e-12)
(-2.61186e-12 5.18073e-12 -3.41607e-12)
(4.31859e-13 4.58647e-12 -4.03514e-12)
(1.38104e-12 3.77007e-12 -5.79464e-12)
(-1.74773e-12 4.53156e-12 -8.10987e-12)
(-3.30505e-12 4.53716e-12 -1.20304e-11)
(-3.85272e-12 4.63787e-12 -1.47619e-11)
(1.77177e-12 4.81982e-12 -1.28208e-11)
(4.30962e-12 4.91095e-12 -4.8288e-12)
(1.46812e-12 5.35888e-12 6.59652e-13)
(4.38421e-13 5.80875e-12 -2.94569e-13)
(-2.00177e-13 6.85825e-12 -1.01634e-12)
(-1.03279e-12 5.7484e-12 -1.16055e-12)
(-2.53066e-12 5.90325e-12 -1.50694e-12)
(-1.98303e-12 5.48599e-12 -1.65221e-12)
(-1.71536e-12 5.92232e-12 -1.6173e-12)
(-2.36778e-12 5.17063e-12 -2.64959e-12)
(1.7351e-12 5.72759e-12 -3.63755e-12)
(4.09596e-12 5.03304e-12 -4.22167e-12)
(4.4962e-13 5.48325e-12 -3.98271e-12)
(-9.91099e-13 4.60736e-12 -2.72405e-12)
(7.00672e-13 5.9389e-12 -1.35339e-12)
(2.99434e-13 6.187e-12 -2.67046e-12)
(1.55583e-13 7.13353e-12 -3.54347e-12)
(4.16172e-13 6.30923e-12 -9.81447e-13)
(-2.36253e-12 7.07224e-12 2.60361e-12)
(2.84062e-13 2.39879e-12 -8.20371e-12)
(2.95427e-13 3.27195e-12 -8.37908e-12)
(8.19392e-13 4.45369e-12 -9.43126e-12)
(-9.04589e-13 4.80783e-12 -9.88267e-12)
(-2.86954e-12 4.40434e-12 -8.17919e-12)
(-1.24163e-12 2.98246e-12 -4.84808e-12)
(2.33465e-13 4.23891e-12 -2.74524e-12)
(-1.22949e-12 3.81035e-12 -2.25751e-12)
(-1.7677e-12 2.12693e-12 -2.85731e-12)
(2.46545e-13 2.50639e-12 -3.11332e-12)
(9.75986e-13 3.45584e-12 -2.38014e-12)
(4.9483e-13 2.31996e-12 -2.68702e-12)
(7.05263e-13 3.41983e-12 -2.24463e-12)
(4.64945e-13 3.0703e-12 -2.29607e-12)
(8.47639e-13 2.54919e-12 -3.76397e-12)
(1.766e-12 4.36095e-12 -3.51278e-12)
(1.73637e-13 4.07566e-12 -2.68276e-12)
(-5.00425e-13 3.4661e-12 -2.4739e-12)
(4.3153e-14 3.02198e-12 -2.62845e-12)
(2.19039e-13 4.19434e-12 -1.1409e-12)
(-7.38162e-13 4.77045e-12 5.36892e-13)
(-4.44465e-13 4.29311e-12 6.62051e-13)
(3.25573e-13 4.50835e-12 -1.36246e-13)
(-9.84019e-13 3.70296e-12 -2.26494e-12)
(-1.51535e-12 1.96432e-12 -4.37765e-12)
(-6.98201e-13 1.41324e-12 -4.86054e-12)
(-2.98463e-14 2.0448e-12 -6.58847e-12)
(-6.81222e-13 2.45513e-12 -7.7768e-12)
(3.89846e-13 1.88862e-12 -8.7425e-12)
(1.6612e-12 2.94977e-12 -7.53109e-12)
(8.97742e-13 3.64103e-12 -6.06363e-12)
(2.43953e-13 4.59594e-12 -6.73631e-12)
(2.80325e-13 3.59127e-12 -7.10425e-12)
(7.09533e-14 4.81153e-12 -5.14889e-12)
(9.14438e-13 3.27056e-12 -2.82254e-12)
(1.60907e-12 4.72678e-12 -1.33845e-12)
(1.23368e-13 5.53382e-12 3.63952e-14)
(-8.59273e-13 5.04565e-12 9.43337e-13)
(-1.24752e-13 5.04567e-12 1.59932e-12)
(9.11639e-13 4.50569e-12 2.06426e-12)
(-1.90491e-13 5.21769e-12 1.08423e-12)
(-1.64018e-12 4.26679e-12 1.65787e-13)
(-1.57964e-13 3.03079e-12 -3.07735e-13)
(9.19328e-13 1.77158e-12 -2.00183e-12)
(6.91777e-13 3.45094e-12 -1.90167e-12)
(-1.88807e-13 3.45844e-12 -1.75493e-12)
(7.0661e-13 2.84049e-12 -2.10484e-12)
(1.80231e-12 3.76274e-12 -1.13649e-12)
(5.87934e-13 4.20333e-12 9.84103e-13)
(-4.21438e-13 4.71552e-12 4.15036e-12)
(1.0886e-13 4.60971e-12 5.72089e-12)
(6.36902e-13 5.50997e-12 6.04158e-12)
(-2.31363e-13 5.46029e-12 5.25406e-12)
(-4.2792e-13 3.57585e-12 4.40764e-12)
(-1.76587e-13 4.13185e-12 4.50892e-12)
(8.04899e-13 5.28524e-12 5.32291e-12)
(-5.7143e-13 5.82727e-12 5.18386e-12)
(-2.28324e-12 4.43249e-12 2.53401e-12)
(3.34597e-13 2.08605e-12 -1.33068e-12)
(-2.29952e-13 1.28058e-12 -2.0402e-12)
(1.1079e-13 4.08538e-14 -1.76387e-12)
(1.543e-12 1.67262e-12 -1.59654e-12)
(4.22409e-13 2.42401e-12 -9.95135e-13)
(6.39138e-13 3.40622e-12 -2.67063e-13)
(1.19122e-12 2.87136e-12 3.91924e-13)
(8.53522e-13 3.27884e-12 -7.74888e-13)
(-2.56307e-13 3.47177e-12 -1.72626e-12)
(-9.674e-13 2.33843e-12 -2.55743e-12)
(-7.22512e-13 3.16603e-12 -2.06998e-12)
(-3.01756e-14 1.90354e-12 -1.95782e-12)
(1.01889e-12 1.18894e-12 -2.45087e-12)
(-6.16407e-14 2.39323e-12 -3.99497e-12)
(-2.90695e-12 3.54886e-12 -6.83949e-12)
(-2.15921e-12 2.99936e-12 -9.69355e-12)
(-2.58551e-12 2.13518e-12 -1.06204e-11)
(-6.95475e-13 1.79942e-12 -9.28324e-12)
(1.086e-12 3.92993e-12 -5.09019e-12)
(8.93889e-13 4.38088e-12 -1.18903e-12)
(-2.17521e-13 4.16948e-12 -2.87855e-13)
(6.57081e-14 5.40575e-12 -1.57332e-13)
(3.37994e-13 5.67255e-12 -6.42092e-13)
(-5.81814e-13 4.51197e-12 -1.0302e-12)
(-1.02407e-12 3.6629e-12 -1.53687e-12)
(-4.44146e-13 3.8946e-12 -1.93169e-12)
(-3.59109e-13 3.00602e-12 -3.1308e-12)