/*--------------------------------*- C++ -*----------------------------------*\
| =========                 |                                                 |
| \\      /  F ield         | OpenFOAM: The Open Source CFD Toolbox           |
|  \\    /   O peration     | Version:  2406                                  |
|   \\  /    A nd           | Website:  www.openfoam.com                      |
|    \\/     M anipulation  |                                                 |
\*---------------------------------------------------------------------------*/
FoamFile
{
    version     2.0;
    format      ascii;
    arch        "LSB;label=32;scalar=64";
    class       volScalarField;
    location    "0.045";
    object      Ma;
}
// * * * * * * * * * * * * * * * * * * * * * * * * * * * * * * * * * * * * * //

dimensions      [0 0 0 0 0 0 0];

internalField   nonuniform List<scalar> 
14020
(
0.765504
0.765492
0.765477
0.765458
0.765437
0.765414
0.765392
0.765373
0.765358
0.765346
0.765335
0.765324
0.765312
0.765297
0.765278
0.765256
0.765232
0.765208
0.765186
0.765167
0.765151
0.765136
0.765122
0.765107
0.765091
0.765072
0.765051
0.765029
0.765006
0.764986
0.764967
0.764951
0.764937
0.764922
0.764907
0.76489
0.764871
0.76485
0.764828
0.764807
0.764787
0.76477
0.764756
0.764743
0.764731
0.764718
0.764703
0.764686
0.764666
0.764643
0.764618
0.764594
0.76457
0.764549
0.764529
0.764509
0.764489
0.764467
0.764442
0.764413
0.764384
0.764361
0.764351
0.764349
0.764349
0.76435
0.764351
0.764355
0.764362
0.764371
0.764382
0.764396
0.764412
0.764429
0.764447
0.764466
0.764487
0.764509
0.764533
0.764559
0.764588
0.76462
0.764655
0.764694
0.764737
0.764786
0.76484
0.7649
0.764967
0.76504
0.765117
0.765197
0.765278
0.765356
0.765428
0.765486
0.76552
0.765531
0.765532
0.765532
0.765531
0.765531
0.76553
0.765528
0.765526
0.765524
0.76552
0.765516
0.765513
0.765511
0.765511
0.765511
0.765511
0.765512
0.765513
0.765515
0.765517
0.76552
0.765523
0.765526
0.765528
0.765531
0.765534
0.765538
0.765542
0.765547
0.765552
0.765559
0.765566
0.765573
0.765579
0.765585
0.76559
0.765594
0.765598
0.765602
0.765607
0.765609
0.765608
0.765592
0.765481
0.764768
0.760269
0.733155
0.597927
0.232259
0.0120867
4.73007e-05
1.0909e-08
3.27397e-13
4.0396e-14
4.29031e-14
4.09655e-14
3.72966e-14
3.03697e-14
2.92383e-14
2.71184e-14
3.19016e-14
3.49782e-14
3.9418e-14
4.33867e-14
4.54042e-14
4.72954e-14
4.98488e-14
5.47272e-14
5.50728e-14
5.55344e-14
5.11451e-14
4.49016e-14
4.02502e-14
3.62965e-14
3.50775e-14
3.50927e-14
3.30904e-14
3.89771e-14
4.24215e-14
3.93204e-14
3.40321e-14
3.17925e-14
2.87152e-14
2.34845e-14
2.11802e-14
1.88997e-14
1.541e-14
1.33302e-14
1.39123e-14
1.79794e-14
2.71341e-14
3.48901e-14
3.19633e-14
3.31506e-14
3.39276e-14
3.03419e-14
3.00769e-14
3.12787e-14
2.86275e-14
2.67938e-14
2.67359e-14
2.50232e-14
2.14514e-14
2.11955e-14
2.17483e-14
1.92677e-14
2.47426e-14
2.54091e-14
2.62369e-14
2.68017e-14
2.27938e-14
2.21659e-14
2.13433e-14
2.39501e-14
2.68563e-14
2.83079e-14
2.9219e-14
2.72394e-14
2.62219e-14
2.48491e-14
2.17315e-14
2.41646e-14
3.5925e-14
4.40066e-14
4.9807e-14
5.32092e-14
5.1826e-14
5.26939e-14
5.25982e-14
5.35294e-14
4.71435e-14
4.46416e-14
4.96978e-14
5.57043e-14
0.765504
0.765492
0.765477
0.765458
0.765437
0.765414
0.765392
0.765373
0.765358
0.765346
0.765335
0.765325
0.765312
0.765297
0.765278
0.765256
0.765232
0.765208
0.765186
0.765167
0.765151
0.765136
0.765122
0.765107
0.765091
0.765072
0.765051
0.765029
0.765007
0.764986
0.764967
0.764951
0.764937
0.764922
0.764907
0.76489
0.764871
0.76485
0.764828
0.764807
0.764787
0.76477
0.764756
0.764743
0.764731
0.764718
0.764704
0.764686
0.764666
0.764643
0.764618
0.764594
0.76457
0.764549
0.764529
0.764509
0.764489
0.764467
0.764442
0.764413
0.764384
0.764361
0.764351
0.764349
0.764349
0.76435
0.764351
0.764355
0.764362
0.764371
0.764382
0.764396
0.764412
0.764429
0.764447
0.764466
0.764487
0.764509
0.764533
0.764559
0.764588
0.76462
0.764655
0.764694
0.764737
0.764786
0.76484
0.7649
0.764967
0.76504
0.765117
0.765197
0.765278
0.765356
0.765428
0.765486
0.76552
0.765531
0.765532
0.765532
0.765531
0.765531
0.76553
0.765528
0.765526
0.765524
0.76552
0.765516
0.765513
0.765511
0.765511
0.765511
0.765511
0.765512
0.765513
0.765515
0.765517
0.76552
0.765523
0.765526
0.765529
0.765531
0.765534
0.765538
0.765542
0.765547
0.765552
0.765559
0.765566
0.765573
0.765579
0.765585
0.76559
0.765594
0.765598
0.765602
0.765607
0.765609
0.765608
0.765592
0.765482
0.764768
0.760269
0.733156
0.597928
0.23226
0.0120867
4.7301e-05
1.09091e-08
3.22482e-13
3.85923e-14
3.9127e-14
3.65973e-14
3.37924e-14
2.75398e-14
2.66466e-14
2.52412e-14
3.1184e-14
3.35549e-14
3.75509e-14
4.33027e-14
4.68429e-14
4.87439e-14
5.13451e-14
5.47087e-14
5.27233e-14
5.35963e-14
5.01784e-14
4.2988e-14
4.1315e-14
3.5262e-14
3.26739e-14
3.06423e-14
3.47491e-14
4.11814e-14
4.14805e-14
3.84136e-14
3.40003e-14
3.21206e-14
2.84411e-14
2.42283e-14
2.15777e-14
1.85566e-14
1.49266e-14
1.34181e-14
1.52262e-14
1.96471e-14
2.46198e-14
3.01612e-14
3.0464e-14
3.08198e-14
3.27854e-14
2.872e-14
2.94834e-14
3.05887e-14
2.73571e-14
2.52487e-14
2.56994e-14
2.43095e-14
2.08238e-14
2.03157e-14
2.11399e-14
2.07989e-14
2.29493e-14
2.47594e-14
2.62168e-14
2.4904e-14
2.1635e-14
1.95307e-14
2.03055e-14
2.41373e-14
2.67684e-14
2.81546e-14
2.95152e-14
2.86737e-14
2.60181e-14
2.36889e-14
2.1981e-14
2.73261e-14
3.73447e-14
4.19572e-14
4.77125e-14
5.20523e-14
5.01423e-14
5.29093e-14
5.19875e-14
4.8983e-14
4.75254e-14
4.67075e-14
4.58516e-14
4.71183e-14
0.765504
0.765492
0.765477
0.765458
0.765437
0.765414
0.765392
0.765373
0.765358
0.765346
0.765335
0.765325
0.765312
0.765297
0.765278
0.765256
0.765232
0.765208
0.765186
0.765167
0.765151
0.765136
0.765122
0.765107
0.765091
0.765072
0.765051
0.765029
0.765007
0.764986
0.764967
0.764951
0.764937
0.764922
0.764907
0.76489
0.764871
0.76485
0.764828
0.764807
0.764787
0.76477
0.764756
0.764743
0.764731
0.764718
0.764704
0.764686
0.764666
0.764643
0.764618
0.764594
0.76457
0.764549
0.764529
0.764509
0.764489
0.764467
0.764442
0.764413
0.764384
0.764361
0.76435
0.764349
0.764349
0.764349
0.764351
0.764355
0.764362
0.764371
0.764382
0.764396
0.764412
0.764429
0.764447
0.764466
0.764487
0.764509
0.764533
0.764559
0.764588
0.76462
0.764655
0.764694
0.764737
0.764786
0.76484
0.7649
0.764967
0.76504
0.765117
0.765197
0.765278
0.765356
0.765428
0.765486
0.76552
0.765531
0.765532
0.765532
0.765531
0.765531
0.76553
0.765528
0.765526
0.765524
0.76552
0.765516
0.765513
0.765511
0.765511
0.765511
0.765511
0.765512
0.765513
0.765515
0.765517
0.76552
0.765523
0.765526
0.765529
0.765531
0.765534
0.765538
0.765542
0.765547
0.765552
0.765559
0.765566
0.765573
0.765579
0.765585
0.76559
0.765594
0.765598
0.765602
0.765607
0.765609
0.765608
0.765592
0.765482
0.764768
0.760269
0.733155
0.597928
0.23226
0.0120868
4.73011e-05
1.09091e-08
3.22448e-13
3.08329e-14
2.98974e-14
2.94786e-14
2.88554e-14
2.49084e-14
2.09664e-14
2.21392e-14
2.69018e-14
3.06928e-14
3.39541e-14
3.90949e-14
4.35067e-14
4.57976e-14
4.68224e-14
4.71524e-14
4.49855e-14
4.66215e-14
4.28752e-14
3.73823e-14
3.52314e-14
2.96987e-14
2.78927e-14
3.1316e-14
3.9895e-14
4.05151e-14
3.71329e-14
3.4561e-14
3.48024e-14
3.25298e-14
2.84341e-14
2.3215e-14
1.91432e-14
1.5761e-14
1.32174e-14
1.03839e-14
1.26346e-14
1.72591e-14
2.07887e-14
2.40415e-14
2.56822e-14
2.51308e-14
2.56795e-14
2.35792e-14
2.32431e-14
2.32373e-14
2.18228e-14
1.89357e-14
1.86077e-14
1.86551e-14
1.65834e-14
1.67653e-14
1.77229e-14
1.8831e-14
1.9091e-14
2.0889e-14
2.2431e-14
2.10531e-14
1.94084e-14
1.64581e-14
1.5886e-14
1.85982e-14
2.19155e-14
2.52845e-14
2.57547e-14
2.59638e-14
2.14428e-14
2.21382e-14
2.41962e-14
3.01567e-14
3.24618e-14
3.80802e-14
4.67313e-14
5.06375e-14
5.08322e-14
4.72151e-14
4.46152e-14
4.68892e-14
4.91661e-14
4.60321e-14
4.7018e-14
4.42758e-14
0.765504
0.765492
0.765477
0.765458
0.765437
0.765414
0.765392
0.765373
0.765358
0.765346
0.765336
0.765325
0.765312
0.765297
0.765278
0.765256
0.765232
0.765208
0.765186
0.765167
0.765151
0.765136
0.765122
0.765107
0.765091
0.765072
0.765051
0.765029
0.765007
0.764986
0.764967
0.764951
0.764937
0.764923
0.764907
0.76489
0.764871
0.76485
0.764828
0.764806
0.764787
0.76477
0.764756
0.764743
0.764731
0.764718
0.764704
0.764686
0.764666
0.764643
0.764618
0.764594
0.76457
0.764549
0.764529
0.764509
0.764489
0.764467
0.764442
0.764413
0.764384
0.764361
0.76435
0.764349
0.764349
0.764349
0.764351
0.764355
0.764361
0.764371
0.764382
0.764396
0.764412
0.764429
0.764447
0.764466
0.764487
0.764509
0.764533
0.764559
0.764588
0.76462
0.764655
0.764694
0.764737
0.764786
0.76484
0.7649
0.764967
0.76504
0.765117
0.765197
0.765278
0.765356
0.765429
0.765486
0.76552
0.765531
0.765532
0.765532
0.765531
0.765531
0.76553
0.765528
0.765526
0.765524
0.76552
0.765516
0.765513
0.765511
0.765511
0.765511
0.765511
0.765512
0.765513
0.765515
0.765517
0.76552
0.765523
0.765526
0.765529
0.765531
0.765534
0.765538
0.765542
0.765547
0.765552
0.765559
0.765566
0.765573
0.76558
0.765585
0.76559
0.765594
0.765598
0.765602
0.765607
0.765609
0.765608
0.765592
0.765481
0.764768
0.760269
0.733155
0.597928
0.23226
0.0120868
4.73012e-05
1.09092e-08
3.23728e-13
2.49444e-14
2.49713e-14
2.35837e-14
2.4263e-14
2.55799e-14
2.27998e-14
2.261e-14
2.50861e-14
2.97075e-14
3.11266e-14
3.57667e-14
4.005e-14
4.09547e-14
3.9497e-14
3.77823e-14
3.95537e-14
3.94375e-14
3.68933e-14
3.74472e-14
3.43853e-14
2.79915e-14
2.83564e-14
3.32435e-14
3.6543e-14
3.65554e-14
3.64163e-14
3.48842e-14
3.25389e-14
2.93648e-14
2.64923e-14
2.27695e-14
1.9305e-14
1.47009e-14
1.3073e-14
1.20903e-14
1.27551e-14
1.78963e-14
1.9617e-14
2.28139e-14
2.40717e-14
2.42865e-14
2.64498e-14
2.51344e-14
2.30404e-14
2.2546e-14
1.90526e-14
1.50733e-14
1.44825e-14
1.21624e-14
1.11429e-14
1.22129e-14
1.41704e-14
1.76497e-14
1.91614e-14
2.00877e-14
2.06514e-14
1.98754e-14
1.94332e-14
1.63993e-14
1.39352e-14
1.36795e-14
1.85831e-14
2.06529e-14
2.25424e-14
2.24213e-14
1.89097e-14
2.01203e-14
2.32592e-14
2.81834e-14
3.02547e-14
3.71769e-14
4.2831e-14
4.53017e-14
4.588e-14
4.45797e-14
4.15237e-14
4.36547e-14
4.52359e-14
4.23823e-14
4.30314e-14
4.32744e-14
0.765504
0.765492
0.765477
0.765458
0.765437
0.765414
0.765392
0.765373
0.765358
0.765346
0.765336
0.765325
0.765312
0.765297
0.765278
0.765257
0.765233
0.765208
0.765186
0.765167
0.765151
0.765136
0.765122
0.765107
0.765091
0.765072
0.765051
0.765029
0.765007
0.764986
0.764967
0.764951
0.764937
0.764923
0.764907
0.76489
0.764871
0.76485
0.764828
0.764806
0.764787
0.76477
0.764756
0.764743
0.764731
0.764718
0.764704
0.764686
0.764666
0.764643
0.764618
0.764594
0.76457
0.764549
0.764529
0.764509
0.764489
0.764467
0.764442
0.764413
0.764384
0.764361
0.76435
0.764349
0.764349
0.764349
0.764351
0.764355
0.764361
0.764371
0.764382
0.764396
0.764412
0.764429
0.764447
0.764466
0.764487
0.764509
0.764533
0.764559
0.764588
0.76462
0.764655
0.764694
0.764737
0.764786
0.76484
0.7649
0.764967
0.76504
0.765117
0.765197
0.765278
0.765356
0.765429
0.765486
0.76552
0.765531
0.765532
0.765532
0.765531
0.765531
0.76553
0.765528
0.765526
0.765524
0.76552
0.765516
0.765513
0.765511
0.765511
0.765511
0.765511
0.765512
0.765513
0.765515
0.765517
0.76552
0.765523
0.765526
0.765529
0.765531
0.765534
0.765538
0.765542
0.765547
0.765552
0.765559
0.765566
0.765573
0.76558
0.765585
0.76559
0.765594
0.765598
0.765602
0.765607
0.765609
0.765608
0.765592
0.765481
0.764768
0.760269
0.733155
0.597928
0.23226
0.0120868
4.73012e-05
1.09092e-08
3.21114e-13
2.3995e-14
2.77093e-14
2.45189e-14
2.30885e-14
2.15707e-14
1.96111e-14
2.08193e-14
2.44055e-14
2.78264e-14
3.05797e-14
3.34963e-14
3.54762e-14
3.66e-14
3.56823e-14
3.34601e-14
3.24972e-14
3.13291e-14
2.92122e-14
3.38944e-14
3.12569e-14
2.49918e-14
2.56159e-14
2.85746e-14
3.25491e-14
3.79284e-14
3.5712e-14
3.13312e-14
2.98364e-14
2.7235e-14
2.786e-14
2.55259e-14
1.88959e-14
1.44143e-14
1.37543e-14
1.48857e-14
1.37137e-14
1.67976e-14
1.7601e-14
1.97917e-14
2.07658e-14
2.19677e-14
2.43711e-14
2.6702e-14
2.82851e-14
2.84911e-14
2.10024e-14
1.64589e-14
1.25458e-14
8.34567e-15
7.99918e-15
9.20902e-15
1.06892e-14
1.32944e-14
1.55709e-14
1.89568e-14
2.06405e-14
1.73118e-14
1.71754e-14
1.60627e-14
1.47229e-14
1.58989e-14
1.93517e-14
2.21381e-14
2.15793e-14
1.89405e-14
1.94156e-14
2.01429e-14
2.35534e-14
2.9321e-14
3.2171e-14
3.53729e-14
3.8404e-14
3.86974e-14
3.95007e-14
4.08051e-14
3.86951e-14
4.49372e-14
4.50554e-14
4.2674e-14
4.20762e-14
3.71221e-14
0.765505
0.765492
0.765477
0.765458
0.765437
0.765414
0.765392
0.765373
0.765358
0.765346
0.765336
0.765325
0.765313
0.765297
0.765279
0.765257
0.765233
0.765209
0.765186
0.765167
0.765151
0.765136
0.765122
0.765107
0.765091
0.765072
0.765051
0.765029
0.765007
0.764986
0.764968
0.764951
0.764937
0.764923
0.764907
0.76489
0.764871
0.76485
0.764828
0.764806
0.764787
0.76477
0.764756
0.764743
0.764731
0.764718
0.764704
0.764686
0.764666
0.764643
0.764618
0.764594
0.76457
0.764549
0.764529
0.764509
0.764489
0.764467
0.764442
0.764413
0.764384
0.764361
0.76435
0.764349
0.764349
0.764349
0.764351
0.764355
0.764361
0.764371
0.764382
0.764396
0.764412
0.764429
0.764447
0.764466
0.764487
0.764509
0.764533
0.764559
0.764588
0.76462
0.764655
0.764694
0.764737
0.764786
0.76484
0.7649
0.764967
0.76504
0.765117
0.765197
0.765278
0.765356
0.765429
0.765486
0.76552
0.765531
0.765532
0.765532
0.765531
0.765531
0.76553
0.765528
0.765526
0.765524
0.76552
0.765516
0.765513
0.765511
0.765511
0.765511
0.765511
0.765512
0.765513
0.765515
0.765517
0.76552
0.765523
0.765526
0.765529
0.765531
0.765534
0.765538
0.765542
0.765547
0.765552
0.765559
0.765566
0.765573
0.765579
0.765585
0.76559
0.765594
0.765598
0.765602
0.765607
0.765609
0.765608
0.765592
0.765481
0.764768
0.760269
0.733155
0.597928
0.23226
0.0120868
4.73013e-05
1.09092e-08
3.22074e-13
1.91564e-14
2.39245e-14
2.41778e-14
2.00523e-14
1.59372e-14
1.45836e-14
1.56266e-14
2.0216e-14
2.53159e-14
2.76433e-14
3.0654e-14
3.09231e-14
3.1479e-14
3.01138e-14
3.05072e-14
2.83199e-14
2.62241e-14
2.36915e-14
2.7327e-14
2.55903e-14
2.28608e-14
2.35443e-14
2.71207e-14
3.12714e-14
3.35919e-14
3.172e-14
3.20629e-14
3.11641e-14
2.82899e-14
2.78355e-14
2.35516e-14
1.73061e-14
1.82432e-14
1.47687e-14
1.439e-14
1.46419e-14
1.42016e-14
1.53418e-14
1.64126e-14
1.68291e-14
1.72127e-14
1.94133e-14
2.34644e-14
2.58558e-14
2.27382e-14
1.5584e-14
1.12635e-14
7.9458e-15
5.70465e-15
6.00184e-15
5.12988e-15
6.75868e-15
7.30874e-15
9.49087e-15
1.72645e-14
1.64501e-14
1.31681e-14
1.32226e-14
1.22571e-14
1.40926e-14
1.66986e-14
1.80921e-14
1.98883e-14
2.00255e-14
2.16008e-14
1.91009e-14
2.00922e-14
2.31558e-14
2.60289e-14
2.76042e-14
3.07742e-14
3.23224e-14
3.41034e-14
3.53786e-14
3.59995e-14
3.59937e-14
4.1715e-14
4.25952e-14
4.40435e-14
4.10558e-14
3.41232e-14
0.765505
0.765493
0.765477
0.765458
0.765437
0.765414
0.765392
0.765373
0.765358
0.765346
0.765336
0.765325
0.765313
0.765297
0.765279
0.765257
0.765233
0.765209
0.765186
0.765167
0.765151
0.765136
0.765122
0.765107
0.765091
0.765072
0.765051
0.765029
0.765007
0.764986
0.764968
0.764952
0.764937
0.764923
0.764907
0.76489
0.764871
0.76485
0.764828
0.764806
0.764787
0.76477
0.764756
0.764743
0.764731
0.764718
0.764704
0.764686
0.764666
0.764643
0.764618
0.764594
0.76457
0.764549
0.764529
0.764509
0.764489
0.764467
0.764442
0.764413
0.764384
0.764361
0.764351
0.764349
0.764349
0.764349
0.764351
0.764355
0.764361
0.76437
0.764382
0.764396
0.764412
0.764429
0.764447
0.764466
0.764487
0.764509
0.764533
0.764559
0.764588
0.76462
0.764655
0.764694
0.764737
0.764786
0.76484
0.7649
0.764967
0.76504
0.765117
0.765197
0.765278
0.765356
0.765429
0.765486
0.76552
0.765531
0.765532
0.765532
0.765531
0.765531
0.76553
0.765528
0.765526
0.765524
0.76552
0.765516
0.765513
0.765511
0.765511
0.765511
0.765511
0.765512
0.765513
0.765515
0.765517
0.76552
0.765523
0.765526
0.765529
0.765531
0.765534
0.765538
0.765542
0.765547
0.765552
0.765559
0.765566
0.765573
0.765579
0.765585
0.76559
0.765594
0.765598
0.765602
0.765607
0.765609
0.765608
0.765592
0.765481
0.764768
0.760269
0.733155
0.597928
0.23226
0.0120868
4.73013e-05
1.09092e-08
3.2508e-13
1.82572e-14
2.03803e-14
2.25254e-14
1.99253e-14
1.54755e-14
1.20937e-14
1.27492e-14
1.70575e-14
2.41827e-14
2.74722e-14
3.04029e-14
2.95079e-14
2.81288e-14
2.80954e-14
2.75885e-14
2.74616e-14
2.76989e-14
2.68071e-14
2.82517e-14
2.58813e-14
2.24323e-14
2.12633e-14
2.52358e-14
3.22993e-14
3.48041e-14
3.15196e-14
2.96966e-14
2.88689e-14
2.94206e-14
2.76778e-14
2.30713e-14
1.81245e-14
1.6255e-14
1.29911e-14
1.35425e-14
1.40674e-14
1.50681e-14
1.39682e-14
1.50902e-14
1.54345e-14
1.62462e-14
1.75931e-14
1.81693e-14
1.92144e-14
1.34781e-14
9.83692e-15
1.10736e-14
1.10248e-14
8.92049e-15
1.01389e-14
8.4186e-15
7.83055e-15
9.44606e-15
1.16371e-14
1.53648e-14
1.46007e-14
1.26773e-14
1.37225e-14
1.38819e-14
1.41619e-14
1.56258e-14
1.55074e-14
1.65835e-14
1.70166e-14
1.623e-14
1.4499e-14
1.66311e-14
2.10616e-14
2.31991e-14
2.48171e-14
2.78291e-14
3.06548e-14
3.22548e-14
3.13434e-14
3.09361e-14
3.28225e-14
3.50093e-14
3.73126e-14
3.92305e-14
3.92641e-14
3.42654e-14
0.765505
0.765493
0.765477
0.765458
0.765437
0.765414
0.765392
0.765373
0.765358
0.765346
0.765336
0.765325
0.765313
0.765297
0.765279
0.765257
0.765233
0.765209
0.765186
0.765167
0.765151
0.765136
0.765122
0.765107
0.765091
0.765072
0.765051
0.765029
0.765007
0.764986
0.764968
0.764952
0.764937
0.764923
0.764907
0.76489
0.764871
0.76485
0.764828
0.764806
0.764787
0.76477
0.764756
0.764744
0.764731
0.764719
0.764704
0.764686
0.764666
0.764643
0.764618
0.764594
0.76457
0.764549
0.764529
0.764509
0.764489
0.764467
0.764442
0.764413
0.764384
0.764361
0.764351
0.764349
0.764349
0.764349
0.764351
0.764355
0.764361
0.76437
0.764382
0.764396
0.764412
0.764429
0.764447
0.764466
0.764487
0.764509
0.764533
0.764559
0.764588
0.76462
0.764655
0.764694
0.764737
0.764786
0.76484
0.7649
0.764967
0.76504
0.765117
0.765197
0.765278
0.765356
0.765429
0.765486
0.76552
0.765531
0.765532
0.765532
0.765531
0.765531
0.76553
0.765528
0.765526
0.765524
0.76552
0.765516
0.765513
0.765511
0.765511
0.765511
0.765511
0.765512
0.765513
0.765515
0.765517
0.76552
0.765523
0.765526
0.765529
0.765531
0.765534
0.765538
0.765542
0.765547
0.765552
0.765559
0.765566
0.765573
0.765579
0.765585
0.76559
0.765594
0.765598
0.765602
0.765607
0.765609
0.765608
0.765592
0.765481
0.764768
0.760269
0.733155
0.597928
0.23226
0.0120868
4.73013e-05
1.09092e-08
3.23921e-13
1.55481e-14
1.59243e-14
1.97561e-14
1.62626e-14
1.18693e-14
1.11377e-14
1.04462e-14
1.42127e-14
2.27193e-14
2.61637e-14
2.76287e-14
2.77732e-14
2.47137e-14
2.76586e-14
2.79126e-14
2.61508e-14
2.71754e-14
2.73895e-14
2.64284e-14
2.34847e-14
2.33113e-14
2.58759e-14
2.88976e-14
3.42876e-14
3.15441e-14
3.09789e-14
3.06882e-14
2.78379e-14
3.39036e-14
3.1976e-14
2.3377e-14
1.71546e-14
1.38411e-14
1.08152e-14
1.35709e-14
1.52808e-14
1.43857e-14
1.40791e-14
1.31228e-14
1.36925e-14
1.60621e-14
1.67056e-14
1.36905e-14
9.26013e-15
8.7093e-15
3.92858e-15
1.23175e-14
1.49882e-14
1.36774e-14
1.10198e-14
9.36969e-15
1.16548e-14
1.4857e-14
1.31834e-14
1.31515e-14
1.01573e-14
1.13912e-14
1.23119e-14
1.20921e-14
1.37871e-14
1.49099e-14
1.35089e-14
1.39566e-14
1.18313e-14
1.25012e-14
1.38308e-14
1.45576e-14
2.05651e-14
2.17414e-14
2.24525e-14
2.68941e-14
2.74376e-14
3.02713e-14
3.09232e-14
2.74113e-14
2.81696e-14
3.07351e-14
3.42295e-14
3.63003e-14
3.40418e-14
3.09355e-14
0.765505
0.765493
0.765477
0.765458
0.765437
0.765414
0.765392
0.765373
0.765358
0.765346
0.765336
0.765325
0.765313
0.765297
0.765279
0.765257
0.765233
0.765209
0.765186
0.765167
0.765151
0.765136
0.765122
0.765107
0.765091
0.765072
0.765051
0.765029
0.765007
0.764986
0.764968
0.764952
0.764937
0.764923
0.764908
0.76489
0.764871
0.76485
0.764828
0.764806
0.764787
0.76477
0.764756
0.764744
0.764731
0.764719
0.764704
0.764686
0.764666
0.764643
0.764618
0.764594
0.76457
0.764549
0.764529
0.764509
0.764489
0.764467
0.764442
0.764413
0.764385
0.764361
0.764351
0.764349
0.764349
0.764349
0.764351
0.764355
0.764361
0.76437
0.764382
0.764396
0.764412
0.764429
0.764447
0.764467
0.764487
0.764509
0.764533
0.764559
0.764588
0.76462
0.764655
0.764694
0.764737
0.764786
0.76484
0.7649
0.764967
0.76504
0.765117
0.765197
0.765278
0.765356
0.765429
0.765486
0.76552
0.765531
0.765532
0.765532
0.765531
0.765531
0.76553
0.765528
0.765526
0.765524
0.76552
0.765516
0.765513
0.765511
0.765511
0.765511
0.765511
0.765512
0.765513
0.765515
0.765517
0.76552
0.765523
0.765526
0.765529
0.765531
0.765534
0.765538
0.765542
0.765547
0.765552
0.765559
0.765566
0.765573
0.765579
0.765585
0.76559
0.765594
0.765598
0.765602
0.765607
0.765609
0.765608
0.765592
0.765481
0.764768
0.760269
0.733155
0.597928
0.23226
0.0120868
4.73013e-05
1.09092e-08
3.27895e-13
1.75208e-14
1.36754e-14
1.60865e-14
1.54957e-14
9.1548e-15
1.10172e-14
1.33357e-14
1.36758e-14
2.23935e-14
2.61311e-14
2.88401e-14
2.98334e-14
2.27223e-14
2.63931e-14
2.68792e-14
2.50397e-14
2.36605e-14
2.23971e-14
2.38474e-14
2.09435e-14
2.47113e-14
2.39287e-14
2.75667e-14
3.4866e-14
3.06238e-14
3.134e-14
3.05688e-14
2.68714e-14
3.39361e-14
3.22022e-14
2.25357e-14
1.64839e-14
1.1739e-14
9.68104e-15
1.39992e-14
1.38948e-14
1.69641e-14
1.27923e-14
1.22411e-14
1.39725e-14
1.46434e-14
1.33606e-14
1.14763e-14
5.8136e-15
6.79877e-15
4.69542e-15
1.00915e-14
1.36504e-14
1.24042e-14
1.0228e-14
1.04431e-14
1.26192e-14
1.4772e-14
1.16562e-14
1.1308e-14
9.78203e-15
1.28705e-14
1.04332e-14
1.03306e-14
1.37557e-14
1.52382e-14
1.27049e-14
1.12405e-14
8.92343e-15
1.368e-14
1.25411e-14
1.33392e-14
2.03772e-14
2.12745e-14
2.26478e-14
2.88986e-14
2.80192e-14
3.08625e-14
3.1029e-14
2.59751e-14
2.99311e-14
3.02502e-14
3.21145e-14
3.805e-14
3.23164e-14
2.96739e-14
1.276e-14
3.76188e-14
6.99236e-14
8.069e-14
8.47791e-14
7.35544e-14
5.2071e-14
3.74078e-14
3.70837e-14
3.35968e-14
3.83743e-14
3.74966e-14
2.76838e-14
2.49812e-14
2.24014e-14
2.68277e-14
2.44529e-14
2.08578e-14
1.52584e-14
1.15367e-14
1.69259e-14
1.54363e-14
1.16587e-14
1.90367e-14
2.72684e-14
4.15089e-14
5.23676e-14
4.86804e-14
3.45493e-14
2.41784e-14
1.86211e-14
1.76211e-14
2.88946e-14
4.35326e-14
4.78937e-14
4.15e-14
3.54587e-14
2.76118e-14
2.93001e-14
2.92149e-14
3.50332e-14
3.77452e-14
3.37908e-14
2.0737e-14
1.29869e-14
2.9273e-14
3.82394e-14
3.97624e-14
4.30545e-14
4.24489e-14
3.52059e-14
3.98508e-14
3.51521e-14
2.94542e-14
2.09793e-14
3.16164e-14
2.91763e-14
3.30998e-14
2.54492e-14
2.93981e-14
1.84312e-14
1.15551e-14
3.50615e-14
5.04288e-14
5.61366e-14
4.83937e-14
2.8138e-14
1.74574e-14
1.90743e-14
2.17244e-14
1.86546e-14
2.16867e-14
1.62201e-14
1.11096e-14
1.46077e-14
1.83696e-14
3.13591e-14
3.39506e-14
4.00548e-14
5.49981e-14
6.87809e-14
6.67662e-14
6.39273e-14
6.33898e-14
6.00481e-14
6.18058e-14
5.62759e-14
4.42193e-14
3.81477e-14
3.74913e-14
3.55817e-14
3.55446e-14
3.46818e-14
3.09195e-14
3.10497e-14
3.08045e-14
2.7827e-14
2.52696e-14
3.19904e-14
5.67024e-14
4.87295e-15
9.02443e-15
3.53452e-14
6.76369e-14
9.07765e-14
9.20862e-14
7.28417e-14
5.00303e-14
3.06686e-14
3.02663e-14
2.44236e-14
2.53707e-14
2.41821e-14
1.94615e-14
2.11891e-14
2.29511e-14
2.96146e-14
2.30466e-14
1.7724e-14
2.00608e-14
1.41644e-14
1.92768e-14
1.80723e-14
1.89998e-14
2.44871e-14
2.78368e-14
4.55941e-14
6.29166e-14
5.48269e-14
4.57287e-14
2.69105e-14
1.88647e-14
1.34552e-14
2.49148e-14
3.9164e-14
5.51393e-14
4.82682e-14
3.51149e-14
2.25004e-14
2.62339e-14
2.67115e-14
2.87956e-14
4.0702e-14
4.87784e-14
2.8289e-14
1.10595e-14
2.69273e-14
3.40922e-14
3.66434e-14
3.95172e-14
3.78586e-14
2.75914e-14
3.05803e-14
2.14357e-14
2.85371e-14
2.86987e-14
3.29804e-14
3.33406e-14
3.95536e-14
3.49156e-14
3.10797e-14
2.13032e-14
1.7799e-14
4.14177e-14
5.21396e-14
5.41575e-14
5.04487e-14
2.74018e-14
1.27493e-14
2.39641e-14
2.29164e-14
1.86876e-14
1.75629e-14
1.58039e-14
1.19853e-14
2.30048e-14
2.99473e-14
3.01622e-14
3.35693e-14
3.60445e-14
5.98774e-14
7.15296e-14
7.37051e-14
7.2331e-14
6.48854e-14
5.03299e-14
5.41e-14
5.21987e-14
4.60822e-14
3.51097e-14
3.31041e-14
2.95483e-14
2.90904e-14
2.64834e-14
2.1572e-14
2.65354e-14
2.86668e-14
2.34051e-14
2.32211e-14
3.0623e-14
1.0144e-14
1.05926e-14
3.17557e-14
6.02499e-14
7.10112e-14
7.78979e-14
6.04348e-14
4.65313e-14
2.9127e-14
2.792e-14
1.70072e-14
9.22485e-15
1.7003e-14
1.48733e-14
1.65087e-14
1.72777e-14
1.85962e-14
1.2876e-14
1.04278e-14
1.01412e-14
6.65643e-15
4.58443e-15
7.65765e-15
6.0646e-15
1.63434e-14
2.6044e-14
4.35054e-14
5.36013e-14
5.15061e-14
3.83703e-14
1.85344e-14
1.3448e-14
1.0033e-14
2.01612e-14
3.15684e-14
4.54689e-14
4.65669e-14
3.57901e-14
2.53008e-14
2.72511e-14
2.80441e-14
2.77727e-14
3.90916e-14
4.18571e-14
2.42466e-14
3.8064e-15
2.40576e-14
3.33998e-14
3.55522e-14
3.54973e-14
3.30979e-14
2.44587e-14
1.82343e-14
9.83105e-15
2.86345e-14
3.36403e-14
3.80509e-14
4.38857e-14
4.98406e-14
4.45464e-14
3.14887e-14
1.13609e-14
2.5582e-14
4.31563e-14
5.02279e-14
5.07417e-14
4.4263e-14
2.53951e-14
1.28166e-14
1.72379e-14
1.96393e-14
1.78551e-14
1.29537e-14
4.85921e-15
1.06885e-14
2.47467e-14
3.01913e-14
2.62379e-14
3.47986e-14
4.44402e-14
6.52827e-14
7.49904e-14
7.62216e-14
7.44071e-14
6.88038e-14
5.17512e-14
4.89259e-14
5.09159e-14
4.17806e-14
3.41611e-14
3.28671e-14
2.73876e-15
7.77238e-15
7.52254e-15
2.63051e-14
4.27748e-14
4.46125e-14
4.83957e-14
3.55991e-14
3.5692e-14
2.84206e-14
1.94374e-14
1.29468e-14
6.56084e-15
1.71036e-14
1.38747e-14
1.12103e-14
9.70833e-15
1.21683e-14
1.39403e-14
1.81567e-14
1.05791e-14
1.01135e-14
8.00088e-15
9.12223e-15
9.79548e-15
1.87128e-14
2.5235e-14
4.04078e-14
5.01904e-14
4.75758e-14
3.35787e-14
1.94791e-14
1.82045e-14
1.97072e-14
2.42722e-14
3.44056e-14
4.46711e-14
4.88816e-14
4.42821e-14
4.03043e-14
3.52256e-14
3.36622e-14
3.32278e-14
3.42858e-14
3.1599e-14
2.02622e-14
8.31365e-15
2.86738e-14
3.04323e-14
2.55117e-14
3.20356e-14
2.89479e-14
2.45615e-14
1.4792e-14
1.25986e-14
3.05109e-14
4.15087e-14
4.24398e-14
4.78262e-14
1.12e-14
8.76667e-15
9.87566e-15
1.69028e-14
2.82402e-14
3.5245e-14
2.9209e-14
1.98838e-14
2.23954e-14
1.64397e-14
5.95132e-15
4.78499e-15
4.18544e-15
3.5933e-15
8.74315e-15
1.52331e-14
1.74291e-14
1.78153e-14
8.17796e-15
7.94381e-15
1.54038e-14
1.15119e-14
1.40418e-14
1.12322e-14
1.47996e-14
1.75458e-14
2.6322e-14
3.29439e-14
4.70041e-14
4.15802e-14
2.77622e-14
1.74293e-14
2.09724e-14
2.52384e-14
3.5309e-14
3.49722e-14
4.6302e-14
4.98212e-14
5.03101e-14
4.60355e-14
4.04005e-14
3.68398e-14
3.60916e-14
2.94322e-14
2.47613e-14
1.61479e-14
9.16884e-15
1.63515e-14
1.89082e-14
1.73408e-14
2.20446e-14
1.9233e-14
2.21059e-14
1.15507e-14
1.2526e-14
3.06091e-14
3.91955e-14
1.68634e-14
1.04782e-14
1.38488e-14
1.8204e-14
2.38339e-14
2.49824e-14
2.06317e-14
1.99895e-14
1.69269e-14
1.14132e-14
7.68748e-15
7.91355e-15
6.45186e-15
1.33445e-14
2.16184e-14
3.15412e-14
3.99597e-14
2.85423e-14
1.65322e-14
1.64132e-14
1.90122e-14
1.83248e-14
1.42597e-14
1.96649e-14
2.27262e-14
2.3979e-14
2.95229e-14
3.86897e-14
4.37705e-14
4.15807e-14
2.90423e-14
2.35334e-14
2.63281e-14
3.24968e-14
4.16288e-14
4.05823e-14
4.58586e-14
4.61741e-14
4.31186e-14
3.95998e-14
3.82179e-14
3.7809e-14
4.14444e-14
3.82151e-14
3.13631e-14
2.30256e-14
1.2331e-14
1.72181e-14
2.02192e-14
1.85569e-14
1.70636e-14
1.93004e-14
1.91102e-14
1.39167e-14
1.14585e-14
2.40236e-14
1.66361e-14
1.26942e-14
1.51704e-14
1.29341e-14
1.36963e-14
1.43318e-14
1.04737e-14
1.16664e-14
1.01878e-14
6.42971e-15
7.21143e-15
1.08149e-14
1.22763e-14
1.8835e-14
2.77876e-14
3.97327e-14
4.99807e-14
3.33754e-14
1.69546e-14
2.10913e-14
1.52877e-14
1.269e-14
1.06793e-14
2.07033e-14
2.90604e-14
3.41706e-14
3.78516e-14
3.99031e-14
4.46541e-14
3.56233e-14
2.47888e-14
2.30944e-14
2.26115e-14
3.13159e-14
4.33488e-14
4.26955e-14
4.53666e-14
4.10116e-14
3.65883e-14
3.44764e-14
3.37423e-14
3.63729e-14
4.08922e-14
3.8864e-14
3.65802e-14
2.58605e-14
1.6071e-14
1.84143e-14
1.13899e-14
1.22536e-14
1.21807e-14
9.92605e-15
6.89779e-15
7.23474e-15
5.54688e-15
1.47967e-14
2.42703e-14
2.17617e-14
2.24744e-14
2.70261e-14
2.62308e-14
2.53521e-14
2.07362e-14
3.00139e-14
3.27627e-14
3.20662e-14
3.57051e-14
3.37797e-14
3.40101e-14
3.42532e-14
3.61219e-14
4.06858e-14
3.90994e-14
3.72134e-14
2.99051e-14
3.20646e-14
2.6768e-14
1.59346e-14
2.5752e-14
3.55269e-14
4.63729e-14
4.53538e-14
4.19454e-14
4.11656e-14
3.90864e-14
3.76875e-14
3.01648e-14
3.09073e-14
2.88939e-14
3.16267e-14
3.55339e-14
4.06343e-14
4.04669e-14
3.76394e-14
3.46143e-14
3.14747e-14
3.06905e-14
3.20413e-14
3.29602e-14
3.17924e-14
3.09398e-14
2.94178e-14
2.61681e-14
2.45124e-14
2.7784e-14
2.1956e-14
2.40719e-14
2.25613e-14
2.28741e-14
2.28875e-14
2.20645e-14
2.51748e-14
4.67497e-14
4.02059e-14
3.90769e-14
3.89028e-14
4.06492e-14
3.72871e-14
3.67491e-14
4.35774e-14
4.93625e-14
4.35566e-14
4.52799e-14
4.47353e-14
3.51629e-14
4.4174e-14
4.59685e-14
4.58614e-14
4.51022e-14
4.38132e-14
4.50673e-14
3.65949e-14
3.70382e-14
3.44367e-14
4.368e-14
5.22476e-14
6.07121e-14
5.89016e-14
4.87126e-14
4.15632e-14
4.68378e-14
4.30117e-14
4.0624e-14
3.93967e-14
3.7893e-14
3.37441e-14
3.73196e-14
4.07814e-14
4.45918e-14
4.39857e-14
4.08425e-14
3.69317e-14
3.46387e-14
3.52184e-14
3.57731e-14
3.69432e-14
4.13422e-14
3.90399e-14
3.75154e-14
3.40774e-14
3.3095e-14
3.63529e-14
3.82037e-14
3.46303e-14
3.50654e-14
3.47079e-14
3.50716e-14
3.25471e-14
4.63828e-14
4.17267e-14
4.11283e-14
3.7456e-14
3.83041e-14
3.62113e-14
4.00322e-14
3.87648e-14
3.93565e-14
4.08723e-14
3.48056e-14
3.96579e-14
3.64992e-14
4.53961e-14
4.93551e-14
4.11192e-14
3.84889e-14
3.63628e-14
3.3718e-14
2.9087e-14
3.20114e-14
3.37151e-14
4.2652e-14
5.4127e-14
5.11242e-14
5.03718e-14
4.23785e-14
3.83182e-14
3.67112e-14
3.615e-14
3.44443e-14
3.23614e-14
2.9739e-14
3.02714e-14
3.19426e-14
3.86956e-14
4.67458e-14
4.34562e-14
3.38696e-14
3.15359e-14
3.40789e-14
3.18075e-14
3.0565e-14
2.97784e-14
3.04598e-14
3.25485e-14
2.91738e-14
3.04217e-14
2.66807e-14
3.09221e-14
2.93178e-14
2.82715e-14
2.47568e-14
2.52836e-14
2.33386e-14
2.69839e-14
3.51736e-14
3.69832e-14
3.69489e-14
3.18644e-14
2.94664e-14
3.52894e-14
3.5042e-14
3.49402e-14
3.12652e-14
3.01947e-14
2.52793e-14
2.58258e-14
3.07948e-14
3.11557e-14
3.39818e-14