/*--------------------------------*- C++ -*----------------------------------*\
| =========                 |                                                 |
| \\      /  F ield         | OpenFOAM: The Open Source CFD Toolbox           |
|  \\    /   O peration     | Version:  2406                                  |
|   \\  /    A nd           | Website:  www.openfoam.com                      |
|    \\/     M anipulation  |                                                 |
\*---------------------------------------------------------------------------*/
FoamFile
{
    version     2.0;
    format      ascii;
    arch        "LSB;label=32;scalar=64";
    class       volScalarField;
    location    "0.06";
    object      Ma;
}
// * * * * * * * * * * * * * * * * * * * * * * * * * * * * * * * * * * * * * //

dimensions      [0 0 0 0 0 0 0];

internalField   nonuniform List<scalar> 
83682
(
1.132
1.132
1.132
1.132
1.132
1.132
1.132
1.132
1.132
1.132
1.132
1.132
1.132
1.132
1.132
1.132
1.132
1.132
1.132
1.132
1.132
1.132
1.132
1.132
1.132
1.132
1.132
1.132
1.132
1.132
1.13196
1.13085
1.10905
1.03674
1.01923
1.01895
1.01892
1.0189
1.01889
1.01893
1.01901
1.01908
1.01906
1.01902
1.01895
1.01885
1.01875
1.01876
1.01879
1.01884
1.01891
1.019
1.01909
1.01913
1.01914
1.01915
1.01914
1.01911
1.01906
1.01907
1.01908
1.01909
1.01912
1.01918
1.01923
1.01923
1.01922
1.01921
1.01917
1.01911
1.01905
1.01902
1.01901
1.01901
1.01902
1.01905
1.01908
1.01909
1.01909
1.01908
1.01905
1.01902
1.019
1.019
1.01901
1.01903
1.01906
1.01909
1.0191
1.01911
1.01911
1.0191
1.01909
1.01908
1.01907
1.01908
1.01908
1.01909
1.01909
1.01909
1.01909
1.01908
1.01908
1.01909
1.0191
1.01911
1.01912
1.01913
1.01913
1.01912
1.01911
1.01909
1.01908
1.01907
1.01907
1.01907
1.01908
1.01908
1.01908
1.01908
1.01907
1.01906
1.01905
1.01904
1.01904
1.01904
1.01905
1.01906
1.01907
1.01908
1.0191
1.01911
1.01912
1.01912
1.01912
1.01911
1.0191
1.0191
1.01909
1.01909
1.01909
1.0191
1.0191
1.0191
1.0191
1.01909
1.01908
1.01908
1.01907
1.01907
1.01908
1.01909
1.0191
1.01911
1.01911
1.0191
1.0191
1.01909
1.01908
1.01908
1.01908
1.01908
1.01909
1.01909
1.01907
1.019
1.01895
1.01898
1.01918
1.01976
1.02083
1.02234
1.02414
1.02605
1.02796
1.02976
1.03141
1.03285
1.03373
1.03393
1.03392
1.03389
1.03381
1.03381
1.03383
1.03387
1.03382
1.03376
1.03369
1.03362
1.03358
1.03353
1.03342
1.03315
1.03257
1.0315
1.02997
1.02838
1.02713
1.02622
1.02552
1.02492
1.02437
1.02387
1.02341
1.02299
1.02262
1.0223
1.02203
1.02181
1.02164
1.0215
1.02139
1.02131
1.02125
1.0212
1.02116
1.02112
1.02109
1.02105
1.02102
1.02098
1.02093
1.02088
1.02083
1.02077
1.02071
1.02066
1.0206
1.02054
1.02051
1.02048
1.02047
1.02046
1.02045
1.02045
1.02044
1.02044
1.02044
1.02044
1.02044
1.02044
1.02043
1.02043
1.02042
1.0204
1.02038
1.02036
1.02034
1.02032
1.0203
1.02027
1.02026
1.02024
1.02023
1.02022
1.02021
1.02021
1.02021
1.0202
1.0202
1.0202
1.0202
1.0202
1.02021
1.0202
1.02019
1.02018
1.02016
1.02015
1.02013
1.02011
1.02009
1.02007
1.02005
1.02003
1.02001
1.01999
1.01997
1.01996
1.01995
1.01994
1.01993
1.01992
1.01991
1.01991
1.0199
1.0199
1.01989
1.01989
1.01988
1.01987
1.01986
1.01985
1.01984
1.01983
1.01982
1.01981
1.0198
1.0198
1.01979
1.01978
1.01977
1.01977
1.01977
1.01977
1.01978
1.01979
1.01979
1.01978
1.01977
1.01976
1.01975
1.01974
1.01973
1.01972
1.01971
1.0197
1.01968
1.01967
1.01966
1.01965
1.01965
1.01965
1.01965
1.01964
1.01963
1.01963
1.01963
1.01963
1.01963
1.01963
1.01963
1.01962
1.01961
1.0196
1.01959
1.01959
1.01958
1.01958
1.01958
1.01959
1.0196
1.0196
1.0196
1.0196
1.0196
1.0196
1.01961
1.01962
1.01963
1.01963
1.01964
1.01964
1.01963
1.01963
1.01963
1.01963
1.01963
1.01962
1.01961
1.0196
1.01959
1.01957
1.01956
1.01956
1.01956
1.01955
1.01955
1.01955
1.01955
1.01955
1.01955
1.01955
1.01955
1.01955
1.01954
1.01953
1.01952
1.01951
1.0195
1.01949
1.01948
1.01947
1.01945
1.01943
1.01941
1.0194
1.01939
1.01938
1.01938
1.01938
1.01938
1.01936
1.01936
1.01937
1.01937
1.01936
1.01937
1.01939
1.01941
1.01941
1.01941
1.01941
1.0194
1.0194
1.01939
1.01939
1.0194
1.01939
1.01938
1.01938
1.01937
1.01937
1.01936
1.01936
1.01937
1.01937
1.01936
1.01935
1.01935
1.01933
1.01932
1.01927
1.01923
1.01914
1.019
1.0188
1.01851
1.01808
1.01747
1.01659
1.01537
1.01365
1.01129
1.00807
1.00375
0.998066
0.990693
0.981351
0.969688
0.955527
0.938669
0.919132
0.897169
0.873351
0.848567
0.824142
0.80199
0.784416
0.772509
0.766846
0.766141
0.766071
0.765949
0.765805
0.765728
0.765737
0.765797
0.765918
0.766088
0.76629
0.766525
0.766699
0.766724
0.766707
0.766651
0.766551
0.766429
0.766323
0.766284
0.766287
0.766316
0.766373
0.766436
0.766456
0.766452
0.766429
0.766375
0.766303
0.766263
0.766259
0.766269
0.766301
0.766354
0.766401
0.766411
0.766408
0.76639
0.76635
0.766297
0.766254
0.766242
0.766245
0.76626
0.766292
0.766333
0.766357
0.766363
0.766361
0.76635
0.766327
0.766302
0.766291
0.766291
0.766296
0.766309
0.766324
0.76633
0.766329
0.766324
0.76631
0.766288
0.766267
0.766262
0.766267
0.766277
0.766296
0.766322
0.766348
0.766366
0.766373
0.766373
0.766368
0.766366
0.766368
0.766376
0.766393
0.766419
0.766457
0.766504
0.766552
0.766598
0.766633
0.766638
0.766631
0.766622
0.766617
0.766614
0.766609
0.766601
0.766588
0.766568
0.766539
0.766504
0.766464
0.766424
0.766389
0.766359
0.766345
0.766344
0.766345
0.766348
0.766349
0.766348
0.766345
0.766337
0.766325
0.766313
0.766308
0.766308
0.76631
0.766313
0.766319
0.766322
0.766323
0.766322
0.766318
0.76631
0.7663
0.76629
0.766286
0.766286
0.766286
0.766286
0.766286
0.766286
0.766285
0.766282
0.766278
0.766275
0.766275
0.766275
0.766278
0.766282
0.766288
0.766296
0.7663
0.766301
0.7663
0.766299
0.766296
0.766292
0.766288
0.766284
0.766281
0.766279
0.766277
0.766276
0.766273
0.766269
0.766264
0.766256
0.766248
0.766242
0.76624
0.76624
0.76624
0.766241
0.766241
0.76624
0.766239
0.766237
0.766233
0.766228
0.766223
0.766218
0.766215
0.766213
0.766211
0.76621
0.766208
0.766205
0.766201
0.766194
0.766186
0.766176
0.766165
0.766156
0.766148
0.766142
0.766137
0.766133
0.766129
0.766124
0.766118
0.766112
0.766106
0.766102
0.766101
0.7661
0.766099
0.766099
0.766098
0.766097
0.766095
0.766093
0.766089
0.766084
0.766079
0.766073
0.766068
0.766064
0.76606
0.766056
0.766051
0.766046
0.76604
0.766033
0.766024
0.766015
0.766006
0.765997
0.765991
0.765986
0.765984
0.765982
0.765977
0.765965
0.765947
0.765917
0.765885
0.765863
0.765944
0.766785
0.769979
0.776299
0.784923
0.794888
0.805511
0.816626
0.827962
0.83961
0.85136
0.863366
0.875415
0.88769
0.899952
0.912426
0.924836
0.937457
0.949978
0.962858
0.976711
0.999736
1.132
1.132
1.132
1.132
1.132
1.132
1.132
1.132
1.132
1.132
1.132
1.132
1.132
1.132
1.132
1.132
1.132
1.132
1.132
1.132
1.132
1.132
1.132
1.132
1.132
1.132
1.132
1.132
1.132
1.132
1.13196
1.13085
1.10905
1.03674
1.01923
1.01895
1.01892
1.0189
1.01889
1.01893
1.01901
1.01908
1.01906
1.01902
1.01895
1.01885
1.01875
1.01876
1.01879
1.01884
1.01891
1.019
1.01909
1.01913
1.01914
1.01915
1.01914
1.01911
1.01906
1.01907
1.01908
1.01909
1.01912
1.01918
1.01923
1.01923
1.01922
1.01921
1.01917
1.01911
1.01905
1.01902
1.01901
1.01901
1.01902
1.01905
1.01908
1.01909
1.01909
1.01908
1.01905
1.01902
1.019
1.019
1.01901
1.01903
1.01906
1.01909
1.0191
1.01911
1.01911
1.0191
1.01909
1.01908
1.01907
1.01908
1.01908
1.01909
1.01909
1.01909
1.01909
1.01908
1.01908
1.01909
1.0191
1.01911
1.01912
1.01913
1.01913
1.01912
1.01911
1.01909
1.01908
1.01907
1.01907
1.01907
1.01908
1.01908
1.01908
1.01908
1.01907
1.01906
1.01905
1.01904
1.01904
1.01904
1.01905
1.01906
1.01907
1.01908
1.0191
1.01911
1.01912
1.01912
1.01912
1.01911
1.0191
1.0191
1.01909
1.01909
1.01909
1.0191
1.0191
1.0191
1.0191
1.01909
1.01908
1.01908
1.01907
1.01907
1.01908
1.01909
1.0191
1.01911
1.01911
1.0191
1.0191
1.01909
1.01908
1.01908
1.01908
1.01908
1.01909
1.01909
1.01907
1.019
1.01895
1.01898
1.01918
1.01976
1.02083
1.02234
1.02414
1.02605
1.02796
1.02976
1.03141
1.03286
1.03375
1.03392
1.03391
1.03387
1.03379
1.0338
1.03384
1.03389
1.03384
1.03377
1.03369
1.03362
1.03358
1.03353
1.03342
1.03315
1.03257
1.0315
1.02997
1.02838
1.02713
1.02622
1.02552
1.02492
1.02437
1.02387
1.02341
1.02299
1.02262
1.0223
1.02203
1.02181
1.02164
1.0215
1.02139
1.02131
1.02125
1.0212
1.02116
1.02112
1.02109
1.02105
1.02102
1.02098
1.02093
1.02088
1.02083
1.02077
1.02071
1.02066
1.0206
1.02054
1.02051
1.02048
1.02047
1.02046
1.02045
1.02045
1.02044
1.02044
1.02044
1.02044
1.02044
1.02044
1.02043
1.02043
1.02042
1.0204
1.02038
1.02036
1.02034
1.02032
1.0203
1.02027
1.02026
1.02024
1.02023
1.02022
1.02021
1.02021
1.02021
1.0202
1.0202
1.0202
1.0202
1.0202
1.02021
1.0202
1.02019
1.02018
1.02016
1.02015
1.02013
1.02011
1.02009
1.02007
1.02005
1.02003
1.02001
1.01999
1.01997
1.01996
1.01995
1.01994
1.01993
1.01992
1.01991
1.01991
1.0199
1.0199
1.01989
1.01989
1.01988
1.01987
1.01986
1.01985
1.01984
1.01983
1.01982
1.01981
1.0198
1.0198
1.01979
1.01978
1.01977
1.01977
1.01977
1.01977
1.01978
1.01978
1.01979
1.01978
1.01977
1.01976
1.01975
1.01974
1.01973
1.01972
1.01971
1.0197
1.01968
1.01967
1.01966
1.01965
1.01965
1.01965
1.01965
1.01964
1.01963
1.01963
1.01963
1.01963
1.01963
1.01963
1.01963
1.01962
1.01961
1.0196
1.01959
1.01959
1.01958
1.01958
1.01958
1.01959
1.0196
1.0196
1.0196
1.0196
1.0196
1.0196
1.01961
1.01962
1.01963
1.01963
1.01964
1.01964
1.01963
1.01963
1.01963
1.01963
1.01963
1.01962
1.01961
1.0196
1.01959
1.01957
1.01956
1.01956
1.01956
1.01955
1.01955
1.01955
1.01955
1.01955
1.01955
1.01955
1.01955
1.01955
1.01954
1.01953
1.01952
1.01951
1.0195
1.01949
1.01948
1.01947
1.01945
1.01943
1.01941
1.0194
1.01939
1.01938
1.01938
1.01938
1.01937
1.01936
1.01936
1.01937
1.01937
1.01936
1.01937
1.01939
1.01941
1.01941
1.01941
1.01941
1.0194
1.0194
1.01939
1.01939
1.0194
1.01939
1.01938
1.01938
1.01937
1.01937
1.01936
1.01936
1.01937
1.01937
1.01936
1.01935
1.01935
1.01933
1.01932
1.01927
1.01923
1.01914
1.019
1.0188
1.01852
1.01809
1.01749
1.01662
1.01541
1.01371
1.01138
1.00818
1.0039
0.998275
0.99097
0.981705
0.970129
0.956053
0.939279
0.919812
0.897889
0.874065
0.849216
0.824661
0.802343
0.784623
0.772626
0.766902
0.76616
0.766083
0.765959
0.765813
0.765732
0.765739
0.765797
0.765918
0.766088
0.76629
0.766525
0.766699
0.766723
0.766706
0.76665
0.76655
0.766429
0.766323
0.766284
0.766287
0.766315
0.766372
0.766436
0.766455
0.766451
0.766429
0.766375
0.766302
0.766263
0.766259
0.766268
0.7663
0.766354
0.766401
0.766411
0.766408
0.766389
0.76635
0.766297
0.766254
0.766241
0.766244
0.766259
0.766292
0.766333
0.766357
0.766362
0.76636
0.76635
0.766327
0.766302
0.766291
0.766291
0.766295
0.766308
0.766324
0.76633
0.766329
0.766323
0.766309
0.766287
0.766266
0.766262
0.766267
0.766278
0.766298
0.766324
0.76635
0.766369
0.766376
0.766376
0.766371
0.766369
0.76637
0.766378
0.766393
0.766419
0.766456
0.766502
0.76655
0.766596
0.766632
0.766636
0.76663
0.766621
0.766616
0.766613
0.766609
0.766601
0.766588
0.766568
0.76654
0.766504
0.766464
0.766425
0.766389
0.76636
0.766345
0.766344
0.766345
0.766348
0.76635
0.766349
0.766345
0.766337
0.766325
0.766313
0.766308
0.766308
0.76631
0.766313
0.766319
0.766322
0.766323
0.766322
0.766318
0.76631
0.7663
0.76629
0.766286
0.766286
0.766286
0.766286
0.766286
0.766286
0.766285
0.766282
0.766278
0.766275
0.766275
0.766275
0.766278
0.766282
0.766288
0.766296
0.7663
0.766301
0.766301
0.766299
0.766296
0.766292
0.766288
0.766284
0.766281
0.766279
0.766277
0.766276
0.766273
0.766269
0.766264
0.766256
0.766248
0.766242
0.76624
0.76624
0.76624
0.766241
0.766241
0.76624
0.766239
0.766237
0.766233
0.766228
0.766223
0.766218
0.766215
0.766213
0.766211
0.76621
0.766208
0.766205
0.766201
0.766194
0.766186
0.766176
0.766165
0.766156
0.766148
0.766142
0.766137
0.766133
0.766129
0.766124
0.766118
0.766112
0.766106
0.766103
0.766101
0.7661
0.766099
0.766099
0.766098
0.766097
0.766096
0.766093
0.766089
0.766084
0.766079
0.766073
0.766068
0.766064
0.76606
0.766056
0.766052
0.766047
0.76604
0.766033
0.766024
0.766015
0.766006
0.765997
0.765991
0.765986
0.765984
0.765982
0.765977
0.765965
0.765947
0.765917
0.765885
0.765863
0.765944
0.766785
0.769979
0.776298
0.78492
0.794887
0.805507
0.816627
0.827962
0.839617
0.851362
0.86337
0.875412
0.887689
0.899946
0.91242
0.924827
0.937456
0.949977
0.962882
0.976777
0.999692
1.132
1.132
1.132
1.132
1.132
1.132
1.132
1.132
1.132
1.132
1.132
1.132
1.132
1.132
1.132
1.132
1.132
1.132
1.132
1.132
1.132
1.132
1.132
1.132
1.132
1.132
1.132
1.132
1.132
1.132
1.13196
1.13085
1.10905
1.03674
1.01923
1.01895
1.01892
1.0189
1.01889
1.01893
1.01901
1.01908
1.01906
1.01902
1.01895
1.01885
1.01875
1.01876
1.01879
1.01884
1.01891
1.019
1.01909
1.01913
1.01914
1.01915
1.01914
1.01911
1.01906
1.01907
1.01908
1.01909
1.01912
1.01918
1.01923
1.01923
1.01922
1.01921
1.01917
1.01911
1.01905
1.01902
1.01901
1.01901
1.01902
1.01905
1.01908
1.01909
1.01909
1.01908
1.01905
1.01902
1.019
1.019
1.01901
1.01903
1.01906
1.01909
1.0191
1.01911
1.01911
1.0191
1.01909
1.01908
1.01907
1.01908
1.01908
1.01909
1.01909
1.01909
1.01909
1.01908
1.01908
1.01909
1.0191
1.01911
1.01912
1.01913
1.01913
1.01912
1.01911
1.01909
1.01908
1.01907
1.01907
1.01907
1.01908
1.01908
1.01908
1.01908
1.01907
1.01906
1.01905
1.01904
1.01904
1.01904
1.01905
1.01906
1.01907
1.01908
1.0191
1.01911
1.01912
1.01912
1.01912
1.01911
1.0191
1.0191
1.01909
1.01909
1.01909
1.0191
1.0191
1.0191
1.0191
1.01909
1.01908
1.01908
1.01907
1.01907
1.01908
1.01909
1.0191
1.01911
1.01911
1.0191
1.0191
1.01909
1.01908
1.01908
1.01908
1.01908
1.01909
1.01909
1.01907
1.019
1.01895
1.01898
1.01918
1.01976
1.02083
1.02234
1.02414
1.02605
1.02796
1.02975
1.03141
1.03288
1.03377
1.03392
1.0339
1.03386
1.03377
1.03379
1.03384
1.03391
1.03386
1.03377
1.03368
1.03362
1.03358
1.03353
1.03341
1.03315
1.03257
1.0315
1.02997
1.02838
1.02712
1.02622
1.02552
1.02492
1.02437
1.02386
1.02341
1.02299
1.02262
1.0223
1.02203
1.02181
1.02164
1.0215
1.02139
1.02131
1.02125
1.0212
1.02116
1.02112
1.02109
1.02105
1.02102
1.02098
1.02093
1.02088
1.02083
1.02077
1.02071
1.02066
1.0206
1.02054
1.02051
1.02048
1.02047
1.02046
1.02045
1.02045
1.02044
1.02044
1.02044
1.02044
1.02044
1.02044
1.02043
1.02043
1.02042
1.0204
1.02038
1.02036
1.02034
1.02032
1.0203
1.02027
1.02026
1.02024
1.02023
1.02022
1.02021
1.02021
1.02021
1.0202
1.0202
1.0202
1.0202
1.0202
1.02021
1.0202
1.02019
1.02018
1.02016
1.02015
1.02013
1.02011
1.02009
1.02007
1.02005
1.02003
1.02001
1.01999
1.01997
1.01996
1.01995
1.01994
1.01993
1.01992
1.01991
1.01991
1.0199
1.0199
1.01989
1.01989
1.01988
1.01987
1.01986
1.01985
1.01984
1.01983
1.01982
1.01981
1.0198
1.0198
1.01979
1.01978
1.01977
1.01977
1.01977
1.01977
1.01978
1.01979
1.01979
1.01978
1.01977
1.01976
1.01975
1.01974
1.01973
1.01972
1.01971
1.0197
1.01968
1.01967
1.01966
1.01965
1.01965
1.01965
1.01965
1.01964
1.01963
1.01963
1.01963
1.01963
1.01963
1.01963
1.01963
1.01962
1.01961
1.0196
1.01959
1.01959
1.01958
1.01958
1.01958
1.01959
1.0196
1.0196
1.0196
1.0196
1.0196
1.0196
1.01961
1.01962
1.01963
1.01963
1.01964
1.01964
1.01963
1.01963
1.01963
1.01963
1.01963
1.01962
1.01961
1.0196
1.01959
1.01957
1.01956
1.01956
1.01956
1.01955
1.01955
1.01955
1.01955
1.01955
1.01955
1.01955
1.01955
1.01955
1.01954
1.01953
1.01952
1.01951
1.0195
1.01948
1.01948
1.01947
1.01945
1.01943
1.01941
1.0194
1.01939
1.01938
1.01938
1.01938
1.01937
1.01936
1.01936
1.01937
1.01937
1.01936
1.01937
1.01939
1.01941
1.01941
1.01941
1.01941
1.0194
1.0194
1.01939
1.01939
1.0194
1.01939
1.01938
1.01938
1.01937
1.01937
1.01936
1.01936
1.01937
1.01937
1.01936
1.01935
1.01935
1.01933
1.01932
1.01927
1.01923
1.01914
1.01901
1.01881
1.01852
1.01809
1.0175
1.01664
1.01544
1.01377
1.01147
1.0083
1.00406
0.998497
0.99127
0.982089
0.970599
0.956592
0.939872
0.920433
0.898501
0.874615
0.849658
0.824964
0.802504
0.784679
0.772644
0.766914
0.766174
0.766101
0.765977
0.765828
0.765741
0.765744
0.765799
0.765919
0.766088
0.76629
0.766524
0.766697
0.766721
0.766704
0.766648
0.766549
0.766428
0.766322
0.766283
0.766286
0.766315
0.766372
0.766435
0.766454
0.766451
0.766428
0.766374
0.766301
0.766262
0.766258
0.766267
0.766299
0.766353
0.7664
0.76641
0.766407
0.766389
0.766349
0.766296
0.766253
0.766241
0.766244
0.766258
0.766291
0.766332
0.766356
0.766362
0.76636
0.766349
0.766326
0.766301
0.76629
0.76629
0.766294
0.766306
0.766321
0.766327
0.766326
0.766321
0.766307
0.766285
0.766265
0.766262
0.766268
0.766281
0.766302
0.766329
0.766357
0.766377
0.766386
0.766386
0.76638
0.766376
0.766377
0.766382
0.766396
0.766421
0.766455
0.7665
0.766547
0.766593
0.766629
0.766633
0.766627
0.766618
0.766614
0.766611
0.766607
0.7666
0.766587
0.766568
0.76654
0.766505
0.766465
0.766425
0.76639
0.76636
0.766346
0.766345
0.766346
0.766349
0.76635
0.766349
0.766345
0.766337
0.766325
0.766313
0.766308
0.766308
0.76631
0.766313
0.766319
0.766322
0.766323
0.766322
0.766318
0.76631
0.7663
0.76629
0.766286
0.766286
0.766286
0.766286
0.766286
0.766286
0.766285
0.766282
0.766278
0.766275
0.766275
0.766275
0.766278
0.766282
0.766288
0.766296
0.7663
0.766301
0.766301
0.766299
0.766296
0.766292
0.766288
0.766284
0.766281
0.766279
0.766277
0.766276
0.766273
0.766269
0.766264
0.766257
0.766248
0.766242
0.76624
0.76624
0.76624
0.766241
0.766241
0.76624
0.766239
0.766237
0.766233
0.766228
0.766223
0.766218
0.766215
0.766213
0.766211
0.76621
0.766208
0.766205
0.766201
0.766194
0.766186
0.766176
0.766165
0.766156
0.766148
0.766142
0.766137
0.766133
0.766129
0.766124
0.766118
0.766112
0.766106
0.766103
0.766101
0.7661
0.766099
0.766099
0.766098
0.766097
0.766096
0.766093
0.766089
0.766084
0.766079
0.766074
0.766068
0.766064
0.76606
0.766056
0.766052
0.766047
0.76604
0.766033
0.766024
0.766015
0.766006
0.765998
0.765991
0.765986
0.765984
0.765982
0.765977
0.765965
0.765947
0.765917
0.765885
0.765863
0.765945
0.766785
0.769979
0.776297
0.784916
0.794884
0.805501
0.816629
0.827963
0.839625
0.851367
0.863375
0.87541
0.887687
0.89994
0.912413
0.924817
0.937457
0.949981
0.962927
0.976889
0.999594
1.132
1.132
1.132
1.132
1.132
1.132
1.132
1.132
1.132
1.132
1.132
1.132
1.132
1.132
1.132
1.132
1.132
1.132
1.132
1.132
1.132
1.132
1.132
1.132
1.132
1.132
1.132
1.132
1.132
1.132
1.13196
1.13085
1.10905
1.03674
1.01923
1.01895
1.01892
1.0189
1.01889
1.01893
1.01901
1.01908
1.01906
1.01902
1.01895
1.01885
1.01875
1.01876
1.01879
1.01884
1.01891
1.019
1.01909
1.01913
1.01914
1.01915
1.01914
1.01911
1.01906
1.01907
1.01908
1.01909
1.01912
1.01918
1.01923
1.01923
1.01922
1.01921
1.01917
1.01911
1.01905
1.01902
1.01901
1.01901
1.01902
1.01905
1.01908
1.01909
1.01909
1.01908
1.01905
1.01902
1.019
1.019
1.01901
1.01903
1.01906
1.01909
1.0191
1.01911
1.01911
1.0191
1.01909
1.01908
1.01907
1.01908
1.01908
1.01909
1.01909
1.01909
1.01909
1.01908
1.01908
1.01909
1.0191
1.01911
1.01912
1.01913
1.01913
1.01912
1.01911
1.01909
1.01908
1.01907
1.01907
1.01907
1.01908
1.01908
1.01908
1.01908
1.01907
1.01906
1.01905
1.01904
1.01904
1.01904
1.01905
1.01906
1.01907
1.01908
1.0191
1.01911
1.01912
1.01912
1.01912
1.01911
1.0191
1.0191
1.01909
1.01909
1.01909
1.0191
1.0191
1.0191
1.0191
1.01909
1.01908
1.01908
1.01907
1.01907
1.01908
1.01909
1.0191
1.01911
1.01911
1.0191
1.0191
1.01909
1.01908
1.01908
1.01908
1.01908
1.01909
1.01909
1.01907
1.019
1.01895
1.01898
1.01918
1.01976
1.02083
1.02234
1.02414
1.02605
1.02795
1.02975
1.03141
1.03289
1.03378
1.03392
1.0339
1.03384
1.03375
1.03378
1.03385
1.03393
1.03388
1.03377
1.03367
1.03362
1.03358
1.03353
1.03341
1.03315
1.03257
1.0315
1.02997
1.02838
1.02712
1.02622
1.02552
1.02492
1.02437
1.02386
1.02341
1.02299
1.02262
1.0223
1.02203
1.02181
1.02164
1.0215
1.02139
1.02131
1.02125
1.0212
1.02116
1.02112
1.02109
1.02105
1.02102
1.02098
1.02093
1.02088
1.02083
1.02077
1.02071
1.02065
1.0206
1.02054
1.02051
1.02048
1.02047
1.02046
1.02045
1.02045
1.02044
1.02044
1.02044
1.02044
1.02044
1.02044
1.02043
1.02043
1.02042
1.0204
1.02038
1.02036
1.02034
1.02032
1.0203
1.02028
1.02026
1.02024
1.02023
1.02022
1.02021
1.02021
1.02021
1.0202
1.0202
1.0202
1.0202
1.0202
1.02021
1.0202
1.02019
1.02018
1.02016
1.02015
1.02013
1.02011
1.02009
1.02007
1.02005
1.02003
1.02001
1.01999
1.01997
1.01996
1.01995
1.01994
1.01993
1.01992
1.01991
1.01991
1.0199
1.0199
1.01989
1.01989
1.01988
1.01987
1.01986
1.01985
1.01984
1.01983
1.01982
1.01981
1.0198
1.0198
1.01979
1.01978
1.01977
1.01977
1.01977
1.01977
1.01978
1.01979
1.01979
1.01978
1.01977
1.01976
1.01975
1.01974
1.01973
1.01972
1.01971
1.0197
1.01968
1.01967
1.01966
1.01965
1.01965
1.01965
1.01965
1.01964
1.01963
1.01963
1.01963
1.01963
1.01963
1.01963
1.01963
1.01962
1.01961
1.0196
1.01959
1.01959
1.01958
1.01958
1.01958
1.01959
1.0196
1.0196
1.0196
1.0196
1.0196
1.0196
1.01961
1.01962
1.01963
1.01963
1.01964
1.01964
1.01963
1.01963
1.01963
1.01963
1.01963
1.01962
1.01961
1.0196
1.01959
1.01957
1.01956
1.01956
1.01956
1.01955
1.01955
1.01955
1.01955
1.01955
1.01955
1.01955
1.01955
1.01955
1.01954
1.01953
1.01952
1.01951
1.0195
1.01948
1.01948
1.01947
1.01945
1.01943
1.01941
1.0194
1.0194
1.01939
1.01938
1.01938
1.01937
1.01936
1.01937
1.01937
1.01937
1.01936
1.01937
1.01939
1.01941
1.01941
1.01941
1.01941
1.0194
1.01939
1.01939
1.01939
1.0194
1.0194
1.01939
1.01938
1.01937
1.01936
1.01935
1.01936
1.01936
1.01937
1.01936
1.01935
1.01935
1.01934
1.01932
1.01928
1.01923
1.01914
1.01901
1.01881
1.01852
1.0181
1.01751
1.01666
1.01548
1.01383
1.01155
1.00841
1.00423
0.998728
0.991579
0.982471
0.97104
0.957063
0.940339
0.920852
0.89884
0.874857
0.849813
0.825078
0.802603
0.784766
0.772717
0.766958
0.766203
0.766127
0.766002
0.76585
0.765755
0.765754
0.765805
0.765921
0.766089
0.76629
0.766524
0.766695
0.766718
0.766701
0.766645
0.766546
0.766425
0.76632
0.766281
0.766285
0.766313
0.76637
0.766433
0.766453
0.766449
0.766427
0.766372
0.7663
0.76626
0.766256
0.766266
0.766298
0.766351
0.766398
0.766409
0.766405
0.766387
0.766348
0.766295
0.766252
0.766239
0.766243
0.766257
0.76629
0.766331
0.766355
0.766361
0.766359
0.766348
0.766325
0.766299
0.766288
0.766288
0.766292
0.766303
0.766318
0.766323
0.766321
0.766316
0.766302
0.766281
0.766262
0.766262
0.76627
0.766286
0.76631
0.766341
0.766371
0.766394
0.766405
0.766406
0.7664
0.766393
0.766391
0.766394
0.766404
0.766425
0.766456
0.766497
0.766542
0.766588
0.766623
0.766627
0.766621
0.766613
0.766609
0.766607
0.766604
0.766598
0.766586
0.766567
0.76654
0.766505
0.766466
0.766427
0.766391
0.766362
0.766348
0.766346
0.766347
0.76635
0.766351
0.76635
0.766346
0.766337
0.766325
0.766313
0.766308
0.766308
0.766309
0.766313
0.766318
0.766322
0.766323
0.766322
0.766318
0.76631
0.7663
0.76629
0.766286
0.766286
0.766286
0.766286
0.766286
0.766286
0.766285
0.766282
0.766278
0.766275
0.766275
0.766275
0.766278
0.766282
0.766288
0.766296
0.7663
0.766301
0.766301
0.766299
0.766296
0.766292
0.766288
0.766284
0.766281
0.766279
0.766277
0.766276
0.766273
0.766269
0.766264
0.766257
0.766248
0.766242
0.76624
0.76624
0.76624
0.766241
0.766241
0.76624
0.766239
0.766237
0.766233
0.766228
0.766223
0.766218
0.766215
0.766213
0.766211
0.76621
0.766208
0.766205
0.766201
0.766194
0.766186
0.766176
0.766166
0.766156
0.766148
0.766142
0.766138
0.766133
0.766129
0.766124
0.766118
0.766112
0.766106
0.766103
0.766101
0.7661
0.766099
0.766099
0.766098
0.766097
0.766096
0.766093
0.766089
0.766084
0.766079
0.766074
0.766068
0.766064
0.76606
0.766056
0.766052
0.766047
0.76604
0.766033
0.766024
0.766015
0.766006
0.765998
0.765991
0.765986
0.765984
0.765982
0.765977
0.765965
0.765947
0.765917
0.765885
0.765863
0.765945
0.766786
0.76998
0.776296
0.784911
0.79488
0.805497
0.816632
0.827967
0.839634
0.851371
0.863377
0.875406
0.887679
0.899928
0.912405
0.924806
0.937457
0.949993
0.962987
0.977003
0.999451
1.132
1.132
1.132
1.132
1.132
1.132
1.132
1.132
1.132
1.132
1.132
1.132
1.132
1.132
1.132
1.132
1.132
1.132
1.132
1.132
1.132
1.132
1.132
1.132
1.132
1.132
1.132
1.132
1.132
1.132
1.13196
1.13085
1.10905
1.03674
1.01923
1.01895
1.01892
1.0189
1.01889
1.01893
1.01901
1.01908
1.01906
1.01902
1.01895
1.01885
1.01875
1.01876
1.01879
1.01884
1.01891
1.019
1.01909
1.01913
1.01914
1.01915
1.01914
1.01911
1.01906
1.01907
1.01908
1.01909
1.01912
1.01918
1.01923
1.01923
1.01922
1.01921
1.01917
1.01911
1.01905
1.01902
1.01901
1.01901
1.01902
1.01905
1.01908
1.01909
1.01909
1.01908
1.01905
1.01902
1.019
1.019
1.01901
1.01903
1.01906
1.01909
1.01911
1.01911
1.01911
1.0191
1.01909
1.01908
1.01907
1.01908
1.01908
1.01909
1.01909
1.01909
1.01909
1.01908
1.01908
1.01909
1.0191
1.01911
1.01912
1.01913
1.01913
1.01912
1.01911
1.01909
1.01908
1.01907
1.01907
1.01907
1.01908
1.01908
1.01908
1.01908
1.01907
1.01906
1.01905
1.01904
1.01904
1.01904
1.01905
1.01906
1.01907
1.01908
1.0191
1.01911
1.01912
1.01912
1.01912
1.01911
1.0191
1.0191
1.01909
1.01909
1.01909
1.0191
1.0191
1.0191
1.0191
1.01909
1.01908
1.01908
1.01907
1.01907
1.01908
1.01909
1.0191
1.01911
1.01911
1.0191
1.0191
1.01909
1.01908
1.01908
1.01908
1.01908
1.01909
1.01909
1.01907
1.019
1.01895
1.01898
1.01918
1.01976
1.02083
1.02234
1.02414
1.02604
1.02795
1.02975
1.03141
1.03291
1.03379
1.03392
1.03389
1.03383
1.03374
1.03377
1.03385
1.03395
1.0339
1.03377
1.03366
1.03362
1.03358
1.03353
1.03341
1.03315
1.03257
1.0315
1.02997
1.02838
1.02712
1.02622
1.02552
1.02492
1.02437
1.02386
1.02341
1.02299
1.02262
1.0223
1.02203
1.02181
1.02164
1.0215
1.02139
1.02131
1.02125
1.0212
1.02116
1.02112
1.02109
1.02105
1.02102
1.02098
1.02093
1.02088
1.02083
1.02077
1.02071
1.02065
1.0206
1.02054
1.02051
1.02048
1.02047
1.02046
1.02045
1.02045
1.02044
1.02044
1.02044
1.02044
1.02044
1.02044
1.02043
1.02043
1.02042
1.0204
1.02038
1.02036
1.02034
1.02032
1.0203
1.02028
1.02026
1.02024
1.02023
1.02022
1.02021
1.02021
1.02021
1.0202
1.0202
1.0202
1.0202
1.0202
1.02021
1.0202
1.02019
1.02018
1.02016
1.02015
1.02013
1.02011
1.02009
1.02007
1.02005
1.02003
1.02001
1.01999
1.01997
1.01996
1.01995
1.01994
1.01993
1.01992
1.01991
1.01991
1.0199
1.0199
1.01989
1.01989
1.01988
1.01987
1.01986
1.01985
1.01984
1.01983
1.01982
1.01981
1.0198
1.0198
1.01979
1.01978
1.01977
1.01977
1.01977
1.01977
1.01978
1.01979
1.01979
1.01978
1.01977
1.01976
1.01975
1.01974
1.01973
1.01972
1.01971
1.0197
1.01968
1.01967
1.01966
1.01965
1.01965
1.01965
1.01965
1.01964
1.01963
1.01963
1.01963
1.01963
1.01963
1.01963
1.01963
1.01962
1.01961
1.0196
1.01959
1.01959
1.01958
1.01958
1.01958
1.01959
1.0196
1.0196
1.0196
1.0196
1.0196
1.0196
1.01961
1.01962
1.01963
1.01963
1.01964
1.01964
1.01963
1.01963
1.01963
1.01963
1.01963
1.01962
1.01961
1.0196
1.01959
1.01957
1.01956
1.01956
1.01956
1.01955
1.01955
1.01955
1.01955
1.01955
1.01955
1.01955
1.01955
1.01955
1.01954
1.01953
1.01952
1.01951
1.0195
1.01948
1.01948
1.01947
1.01945
1.01943
1.01941
1.0194
1.0194
1.01939
1.01938
1.01938
1.01937
1.01936
1.01937
1.01937
1.01937
1.01936
1.01937
1.01939
1.01941
1.01942
1.01941
1.01941
1.0194
1.01939
1.01939
1.01939
1.0194
1.0194
1.01939
1.01938
1.01937
1.01936
1.01935
1.01935
1.01936
1.01937
1.01936
1.01935
1.01936
1.01934
1.01933
1.01928
1.01924
1.01915
1.01902
1.01881
1.01852
1.0181
1.01752
1.01668
1.01551
1.01388
1.01162
1.0085
1.00436
0.998912
0.991821
0.982762
0.971355
0.957371
0.940603
0.921033
0.898923
0.874866
0.8498
0.825077
0.802642
0.784829
0.772784
0.766991
0.766218
0.766148
0.766025
0.765871
0.765771
0.765765
0.765812
0.765925
0.766091
0.766291
0.766523
0.766692
0.766714
0.766697
0.766641
0.766542
0.766422
0.766316
0.766278
0.766281
0.76631
0.766367
0.766431
0.76645
0.766446
0.766424
0.76637
0.766297
0.766258
0.766254
0.766264
0.766296
0.766349
0.766396
0.766407
0.766403
0.766385
0.766346
0.766293
0.76625
0.766238
0.766241
0.766255
0.766288
0.766329
0.766354
0.766359
0.766358
0.766347
0.766324
0.766298
0.766286
0.766285
0.766288
0.766299
0.766312
0.766316
0.766314
0.766308
0.766295
0.766274
0.766258
0.766261
0.766273
0.766293
0.766322
0.766359
0.766393
0.766421
0.766435
0.766436
0.76643
0.76642
0.766414
0.766412
0.766417
0.766432
0.766458
0.766495
0.766538
0.766581
0.766616
0.766621
0.766614
0.766606
0.766603
0.766602
0.766601
0.766596
0.766585
0.766567
0.766541
0.766507
0.766468
0.766429
0.766394
0.766364
0.76635
0.766348
0.766349
0.766351
0.766352
0.766351
0.766346
0.766338
0.766325
0.766313
0.766307
0.766307
0.766309
0.766313
0.766318
0.766322
0.766323
0.766322
0.766318
0.76631
0.7663
0.76629
0.766286
0.766286
0.766286
0.766286
0.766286
0.766286
0.766285
0.766282
0.766278
0.766275
0.766275
0.766275
0.766278
0.766282
0.766288
0.766296
0.7663
0.766301
0.766301
0.766299
0.766297
0.766292
0.766288
0.766284
0.766281
0.766279
0.766277
0.766276
0.766273
0.766269
0.766264
0.766257
0.766248
0.766242
0.76624
0.76624
0.76624
0.766241
0.766241
0.76624
0.766239
0.766237
0.766233
0.766228
0.766223
0.766218
0.766215
0.766213
0.766211
0.76621
0.766208
0.766205
0.766201
0.766194
0.766186
0.766176
0.766166
0.766156
0.766148
0.766142
0.766138
0.766133
0.766129
0.766124
0.766118
0.766112
0.766106
0.766103
0.766101
0.7661
0.766099
0.766099
0.766098
0.766097
0.766096
0.766093
0.766089
0.766085
0.766079
0.766074
0.766068
0.766064
0.76606
0.766056
0.766052
0.766047
0.76604
0.766033
0.766025
0.766015
0.766006
0.765998
0.765991
0.765986
0.765984
0.765982
0.765977
0.765965
0.765947
0.765917
0.765885
0.765863
0.765945
0.766786
0.769981
0.776295
0.784906
0.794875
0.805493
0.816635
0.827974
0.839645
0.851377
0.863378
0.875402
0.887668
0.899913
0.912395
0.924794
0.937457
0.950008
0.963049
0.977109
0.999296
1.132
1.132
1.132
1.132
1.132
1.132
1.132
1.132
1.132
1.132
1.132
1.132
1.132
1.132
1.132
1.132
1.132
1.132
1.132
1.132
1.132
1.132
1.132
1.132
1.132
1.132
1.132
1.132
1.132
1.132
1.13196
1.13085
1.10905
1.03674
1.01923
1.01895
1.01892
1.0189
1.01889
1.01893
1.01901
1.01908
1.01906
1.01902
1.01895
1.01885
1.01875
1.01876
1.01879
1.01884
1.01891
1.019
1.01909
1.01913
1.01914
1.01915
1.01914
1.01911
1.01906
1.01907
1.01908
1.01909
1.01912
1.01918
1.01923
1.01923
1.01922
1.01921
1.01917
1.01911
1.01905
1.01902
1.01901
1.01901
1.01902
1.01905
1.01908
1.01909
1.01909
1.01908
1.01905
1.01902
1.019
1.019
1.01901
1.01903
1.01906
1.01909
1.01911
1.01911
1.01911
1.0191
1.01909
1.01908
1.01907
1.01908
1.01908
1.01909
1.01909
1.01909
1.01909
1.01908