/*--------------------------------*- C++ -*----------------------------------*\
| =========                 |                                                 |
| \\      /  F ield         | OpenFOAM: The Open Source CFD Toolbox           |
|  \\    /   O peration     | Version:  2406                                  |
|   \\  /    A nd           | Website:  www.openfoam.com                      |
|    \\/     M anipulation  |                                                 |
\*---------------------------------------------------------------------------*/
FoamFile
{
    version     2.0;
    format      ascii;
    arch        "LSB;label=32;scalar=64";
    class       volScalarField;
    location    "0.06";
    object      rho;
}
// * * * * * * * * * * * * * * * * * * * * * * * * * * * * * * * * * * * * * //

dimensions      [1 -3 0 0 0 0 0];

internalField   nonuniform List<scalar> 
83682
(
4.32005
4.32005
4.32005
4.32005
4.32005
4.32005
4.32005
4.32005
4.32005
4.32005
4.32005
4.32005
4.32005
4.32005
4.32005
4.32005
4.32005
4.32005
4.32005
4.32005
4.32005
4.32005
4.32005
4.32005
4.32005
4.32005
4.32005
4.32005
4.32005
4.32005
4.3202
4.32413
4.40157
4.67289
4.73934
4.7393
4.73937
4.73953
4.73979
4.74029
4.74119
4.74201
4.7422
4.74216
4.74182
4.74099
4.73997
4.73962
4.73954
4.73959
4.73984
4.74034
4.74093
4.74107
4.74099
4.74081
4.74047
4.73989
4.73926
4.73909
4.73911
4.73924
4.73956
4.74012
4.74062
4.74071
4.74069
4.74057
4.74027
4.73984
4.73947
4.73937
4.73943
4.73958
4.73984
4.74018
4.74042
4.74052
4.74051
4.74043
4.74026
4.74008
4.74002
4.74003
4.74008
4.74017
4.74029
4.74037
4.74039
4.74035
4.74027
4.74016
4.74006
4.73999
4.7399
4.73986
4.73986
4.73987
4.73985
4.73985
4.73984
4.73983
4.73983
4.73987
4.73993
4.73997
4.74004
4.74012
4.74017
4.74017
4.74017
4.74014
4.74006
4.73997
4.73994
4.73994
4.73996
4.74002
4.74011
4.74018
4.74019
4.74017
4.74012
4.74
4.73989
4.73985
4.73985
4.73991
4.74
4.74012
4.74028
4.74034
4.74032
4.74028
4.74021
4.74012
4.74003
4.73999
4.73999
4.74
4.74002
4.74005
4.74006
4.74005
4.74002
4.74
4.73997
4.73995
4.73995
4.73996
4.74
4.74004
4.7401
4.74015
4.74017
4.74018
4.74019
4.74018
4.74014
4.74011
4.74008
4.74006
4.74004
4.74005
4.74011
4.74035
4.74051
4.74036
4.73954
4.73726
4.73304
4.72713
4.72013
4.71272
4.70533
4.69838
4.69198
4.6864
4.68298
4.68215
4.68213
4.68222
4.68256
4.68254
4.68245
4.68229
4.68248
4.68265
4.6829
4.6831
4.68324
4.68344
4.68388
4.68493
4.68724
4.6915
4.69754
4.70382
4.7088
4.71239
4.71515
4.71748
4.71957
4.72148
4.72323
4.72482
4.72625
4.72749
4.72852
4.72937
4.73003
4.73055
4.73094
4.73123
4.73146
4.73166
4.73186
4.73206
4.73225
4.73244
4.73266
4.73287
4.73306
4.73325
4.73343
4.73363
4.73382
4.73401
4.73418
4.73433
4.73443
4.73447
4.73449
4.73451
4.73453
4.73454
4.73456
4.73459
4.73463
4.73467
4.73471
4.73477
4.73483
4.73489
4.73494
4.735
4.73507
4.73515
4.73523
4.73532
4.7354
4.73546
4.73548
4.73548
4.73546
4.73543
4.73542
4.73543
4.73546
4.7355
4.73555
4.73561
4.73568
4.73575
4.73579
4.73582
4.73585
4.7359
4.73596
4.73601
4.73608
4.73615
4.73621
4.73626
4.7363
4.73636
4.7364
4.73643
4.73647
4.7365
4.73654
4.73657
4.73661
4.73668
4.73676
4.73685
4.73693
4.737
4.73704
4.73706
4.73708
4.7371
4.73712
4.73713
4.73714
4.73716
4.73716
4.73716
4.73715
4.73716
4.73718
4.73721
4.73723
4.73725
4.73727
4.73727
4.73727
4.73728
4.73733
4.73737
4.73742
4.73746
4.73752
4.73756
4.73758
4.7376
4.73762
4.73766
4.73769
4.73771
4.73773
4.73774
4.73774
4.73773
4.73773
4.73775
4.73779
4.73784
4.73787
4.73791
4.73796
4.73799
4.73801
4.73804
4.73807
4.73809
4.7381
4.7381
4.73809
4.73805
4.73797
4.7379
4.73785
4.73784
4.73784
4.73785
4.73787
4.73787
4.73786
4.73784
4.73786
4.73789
4.73792
4.73793
4.73795
4.73796
4.73796
4.73794
4.73793
4.73794
4.73793
4.73792
4.73791
4.73791
4.73793
4.73794
4.73795
4.73797
4.73799
4.738
4.73802
4.73805
4.7381
4.73813
4.73816
4.7382
4.73826
4.7383
4.73832
4.73835
4.73839
4.73842
4.73842
4.73841
4.73842
4.73846
4.73848
4.73852
4.73855
4.73859
4.7386
4.73862
4.73866
4.73874
4.73879
4.73883
4.73887
4.7389
4.73888
4.73878
4.73871
4.73871
4.7387
4.73867
4.73866
4.73863
4.73863
4.73857
4.73853
4.73853
4.73858
4.73858
4.7386
4.73862
4.73866
4.73866
4.73865
4.73867
4.7387
4.73871
4.73863
4.73855
4.73832
4.73805
4.7375
4.73674
4.73557
4.73378
4.73105
4.7271
4.72129
4.71298
4.70115
4.68472
4.66209
4.6316
4.59109
4.53819
4.47053
4.38556
4.28141
4.15659
4.0111
3.84633
3.66565
3.47466
3.28151
3.0968
2.93381
2.807
2.72444
2.68637
2.67902
2.67824
2.67787
2.67751
2.67751
2.67788
2.67854
2.67951
2.68066
2.68183
2.68294
2.68368
2.68383
2.68379
2.68357
2.68318
2.6827
2.68224
2.682
2.68189
2.68188
2.68201
2.68218
2.68223
2.68222
2.68216
2.68202
2.68183
2.68173
2.68175
2.68181
2.68192
2.68211
2.68226
2.68228
2.68225
2.68217
2.68202
2.68183
2.68167
2.68162
2.68161
2.68165
2.68176
2.68189
2.68198
2.68201
2.68202
2.682
2.68194
2.68188
2.68185
2.68186
2.68188
2.68193
2.68197
2.68199
2.68198
2.68195
2.68189
2.6818
2.68171
2.68167
2.68166
2.68167
2.68171
2.68177
2.68184
2.68189
2.68192
2.68193
2.68196
2.68202
2.68211
2.68224
2.68243
2.68268
2.68299
2.68335
2.68372
2.68406
2.68433
2.68442
2.68443
2.6844
2.68437
2.68433
2.68429
2.68421
2.6841
2.68394
2.68375
2.68353
2.6833
2.68308
2.68289
2.68275
2.68267
2.68265
2.68264
2.68264
2.68264
2.68262
2.6826
2.68256
2.6825
2.68244
2.68241
2.6824
2.68239
2.68239
2.6824
2.68241
2.6824
2.6824
2.68238
2.68234
2.6823
2.68227
2.68224
2.68223
2.68222
2.68221
2.6822
2.68219
2.68218
2.68216
2.68215
2.68213
2.68213
2.68213
2.68214
2.68215
2.68217
2.6822
2.68221
2.68221
2.68221
2.6822
2.68219
2.68217
2.68215
2.68213
2.68211
2.6821
2.68209
2.68208
2.68206
2.68205
2.68203
2.68201
2.68198
2.68196
2.68195
2.68195
2.68196
2.68196
2.68196
2.68196
2.68195
2.68194
2.68193
2.68191
2.68189
2.68187
2.68186
2.68185
2.68185
2.68184
2.68184
2.68183
2.68182
2.6818
2.68178
2.68175
2.68172
2.68169
2.68167
2.68165
2.68164
2.68162
2.68161
2.68159
2.68158
2.68156
2.68154
2.68153
2.68152
2.68152
2.68152
2.68152
2.68152
2.68152
2.68151
2.6815
2.68149
2.68148
2.68146
2.68145
2.68143
2.68142
2.68141
2.68139
2.68138
2.68136
2.68134
2.68132
2.68129
2.68126
2.68123
2.68121
2.68119
2.68117
2.68115
2.68113
2.68112
2.68112
2.68113
2.68115
2.68118
2.68116
2.68094
2.67895
2.67149
2.65685
2.63708
2.61443
2.59058
2.56587
2.541
2.5157
2.4905
2.46505
2.43984
2.41446
2.38945
2.36431
2.33965
2.31485
2.2906
2.26586
2.24
2.19684
4.32005
4.32005
4.32005
4.32005
4.32005
4.32005
4.32005
4.32005
4.32005
4.32005
4.32005
4.32005
4.32005
4.32005
4.32005
4.32005
4.32005
4.32005
4.32005
4.32005
4.32005
4.32005
4.32005
4.32005
4.32005
4.32005
4.32005
4.32005
4.32005
4.32005
4.3202
4.32413
4.40157
4.67289
4.73934
4.7393
4.73937
4.73953
4.73979
4.74029
4.74119
4.74201
4.7422
4.74216
4.74182
4.74099
4.73997
4.73962
4.73954
4.73959
4.73984
4.74034
4.74093
4.74107
4.74099
4.74081
4.74047
4.73989
4.73926
4.73909
4.73911
4.73924
4.73956
4.74012
4.74062
4.74071
4.74069
4.74057
4.74027
4.73984
4.73947
4.73937
4.73943
4.73958
4.73984
4.74018
4.74042
4.74052
4.74051
4.74043
4.74026
4.74008
4.74002
4.74003
4.74008
4.74017
4.74029
4.74037
4.74039
4.74035
4.74027
4.74016
4.74006
4.73999
4.7399
4.73986
4.73986
4.73987
4.73985
4.73985
4.73984
4.73983
4.73983
4.73987
4.73993
4.73997
4.74004
4.74012
4.74017
4.74017
4.74017
4.74014
4.74006
4.73997
4.73994
4.73994
4.73996
4.74002
4.74011
4.74018
4.74019
4.74017
4.74012
4.74
4.73989
4.73985
4.73985
4.73991
4.74
4.74012
4.74028
4.74034
4.74032
4.74028
4.74021
4.74012
4.74003
4.73999
4.73999
4.74
4.74002
4.74005
4.74006
4.74005
4.74002
4.74
4.73997
4.73995
4.73995
4.73996
4.74
4.74004
4.7401
4.74015
4.74017
4.74018
4.74019
4.74018
4.74014
4.74011
4.74008
4.74006
4.74004
4.74005
4.74011
4.74035
4.74051
4.74036
4.73954
4.73726
4.73304
4.72713
4.72013
4.71272
4.70534
4.69839
4.69197
4.68635
4.68289
4.68218
4.68218
4.6823
4.68265
4.68257
4.68243
4.68219
4.68238
4.68264
4.68291
4.68311
4.68325
4.68345
4.68389
4.68494
4.68725
4.69151
4.69755
4.70382
4.7088
4.71239
4.71516
4.71748
4.71957
4.72148
4.72323
4.72482
4.72625
4.72749
4.72853
4.72937
4.73003
4.73055
4.73094
4.73123
4.73146
4.73166
4.73186
4.73206
4.73225
4.73244
4.73266
4.73287
4.73306
4.73325
4.73343
4.73363
4.73382
4.73401
4.73418
4.73433
4.73443
4.73447
4.73449
4.73451
4.73453
4.73454
4.73456
4.73459
4.73463
4.73467
4.73471
4.73477
4.73483
4.73488
4.73494
4.735
4.73507
4.73515
4.73523
4.73532
4.7354
4.73546
4.73548
4.73548
4.73546
4.73543
4.73542
4.73543
4.73546
4.7355
4.73555
4.73561
4.73568
4.73575
4.73579
4.73582
4.73585
4.7359
4.73596
4.73601
4.73608
4.73615
4.73621
4.73626
4.7363
4.73636
4.7364
4.73643
4.73647
4.7365
4.73654
4.73657
4.73661
4.73668
4.73676
4.73685
4.73693
4.737
4.73704
4.73706
4.73708
4.7371
4.73712
4.73713
4.73714
4.73716
4.73716
4.73716
4.73715
4.73716
4.73718
4.73721
4.73723
4.73725
4.73727
4.73727
4.73727
4.73728
4.73733
4.73737
4.73742
4.73746
4.73752
4.73756
4.73758
4.7376
4.73762
4.73766
4.73769
4.73771
4.73773
4.73774
4.73774
4.73773
4.73773
4.73775
4.73779
4.73784
4.73787
4.73791
4.73796
4.73799
4.73801
4.73804
4.73807
4.73809
4.7381
4.7381
4.73809
4.73805
4.73797
4.7379
4.73785
4.73784
4.73784
4.73785
4.73787
4.73787
4.73786
4.73784
4.73786
4.73789
4.73792
4.73793
4.73795
4.73796
4.73796
4.73794
4.73793
4.73794
4.73793
4.73792
4.73791
4.73791
4.73793
4.73794
4.73795
4.73797
4.73799
4.738
4.73802
4.73805
4.7381
4.73813
4.73816
4.7382
4.73826
4.7383
4.73832
4.73835
4.73839
4.73842
4.73842
4.73841
4.73842
4.73846
4.73848
4.73852
4.73855
4.73859
4.7386
4.73862
4.73867
4.73874
4.73879
4.73883
4.73886
4.7389
4.73888
4.73879
4.73872
4.7387
4.7387
4.73866
4.73866
4.73864
4.73863
4.73857
4.73853
4.73853
4.73857
4.73857
4.7386
4.73862
4.73867
4.73867
4.73866
4.73868
4.73871
4.73871
4.73863
4.73854
4.73832
4.73805
4.7375
4.73674
4.73556
4.73378
4.73105
4.72711
4.7213
4.71298
4.70117
4.68472
4.6621
4.63165
4.59119
4.53834
4.47074
4.38585
4.28181
4.15711
4.01174
3.84705
3.66642
3.47542
3.28216
3.09729
2.93414
2.80718
2.72456
2.68644
2.67903
2.67825
2.67788
2.67752
2.67752
2.67788
2.67854
2.67951
2.68066
2.68183
2.68294
2.68368
2.68383
2.68379
2.68357
2.68318
2.6827
2.68224
2.682
2.68189
2.68188
2.68201
2.68218
2.68223
2.68222
2.68216
2.68202
2.68183
2.68173
2.68175
2.68181
2.68192
2.68211
2.68226
2.68228
2.68225
2.68217
2.68202
2.68183
2.68167
2.68162
2.68161
2.68165
2.68176
2.68189
2.68198
2.68201
2.68202
2.682
2.68194
2.68188
2.68185
2.68186
2.68188
2.68193
2.68197
2.68199
2.68198
2.68195
2.68189
2.6818
2.68171
2.68167
2.68166
2.68167
2.68171
2.68177
2.68184
2.68189
2.68192
2.68194
2.68196
2.68202
2.68211
2.68224
2.68243
2.68268
2.68299
2.68335
2.68372
2.68406
2.68433
2.68442
2.68443
2.6844
2.68437
2.68434
2.68429
2.68421
2.6841
2.68394
2.68375
2.68353
2.6833
2.68308
2.68289
2.68275
2.68267
2.68265
2.68264
2.68264
2.68264
2.68262
2.6826
2.68256
2.6825
2.68244
2.68241
2.6824
2.68239
2.68239
2.6824
2.68241
2.6824
2.6824
2.68238
2.68234
2.6823
2.68227
2.68224
2.68223
2.68222
2.68221
2.6822
2.68219
2.68218
2.68216
2.68215
2.68213
2.68213
2.68213
2.68214
2.68215
2.68217
2.6822
2.68221
2.68221
2.68221
2.6822
2.68219
2.68217
2.68215
2.68213
2.68211
2.6821
2.68209
2.68208
2.68206
2.68205
2.68203
2.68201
2.68198
2.68196
2.68195
2.68195
2.68196
2.68196
2.68196
2.68196
2.68195
2.68194
2.68193
2.68191
2.68189
2.68187
2.68186
2.68185
2.68185
2.68184
2.68184
2.68183
2.68182
2.6818
2.68178
2.68175
2.68172
2.68169
2.68167
2.68165
2.68164
2.68162
2.68161
2.68159
2.68158
2.68156
2.68154
2.68153
2.68152
2.68152
2.68152
2.68152
2.68152
2.68152
2.68151
2.6815
2.68149
2.68148
2.68146
2.68145
2.68143
2.68142
2.68141
2.68139
2.68138
2.68136
2.68134
2.68132
2.68129
2.68126
2.68123
2.68121
2.68119
2.68117
2.68115
2.68113
2.68112
2.68112
2.68113
2.68115
2.68118
2.68116
2.68094
2.67895
2.67149
2.65685
2.63709
2.61443
2.59059
2.56587
2.541
2.51568
2.4905
2.46503
2.43984
2.41446
2.38946
2.36432
2.33967
2.31486
2.29061
2.26583
2.23986
2.19695
4.32005
4.32005
4.32005
4.32005
4.32005
4.32005
4.32005
4.32005
4.32005
4.32005
4.32005
4.32005
4.32005
4.32005
4.32005
4.32005
4.32005
4.32005
4.32005
4.32005
4.32005
4.32005
4.32005
4.32005
4.32005
4.32005
4.32005
4.32005
4.32005
4.32005
4.3202
4.32413
4.40157
4.67289
4.73934
4.7393
4.73937
4.73953
4.73979
4.74029
4.74119
4.74201
4.7422
4.74216
4.74182
4.74099
4.73997
4.73962
4.73954
4.73959
4.73984
4.74034
4.74093
4.74107
4.74099
4.74081
4.74047
4.73989
4.73926
4.73909
4.73911
4.73924
4.73956
4.74012
4.74062
4.74071
4.74069
4.74057
4.74027
4.73984
4.73947
4.73937
4.73943
4.73958
4.73984
4.74018
4.74042
4.74052
4.74051
4.74043
4.74026
4.74008
4.74002
4.74003
4.74008
4.74017
4.74029
4.74037
4.74039
4.74035
4.74027
4.74016
4.74006
4.73999
4.7399
4.73986
4.73986
4.73987
4.73985
4.73985
4.73984
4.73983
4.73983
4.73987
4.73993
4.73997
4.74004
4.74012
4.74017
4.74017
4.74017
4.74014
4.74006
4.73997
4.73994
4.73994
4.73996
4.74002
4.74011
4.74018
4.74019
4.74017
4.74012
4.74
4.73989
4.73985
4.73985
4.73991
4.74
4.74012
4.74028
4.74034
4.74032
4.74028
4.74021
4.74012
4.74003
4.73999
4.73999
4.74
4.74002
4.74005
4.74006
4.74005
4.74002
4.74
4.73997
4.73995
4.73995
4.73996
4.74
4.74004
4.7401
4.74015
4.74017
4.74018
4.74019
4.74018
4.74014
4.74011
4.74008
4.74006
4.74004
4.74005
4.74011
4.74035
4.74051
4.74036
4.73954
4.73725
4.73304
4.72713
4.72013
4.71273
4.70535
4.69841
4.69197
4.68629
4.68283
4.68219
4.68221
4.68237
4.68273
4.68261
4.68241
4.68211
4.68229
4.68262
4.68293
4.68312
4.68325
4.68345
4.6839
4.68495
4.68725
4.69151
4.69755
4.70382
4.7088
4.71239
4.71516
4.71748
4.71957
4.72148
4.72323
4.72482
4.72625
4.72749
4.72853
4.72937
4.73003
4.73055
4.73094
4.73123
4.73146
4.73166
4.73186
4.73206
4.73225
4.73244
4.73266
4.73287
4.73306
4.73325
4.73343
4.73363
4.73382
4.73401
4.73418
4.73433
4.73443
4.73447
4.73449
4.73451
4.73453
4.73454
4.73456
4.73459
4.73463
4.73467
4.73471
4.73477
4.73483
4.73488
4.73494
4.735
4.73507
4.73515
4.73523
4.73532
4.7354
4.73546
4.73548
4.73548
4.73546
4.73543
4.73542
4.73543
4.73546
4.7355
4.73555
4.73561
4.73568
4.73575
4.73579
4.73582
4.73585
4.7359
4.73596
4.73601
4.73608
4.73615
4.73621
4.73626
4.73631
4.73636
4.7364
4.73643
4.73647
4.7365
4.73654
4.73657
4.73661
4.73668
4.73676
4.73685
4.73693
4.737
4.73704
4.73706
4.73708
4.7371
4.73712
4.73713
4.73714
4.73716
4.73716
4.73716
4.73715
4.73716
4.73718
4.73721
4.73723
4.73725
4.73727
4.73727
4.73727
4.73728
4.73733
4.73737
4.73742
4.73746
4.73752
4.73756
4.73758
4.7376
4.73762
4.73766
4.73769
4.73771
4.73773
4.73774
4.73774
4.73773
4.73773
4.73775
4.73779
4.73784
4.73787
4.73791
4.73796
4.73799
4.73801
4.73804
4.73807
4.73809
4.7381
4.7381
4.73809
4.73805
4.73797
4.7379
4.73785
4.73784
4.73784
4.73785
4.73787
4.73787
4.73786
4.73784
4.73786
4.73789
4.73792
4.73793
4.73795
4.73796
4.73796
4.73794
4.73793
4.73794
4.73793
4.73792
4.73791
4.73791
4.73793
4.73794
4.73795
4.73797
4.73799
4.738
4.73802
4.73805
4.7381
4.73813
4.73816
4.7382
4.73826
4.7383
4.73832
4.73835
4.73839
4.73842
4.73842
4.73841
4.73842
4.73846
4.73849
4.73852
4.73855
4.73859
4.7386
4.73862
4.73867
4.73874
4.73878
4.73882
4.73887
4.7389
4.73888
4.73879
4.73872
4.7387
4.73869
4.73867
4.73867
4.73865
4.73864
4.73857
4.73852
4.73852
4.73856
4.73857
4.7386
4.73862
4.73868
4.73868
4.73867
4.73868
4.7387
4.73871
4.73862
4.73853
4.73832
4.73805
4.7375
4.73674
4.73555
4.73377
4.73107
4.72713
4.72131
4.71301
4.70121
4.68475
4.66219
4.63186
4.59152
4.53882
4.4714
4.38675
4.28297
4.15855
4.01341
3.84887
3.66824
3.47708
3.28354
3.0983
2.93476
2.80747
2.72465
2.68641
2.67899
2.67823
2.67788
2.67753
2.67752
2.67789
2.67854
2.67951
2.68066
2.68184
2.68294
2.68368
2.68383
2.68379
2.68356
2.68318
2.6827
2.68224
2.682
2.68189
2.68189
2.68201
2.68218
2.68223
2.68222
2.68216
2.68202
2.68183
2.68173
2.68175
2.68181
2.68192
2.68211
2.68225
2.68228
2.68225
2.68217
2.68202
2.68183
2.68167
2.68162
2.68161
2.68165
2.68176
2.68189
2.68198
2.68201
2.68202
2.682
2.68194
2.68188
2.68185
2.68186
2.68188
2.68193
2.68197
2.68199
2.68198
2.68195
2.68189
2.6818
2.68171
2.68167
2.68166
2.68167
2.68171
2.68177
2.68184
2.68189
2.68192
2.68194
2.68196
2.68202
2.68211
2.68224
2.68243
2.68268
2.68299
2.68335
2.68372
2.68406
2.68433
2.68442
2.68443
2.6844
2.68437
2.68434
2.68429
2.68421
2.6841
2.68395
2.68375
2.68353
2.6833
2.68308
2.68289
2.68275
2.68267
2.68265
2.68264
2.68264
2.68264
2.68262
2.6826
2.68256
2.6825
2.68244
2.68241
2.68239
2.68239
2.68239
2.6824
2.68241
2.6824
2.6824
2.68238
2.68235
2.6823
2.68227
2.68224
2.68223
2.68222
2.68221
2.6822
2.68219
2.68218
2.68216
2.68215
2.68213
2.68213
2.68213
2.68214
2.68215
2.68217
2.6822
2.68221
2.68221
2.68221
2.6822
2.68219
2.68217
2.68215
2.68213
2.68211
2.6821
2.68209
2.68208
2.68206
2.68205
2.68203
2.68201
2.68198
2.68196
2.68195
2.68195
2.68196
2.68196
2.68196
2.68196
2.68195
2.68194
2.68193
2.68191
2.68189
2.68187
2.68186
2.68185
2.68185
2.68184
2.68184
2.68183
2.68182
2.6818
2.68178
2.68175
2.68172
2.68169
2.68167
2.68165
2.68164
2.68162
2.68161
2.68159
2.68158
2.68156
2.68154
2.68153
2.68152
2.68152
2.68152
2.68152
2.68152
2.68152
2.68151
2.6815
2.68149
2.68148
2.68146
2.68145
2.68143
2.68142
2.68141
2.68139
2.68138
2.68136
2.68134
2.68132
2.68129
2.68126
2.68123
2.68121
2.68119
2.68117
2.68115
2.68113
2.68112
2.68112
2.68113
2.68115
2.68118
2.68116
2.68094
2.67894
2.67149
2.65685
2.6371
2.61444
2.5906
2.56586
2.54099
2.51566
2.49049
2.46502
2.43985
2.41447
2.38949
2.36434
2.3397
2.31486
2.29061
2.26574
2.23969
2.19718
4.32005
4.32005
4.32005
4.32005
4.32005
4.32005
4.32005
4.32005
4.32005
4.32005
4.32005
4.32005
4.32005
4.32005
4.32005
4.32005
4.32005
4.32005
4.32005
4.32005
4.32005
4.32005
4.32005
4.32005
4.32005
4.32005
4.32005
4.32005
4.32005
4.32005
4.3202
4.32413
4.40157
4.67289
4.73934
4.7393
4.73937
4.73953
4.73979
4.74029
4.74119
4.74201
4.7422
4.74216
4.74182
4.74099
4.73997
4.73962
4.73954
4.73959
4.73984
4.74034
4.74093
4.74107
4.74099
4.74081
4.74047
4.73989
4.73926
4.73909
4.73911
4.73924
4.73956
4.74012
4.74062
4.74071
4.74069
4.74057
4.74027
4.73984
4.73947
4.73937
4.73943
4.73958
4.73984
4.74018
4.74042
4.74052
4.74051
4.74043
4.74026
4.74008
4.74002
4.74003
4.74008
4.74017
4.74029
4.74037
4.74039
4.74035
4.74027
4.74016
4.74006
4.73999
4.7399
4.73986
4.73986
4.73987
4.73985
4.73985
4.73984
4.73983
4.73983
4.73987
4.73993
4.73997
4.74004
4.74012
4.74017
4.74017
4.74017
4.74014
4.74006
4.73997
4.73994
4.73994
4.73996
4.74002
4.74011
4.74018
4.74019
4.74017
4.74012
4.74
4.73989
4.73985
4.73985
4.73991
4.74
4.74012
4.74028
4.74034
4.74032
4.74028
4.74021
4.74012
4.74003
4.73999
4.73999
4.74
4.74002
4.74005
4.74006
4.74005
4.74002
4.74
4.73997
4.73995
4.73995
4.73996
4.74
4.74004
4.7401
4.74015
4.74017
4.74018
4.74019
4.74018
4.74014
4.74011
4.74008
4.74006
4.74004
4.74005
4.74011
4.74035
4.74051
4.74036
4.73954
4.73725
4.73304
4.72714
4.72013
4.71274
4.70535
4.69842
4.69196
4.68623
4.68277
4.6822
4.68224
4.68243
4.6828
4.68266
4.68239
4.68203
4.68221
4.68261
4.68296
4.68312
4.68325
4.68346
4.6839
4.68495
4.68725
4.69151
4.69755
4.70382
4.7088
4.71239
4.71515
4.71748
4.71957
4.72148
4.72323
4.72483
4.72625
4.72749
4.72853
4.72937
4.73003
4.73055
4.73094
4.73123
4.73146
4.73166
4.73186
4.73205
4.73225
4.73244
4.73266
4.73287
4.73306
4.73325
4.73344
4.73363
4.73382
4.73401
4.73418
4.73433
4.73443
4.73447
4.73449
4.73451
4.73453
4.73454
4.73456
4.73459
4.73463
4.73467
4.73471
4.73477
4.73483
4.73488
4.73494
4.735
4.73507
4.73515
4.73523
4.73532
4.7354
4.73546
4.73548
4.73548
4.73546
4.73543
4.73542
4.73543
4.73546
4.7355
4.73555
4.73561
4.73568
4.73575
4.73579
4.73582
4.73585
4.7359
4.73595
4.73601
4.73608
4.73615
4.73621
4.73626
4.73631
4.73636
4.7364
4.73643
4.73646
4.7365
4.73654
4.73657
4.73661
4.73668
4.73676
4.73685
4.73693
4.737
4.73704
4.73706
4.73708
4.7371
4.73712
4.73713
4.73714
4.73716
4.73716
4.73716
4.73715
4.73716
4.73718
4.73721
4.73723
4.73725
4.73727
4.73727
4.73727
4.73728
4.73733
4.73737
4.73742
4.73746
4.73752
4.73756
4.73758
4.7376
4.73762
4.73766
4.73769
4.73771
4.73773
4.73774
4.73774
4.73773
4.73773
4.73775
4.73779
4.73784
4.73787
4.73791
4.73796
4.73799
4.73801
4.73804
4.73807
4.73809
4.7381
4.7381
4.73809
4.73805
4.73797
4.7379
4.73785
4.73784
4.73784
4.73785
4.73787
4.73787
4.73786
4.73784
4.73786
4.73789
4.73792
4.73793
4.73795
4.73796
4.73796
4.73794
4.73793
4.73794
4.73794
4.73792
4.73791
4.73791
4.73793
4.73794
4.73794
4.73797
4.73799
4.738
4.73802
4.73805
4.7381
4.73813
4.73817
4.7382
4.73826
4.73829
4.73832
4.73835
4.73839
4.73842
4.73842
4.73841
4.73842
4.73846
4.73849
4.73852
4.73854
4.73859
4.7386
4.73862
4.73867
4.73874
4.73877
4.73882
4.73887
4.7389
4.73889
4.7388
4.73872
4.73869
4.73869
4.73867
4.73868
4.73865
4.73863
4.73857
4.73851
4.73851
4.73855
4.73857
4.73861
4.73864
4.73869
4.73869
4.73867
4.73869
4.7387
4.7387
4.73861
4.73852
4.73831
4.73804
4.7375
4.73674
4.73555
4.73378
4.7311
4.72715
4.72133
4.71304
4.70126
4.68483
4.66238
4.6322
4.59205
4.53957
4.4724
4.38806
4.28463
4.16055
4.01561
3.85112
3.67035
3.47887
3.28492
3.09927
2.93534
2.80774
2.72478
2.68643
2.67897
2.67822
2.67789
2.67754
2.67752
2.67789
2.67854
2.67951
2.68066
2.68184
2.68294
2.68368
2.68383
2.68379
2.68356
2.68317
2.68269
2.68224
2.682
2.68189
2.68189
2.68201
2.68218
2.68223
2.68222
2.68216
2.68202
2.68183
2.68173
2.68175
2.6818
2.68192
2.68211
2.68225
2.68228
2.68225
2.68217
2.68202
2.68183
2.68167
2.68162
2.68161
2.68165
2.68176
2.68189
2.68198
2.68201
2.68202
2.682
2.68194
2.68188
2.68185
2.68186
2.68188
2.68193
2.68197
2.68199
2.68198
2.68195
2.68189
2.6818
2.68171
2.68168
2.68166
2.68167
2.68171
2.68177
2.68183
2.68189
2.68192
2.68194
2.68196
2.68201
2.68211
2.68224
2.68243
2.68268
2.683
2.68336
2.68373
2.68406
2.68433
2.68443
2.68444
2.6844
2.68437
2.68434
2.68429
2.68421
2.6841
2.68395
2.68375
2.68353
2.6833
2.68308
2.68289
2.68275
2.68267
2.68265
2.68264
2.68264
2.68264
2.68262
2.6826
2.68256
2.6825
2.68244
2.68241
2.68239
2.68239
2.68239
2.6824
2.68241
2.6824
2.6824
2.68238
2.68235
2.6823
2.68227
2.68224
2.68223
2.68222
2.68221
2.6822
2.68219
2.68218
2.68216
2.68215
2.68213
2.68213
2.68213
2.68214
2.68215
2.68217
2.6822
2.68221
2.68221
2.68221
2.6822
2.68219
2.68217
2.68215
2.68213
2.68211
2.6821
2.68209
2.68208
2.68206
2.68205
2.68203
2.68201
2.68198
2.68196
2.68195
2.68195
2.68196
2.68196
2.68196
2.68196
2.68195
2.68194
2.68193
2.68191
2.68189
2.68187
2.68186
2.68185
2.68185
2.68184
2.68184
2.68183
2.68182
2.6818
2.68178
2.68175
2.68172
2.68169
2.68167
2.68165
2.68164
2.68162
2.68161
2.68159
2.68158
2.68156
2.68154
2.68153
2.68152
2.68152
2.68152
2.68152
2.68152
2.68152
2.68151
2.6815
2.68149
2.68148
2.68146
2.68145
2.68143
2.68142
2.68141
2.68139
2.68138
2.68136
2.68134
2.68132
2.68129
2.68126
2.68123
2.68121
2.68119
2.68117
2.68115
2.68113
2.68112
2.68112
2.68113
2.68115
2.68118
2.68116
2.68094
2.67894
2.67149
2.65685
2.63711
2.61445
2.59061
2.56585
2.54098
2.51564
2.49047
2.46502
2.43986
2.41449
2.38952
2.36437
2.33972
2.31486
2.29059
2.26562
2.2395
2.19748
4.32005
4.32005
4.32005
4.32005
4.32005
4.32005
4.32005
4.32005
4.32005
4.32005
4.32005
4.32005
4.32005
4.32005
4.32005
4.32005
4.32005
4.32005
4.32005
4.32005
4.32005
4.32005
4.32005
4.32005
4.32005
4.32005
4.32005
4.32005
4.32005
4.32005
4.3202
4.32413
4.40157
4.67289
4.73934
4.7393
4.73937
4.73953
4.73979
4.74029
4.74119
4.74201
4.7422
4.74216
4.74182
4.74099
4.73997
4.73962
4.73954
4.73959
4.73984
4.74034
4.74093
4.74107
4.74099
4.74081
4.74047
4.73989
4.73926
4.73909
4.73911
4.73924
4.73956
4.74012
4.74062
4.74071
4.74069
4.74057
4.74027
4.73984
4.73947
4.73937
4.73943
4.73958
4.73984
4.74018
4.74042
4.74052
4.74051
4.74043
4.74026
4.74008
4.74002
4.74003
4.74008
4.74017
4.74029
4.74037
4.74039
4.74035
4.74027
4.74016
4.74006
4.73999
4.7399
4.73986
4.73986
4.73987
4.73985
4.73985
4.73984
4.73983
4.73983
4.73987
4.73993
4.73997
4.74004
4.74012
4.74017
4.74017
4.74017
4.74014
4.74006
4.73997
4.73994
4.73994
4.73996
4.74002
4.74011
4.74018
4.74019
4.74017
4.74012
4.74
4.73989
4.73985
4.73985
4.73991
4.74
4.74012
4.74028
4.74034
4.74032
4.74028
4.74021
4.74012
4.74003
4.73999
4.73999
4.74
4.74002
4.74005
4.74006
4.74005
4.74002
4.74
4.73997
4.73995
4.73995
4.73996
4.74
4.74004
4.7401
4.74015
4.74017
4.74018
4.74019
4.74018
4.74014
4.74011
4.74008
4.74006
4.74004
4.74005
4.74011
4.74035
4.74051
4.74036
4.73954
4.73725
4.73303
4.72714
4.72013
4.71274
4.70536
4.69843
4.69196
4.68618
4.68273
4.6822
4.68227
4.68249
4.68286
4.6827
4.68238
4.68197
4.68213
4.68259
4.68298
4.68313
4.68325
4.68346
4.68391
4.68496
4.68726
4.69151
4.69755
4.70382
4.7088
4.71238
4.71515
4.71748
4.71957
4.72148
4.72323
4.72483
4.72626
4.7275
4.72853
4.72937
4.73003
4.73054
4.73093
4.73123
4.73145
4.73166
4.73186
4.73205
4.73225
4.73245
4.73266
4.73287
4.73306
4.73325
4.73344
4.73363
4.73382
4.73401
4.73418
4.73433
4.73443
4.73447
4.73449
4.73451
4.73453
4.73454
4.73456
4.73459
4.73463
4.73467
4.73471
4.73477
4.73483
4.73488
4.73494
4.735
4.73507
4.73515
4.73523
4.73532
4.7354
4.73546
4.73548
4.73548
4.73546
4.73543
4.73542
4.73543
4.73546
4.7355
4.73556
4.73562
4.73568
4.73575
4.73579
4.73582
4.73585
4.7359
4.73595
4.73601
4.73608
4.73615
4.73621
4.73626
4.73631
4.73636
4.7364
4.73643
4.73646
4.7365
4.73654
4.73657
4.73661
4.73668
4.73676
4.73685
4.73693
4.737
4.73704
4.73706
4.73708
4.7371
4.73712
4.73713
4.73714
4.73716
4.73716
4.73716
4.73715
4.73715
4.73718
4.73721
4.73723
4.73725
4.73727
4.73727
4.73727
4.73728
4.73733
4.73737
4.73742
4.73746
4.73752
4.73756
4.73758
4.7376
4.73762
4.73766
4.73769
4.73771
4.73773
4.73774
4.73774
4.73773
4.73773
4.73775
4.73779
4.73784
4.73787
4.73791
4.73795
4.73799
4.73801
4.73804
4.73807
4.73809
4.7381
4.7381
4.73809
4.73805
4.73797
4.7379
4.73785
4.73784
4.73784
4.73785
4.73787
4.73787
4.73786
4.73784
4.73786
4.73789
4.73792
4.73793
4.73795
4.73797
4.73796
4.73794
4.73793
4.73794
4.73794
4.73792
4.73791
4.73791
4.73793
4.73794
4.73794
4.73797
4.73799
4.738
4.73802
4.73805
4.7381
4.73813
4.73817
4.7382
4.73826
4.73829
4.73832
4.73835
4.73839
4.73842
4.73842
4.7384
4.73841
4.73846
4.7385
4.73852
4.73854
4.73858
4.7386
4.73863
4.73868
4.73874
4.73877
4.73882
4.73887
4.7389
4.73889
4.73881
4.73871
4.73867
4.73868
4.73868
4.73869
4.73866
4.73863
4.73856
4.73851
4.73849
4.73854
4.73857
4.73862
4.73865
4.73871
4.7387
4.73868
4.73869
4.73869
4.73869
4.7386
4.73851
4.7383
4.73803
4.7375
4.73674
4.73556
4.73381
4.73113
4.72718
4.72136
4.7131
4.70135
4.68497
4.66266
4.63265
4.5927
4.54044
4.47355
4.38953
4.28642
4.16259
4.01771
3.85306
3.67197
3.48011
3.28571
3.09974
2.93562
2.80794
2.72494
2.68645
2.67892
2.67819
2.67789
2.67755
2.67752
2.67789
2.67855
2.67951
2.68067
2.68185
2.68295
2.68368
2.68382
2.68378
2.68356
2.68317
2.68269
2.68224
2.682
2.68189
2.68189
2.68201
2.68218
2.68223
2.68222
2.68216
2.68202
2.68183
2.68173
2.68175
2.6818
2.68192
2.6821
2.68225
2.68228
2.68225
2.68217
2.68202
2.68183
2.68167
2.68162
2.68161
2.68165
2.68176
2.68189
2.68198
2.68201
2.68202
2.682
2.68194
2.68188
2.68185
2.68186
2.68188
2.68193
2.68197
2.68199
2.68198
2.68195
2.68189
2.6818
2.68171
2.68168
2.68166
2.68167
2.68171
2.68177
2.68183
2.68189
2.68192
2.68194
2.68196
2.68201
2.68211
2.68224
2.68243
2.68269
2.683
2.68336
2.68373
2.68407
2.68434
2.68443
2.68444
2.68441
2.68438
2.68434
2.68429
2.68422
2.6841
2.68395
2.68375
2.68353
2.68329
2.68307
2.68289
2.68275
2.68267
2.68265
2.68265
2.68265
2.68264
2.68263
2.6826
2.68256
2.6825
2.68244
2.68241
2.68239
2.68239
2.68239
2.6824
2.68241
2.6824
2.6824
2.68238
2.68235
2.6823
2.68227
2.68224
2.68223
2.68222
2.68221
2.6822
2.68219
2.68218
2.68216
2.68215
2.68213
2.68213
2.68213
2.68214
2.68215
2.68217
2.6822
2.68221
2.68221
2.68221
2.6822
2.68219
2.68217
2.68215
2.68213
2.68211
2.6821
2.68209
2.68208
2.68206
2.68205
2.68203
2.68201
2.68198
2.68196
2.68195
2.68195
2.68196
2.68196
2.68196
2.68196
2.68195
2.68194
2.68193
2.68191
2.68189
2.68187
2.68186
2.68185
2.68185
2.68184
2.68184
2.68183
2.68182
2.6818
2.68178
2.68175
2.68172
2.68169
2.68167
2.68165
2.68164
2.68162
2.68161
2.68159
2.68158
2.68156
2.68154
2.68153
2.68152
2.68152
2.68152
2.68152
2.68152
2.68152
2.68151
2.6815
2.68149
2.68148
2.68146
2.68145
2.68143
2.68142
2.68141
2.68139
2.68138
2.68136
2.68134
2.68132
2.68129
2.68126
2.68123
2.68121
2.68119
2.68117
2.68115
2.68113
2.68112
2.68112
2.68113
2.68115
2.68118
2.68116
2.68094
2.67894
2.67149
2.65686
2.63712
2.61446
2.59062
2.56584
2.54096
2.51561
2.49046
2.46501
2.43988
2.41452
2.38956
2.3644
2.33975
2.31487
2.29056
2.2655
2.23932
2.1978
4.32005
4.32005
4.32005
4.32005
4.32005
4.32005
4.32005
4.32005
4.32005
4.32005
4.32005
4.32005
4.32005
4.32005
4.32005
4.32005
4.32005
4.32005
4.32005
4.32005
4.32005
4.32005
4.32005
4.32005
4.32005
4.32005
4.32005
4.32005
4.32005
4.32005
4.3202
4.32413
4.40157
4.67289
4.73934
4.7393
4.73937
4.73953
4.73979
4.74029
4.74119
4.74201
4.7422
4.74216
4.74182
4.74099
4.73997
4.73962
4.73954
4.73959
4.73984
4.74034
4.74093
4.74107
4.74099
4.74081
4.74047
4.73989
4.73926
4.73909
4.73911
4.73924
4.73956
4.74012
4.74062
4.74071
4.74069
4.74057
4.74027
4.73984
4.73947
4.73937
4.73943
4.73958
4.73984
4.74018
4.74042
4.74052
4.74051
4.74043
4.74026
4.74008
4.74002
4.74003
4.74008
4.74017
4.74029
4.74037
4.74039
4.74035
4.74027
4.74016
4.74006
4.73999
4.7399
4.73986
4.73986
4.73987
4.73985
4.73985
4.73984
4.73983
4.73983
4.73987
4.73993
4.73997
4.74004
4.74012
4.74017
4.74017
4.74017
4.74014
4.74006
4.73997
4.73994
4.73994
4.73996
4.74002
4.74011
4.74018
4.74019
4.74017
4.74012
4.74
4.73989
4.73985
4.73985
4.73991
4.74
4.74012
4.74028
4.74034
4.74032
4.74028
4.74021
4.74012
4.74003
4.73999
4.73999
4.74
4.74002
4.74005
4.74006
4.74005
4.74002
4.74
4.73997
4.73995
4.73995
4.73996
4.74
4.74004
4.7401
4.74015
4.74017
4.74018
4.74019
4.74018
4.74014
4.74011
4.74008
4.74006
4.74004
4.74005
4.74011
4.74035
4.74051
4.74036
4.73954
4.73725
4.73303
4.72714
4.72013
4.71274
4.70537
4.69844
4.69196
4.68614
4.68269
4.6822
4.68229
4.68253
4.6829
4.68274
4.68237
4.68191
4.68206
4.68258
4.68301
4.68313
4.68325
4.68346
4.68391
4.68496
4.68725
4.69151
4.69755
4.70382
4.7088
4.71238
4.71515
4.71748
4.71957
4.72148
4.72323
4.72483
4.72626
4.7275
4.72854
4.72937
4.73003
4.73054
4.73093