/*--------------------------------*- C++ -*----------------------------------*\
| =========                 |                                                 |
| \\      /  F ield         | OpenFOAM: The Open Source CFD Toolbox           |
|  \\    /   O peration     | Version:  2406                                  |
|   \\  /    A nd           | Website:  www.openfoam.com                      |
|    \\/     M anipulation  |                                                 |
\*---------------------------------------------------------------------------*/
FoamFile
{
    version     2.0;
    format      ascii;
    arch        "LSB;label=32;scalar=64";
    class       volVectorField;
    location    "0.06";
    object      U;
}
// * * * * * * * * * * * * * * * * * * * * * * * * * * * * * * * * * * * * * //

dimensions      [0 1 -1 0 0 0 0];

internalField   nonuniform List<vector> 
83682
(
(347.059 -2.90981e-11 -2.76469e-11)
(347.059 -2.73095e-11 -3.01916e-11)
(347.059 -2.79284e-11 -2.85005e-11)
(347.059 -2.36273e-11 -2.96029e-11)
(347.059 -1.58559e-11 -3.19844e-11)
(347.059 -5.82852e-12 -3.2386e-11)
(347.059 1.47477e-12 -3.3005e-11)
(347.059 9.72552e-12 -3.37493e-11)
(347.059 2.16144e-11 -3.35233e-11)
(347.059 4.02098e-11 -3.55305e-11)
(347.059 3.58998e-11 -3.53702e-11)
(347.059 2.62663e-11 -3.53045e-11)
(347.059 1.7111e-11 -3.56596e-11)
(347.059 9.5344e-12 -3.41778e-11)
(347.059 8.85074e-12 -3.14957e-11)
(347.059 1.13587e-11 -2.91899e-11)
(347.059 1.84962e-11 -2.70759e-11)
(347.059 2.4013e-11 -2.75709e-11)
(347.059 2.71379e-11 -2.3697e-11)
(347.059 2.18089e-11 -2.21678e-11)
(347.059 9.71968e-12 -2.02676e-11)
(347.059 1.497e-12 -2.06725e-11)
(347.059 -5.13348e-12 -1.78218e-11)
(347.059 -1.09599e-11 -2.04704e-11)
(347.059 -1.27673e-11 -1.91469e-11)
(347.059 -1.04545e-11 -1.81775e-11)
(347.059 -6.03153e-12 -1.76711e-11)
(347.059 -2.03746e-12 -1.76859e-11)
(347.059 1.01261e-11 -1.81878e-11)
(347.059 8.38205e-10 -5.22746e-11)
(347.048 -5.03024e-08 2.10071e-09)
(346.77 1.49433e-06 -6.45306e-08)
(341.298 -1.87391e-05 8.13834e-07)
(322.877 2.35524e-06 -1.23596e-07)
(318.325 2.77814e-05 -1.23151e-06)
(318.312 1.39172e-05 -6.00858e-07)
(318.304 -3.78497e-06 1.83393e-07)
(318.296 -9.3948e-06 4.25766e-07)
(318.291 -1.4901e-05 6.57466e-07)
(318.292 -1.27813e-05 5.5581e-07)
(318.304 -3.42623e-06 1.5267e-07)
(318.306 5.45409e-06 -2.27689e-07)
(318.292 6.90304e-06 -2.96524e-07)
(318.281 1.28743e-05 -5.62319e-07)
(318.267 2.0039e-05 -8.79125e-07)
(318.251 1.09764e-05 -4.92741e-07)
(318.241 -4.97141e-06 1.93472e-07)
(318.258 -9.36798e-06 3.88293e-07)
(318.27 -1.15014e-05 4.86401e-07)
(318.284 -1.35081e-05 5.80396e-07)
(318.295 -1.31434e-05 5.73357e-07)
(318.304 -1.29724e-05 5.69098e-07)
(318.311 -1.22727e-07 2.36569e-08)
(318.307 5.11751e-06 -2.04259e-07)
(318.309 5.4636e-06 -2.22098e-07)
(318.312 4.63092e-06 -1.89306e-07)
(318.317 2.92601e-06 -1.182e-07)
(318.322 -1.24486e-07 8.52672e-09)
(318.327 -3.3484e-06 1.47066e-07)
(318.338 -3.65135e-06 1.62823e-07)
(318.341 -2.94466e-06 1.33321e-07)
(318.344 -9.80663e-07 4.94153e-08)
(318.345 3.06325e-06 -1.28116e-07)
(318.349 8.20111e-06 -3.58117e-07)
(318.35 9.89117e-06 -4.38505e-07)
(318.345 8.84556e-06 -3.98062e-07)
(318.344 6.93414e-06 -3.13432e-07)
(318.342 3.73563e-06 -1.73853e-07)
(318.338 -2.67944e-06 9.80283e-08)
(318.332 -1.13473e-05 4.65302e-07)
(318.323 -1.31948e-05 5.5659e-07)
(318.315 -8.8509e-06 3.95739e-07)
(318.311 -6.82807e-06 3.17304e-07)
(318.308 -3.50984e-06 1.72925e-07)
(318.306 5.85201e-07 -9.42904e-09)
(318.305 4.50526e-06 -1.93598e-07)
(318.308 6.27406e-06 -2.65665e-07)
(318.313 5.86674e-06 -2.29743e-07)
(318.314 5.08402e-06 -1.89769e-07)
(318.314 3.17897e-06 -1.02703e-07)
(318.313 1.03317e-06 -3.034e-08)
(318.31 2.22479e-07 -3.51051e-08)
(318.308 3.77332e-07 -5.84706e-08)
(318.307 9.1484e-07 -7.97688e-08)
(318.307 2.96402e-06 -1.62936e-07)
(318.309 5.98081e-06 -2.83348e-07)
(318.312 6.91871e-06 -3.2945e-07)
(318.317 4.38154e-06 -2.60424e-07)
(318.323 1.39235e-06 -1.53154e-07)
(318.326 1.3541e-07 -9.54402e-08)
(318.328 -2.21847e-06 2.15935e-08)
(318.329 -4.466e-06 1.41335e-07)
(318.329 -4.95508e-06 1.73029e-07)
(318.328 -4.26436e-06 1.20987e-07)
(318.324 -2.11353e-06 2.58682e-08)
(318.321 -4.00092e-07 -3.10093e-08)
(318.319 2.16075e-06 -1.02742e-07)
(318.317 2.41449e-06 -1.04349e-07)
(318.315 1.50761e-06 -6.18775e-08)
(318.315 -1.17257e-07 6.29422e-09)
(318.315 -2.60456e-06 1.1372e-07)
(318.317 -5.1456e-06 2.25755e-07)
(318.322 -7.26094e-06 3.19898e-07)
(318.327 -6.77866e-06 3.04185e-07)
(318.331 -4.96916e-06 2.35489e-07)
(318.334 -3.78351e-06 1.8737e-07)
(318.336 -1.67642e-06 9.91379e-08)
(318.336 5.60139e-07 1.18285e-08)
(318.332 8.9638e-07 -1.23759e-09)
(318.329 7.53372e-07 7.33974e-09)
(318.325 4.38871e-07 1.75986e-08)
(318.322 -9.49485e-07 7.87516e-08)
(318.32 -2.46115e-06 1.45717e-07)
(318.32 -2.65803e-06 1.38369e-07)
(318.322 -2.97453e-06 1.47005e-07)
(318.324 -7.5686e-07 4.0862e-08)
(318.324 6.37574e-07 -2.22544e-08)
(318.323 2.38184e-06 -1.01748e-07)
(318.321 4.90477e-06 -2.11634e-07)
(318.316 5.82988e-06 -2.50845e-07)
(318.312 6.71705e-06 -2.88109e-07)
(318.309 6.79958e-06 -2.92272e-07)
(318.306 6.02603e-06 -2.57627e-07)
(318.305 4.34825e-06 -1.82094e-07)
(318.307 2.59613e-06 -1.08198e-07)
(318.311 2.11274e-06 -8.97502e-08)
(318.315 4.34295e-07 -2.03094e-08)
(318.318 -8.28514e-07 8.26687e-09)
(318.321 -7.68147e-07 -1.69787e-09)
(318.324 -7.66302e-07 -2.90847e-10)
(318.327 -9.38957e-07 1.13946e-08)
(318.327 -1.45987e-06 2.97727e-08)
(318.327 -1.79062e-06 4.69962e-08)
(318.328 -2.15153e-06 6.25419e-08)
(318.329 -1.73312e-06 3.94354e-08)
(318.328 -1.75546e-06 3.79501e-08)
(318.328 -1.66887e-06 3.13487e-08)
(318.328 -1.59282e-06 1.06634e-08)
(318.326 -5.99129e-07 -3.67022e-08)
(318.325 8.23755e-07 -9.78288e-08)
(318.324 9.2154e-07 -9.91073e-08)
(318.324 7.70289e-07 -8.79811e-08)
(318.323 6.5887e-07 -8.37733e-08)
(318.322 7.47564e-07 -8.57961e-08)
(318.32 8.54917e-07 -7.77974e-08)
(318.319 7.4895e-07 -6.53163e-08)
(318.317 8.58576e-08 -4.3943e-08)
(318.316 -7.87721e-07 -2.77463e-08)
(318.317 -1.47053e-06 -1.69152e-08)
(318.319 -2.51416e-06 -2.15697e-09)
(318.321 -3.38074e-06 1.00928e-08)
(318.324 -4.71706e-06 1.53011e-08)
(318.327 -3.84595e-06 -1.99097e-08)
(318.329 -2.76573e-06 -7.53207e-08)
(318.328 -4.2064e-06 2.66364e-09)
(318.327 2.85362e-06 -3.38342e-07)
(318.325 -1.15316e-05 4.77235e-07)
(318.323 2.0082e-05 -1.30247e-06)
(318.322 -2.26812e-05 1.03581e-06)
(318.322 1.49932e-05 -7.95304e-07)
(318.322 3.10921e-07 -4.07676e-07)
(318.323 -1.30746e-06 2.32448e-07)
(318.323 -1.04266e-05 3.62373e-08)
(318.322 6.14054e-06 -2.3415e-07)
(318.316 -3.74076e-05 1.37387e-06)
(318.298 9.98566e-05 -3.64748e-06)
(318.285 4.65178e-06 -7.81336e-07)
(318.292 1.84533e-05 -8.8181e-07)
(318.344 -9.4049e-05 1.87349e-06)
(318.494 -0.000166121 6.82474e-06)
(318.772 -0.000174854 4.03783e-06)
(319.165 -9.10585e-05 8.31953e-06)
(319.631 -0.000303011 1.26961e-05)
(320.127 0.00103533 -4.19718e-05)
(320.621 -1.22958e-05 5.89113e-06)
(321.087 0.00176243 -6.06195e-05)
(321.514 0.00274601 -0.000112437)
(321.885 0.00103787 -7.20368e-05)
(322.113 -0.00580151 0.000156056)
(322.166 -0.00639919 0.000250354)
(322.164 -0.00417341 0.000215582)
(322.154 -0.000279595 4.33667e-05)
(322.132 0.00407767 3.73793e-05)
(322.132 0.00818939 -0.000223888)
(322.136 0.00780432 -0.000282276)
(322.145 0.00467305 -0.000209875)
(322.132 -0.00200549 -4.15105e-05)
(322.118 -0.00320336 6.42775e-05)
(322.099 -0.00325828 0.000107528)
(322.082 -0.00292086 0.000122692)
(322.071 -0.00286877 0.000142607)
(322.058 -0.00284337 0.000157328)
(322.029 -0.00272256 0.000192933)
(321.962 -0.0026723 6.79045e-05)
(321.812 -0.00184655 0.000294196)
(321.534 -0.00250681 6.62718e-05)
(321.139 -0.00163678 -0.000145726)
(320.729 -0.000440185 0.000438589)
(320.404 -0.00136375 0.000409143)
(320.171 -0.00138229 6.4527e-05)
(319.991 -0.000863853 -5.91447e-05)
(319.835 -0.000521714 2.32319e-05)
(319.693 -0.000330196 0.000147354)
(319.563 -0.000411765 0.000271249)
(319.443 -0.000877601 5.44665e-05)
(319.334 -0.00104409 -0.000202405)
(319.237 -0.000774955 -0.000245682)
(319.153 -0.000437932 -2.30919e-06)
(319.083 -0.000469405 0.000170994)
(319.025 -0.000752387 7.73758e-05)
(318.98 -0.000806845 -5.65891e-05)
(318.944 -0.000529823 -0.00013145)
(318.917 -5.10328e-05 -9.55699e-05)
(318.897 8.67466e-05 -5.35968e-05)
(318.882 1.29485e-05 -3.41462e-05)
(318.87 -0.000202621 -3.82055e-05)
(318.859 -0.000365548 -5.89885e-05)
(318.849 -0.000353428 -7.95555e-05)
(318.841 -0.000227122 -9.5466e-05)
(318.832 -7.87579e-05 -0.000108676)
(318.824 5.87349e-05 -0.000120953)
(318.814 0.000171631 -0.000127468)
(318.802 0.000230537 -0.000123081)
(318.789 0.000251627 -0.000115089)
(318.776 0.000230402 -9.85956e-05)
(318.762 0.000101927 -8.46334e-05)
(318.747 -0.000110815 -7.84265e-05)
(318.731 -0.000333129 -7.22234e-05)
(318.715 -0.000477561 -6.01945e-05)
(318.701 -0.000495424 -4.1466e-05)
(318.689 -0.000420526 -1.68487e-05)
(318.682 -0.000225796 3.03318e-06)
(318.678 4.74744e-05 1.91222e-06)
(318.675 0.00022833 -1.34337e-05)
(318.674 0.000263732 -2.42269e-05)
(318.673 0.000237872 -2.9934e-05)
(318.673 0.000121067 -3.06139e-05)
(318.672 -7.29312e-05 -1.77317e-05)
(318.672 -0.000237338 3.41224e-06)
(318.673 -0.000290347 2.04047e-05)
(318.673 -0.000230021 2.93915e-05)
(318.673 -8.4448e-05 2.1823e-05)
(318.672 7.58203e-05 2.09921e-06)
(318.671 0.000187345 -2.26876e-05)
(318.669 0.000207175 -4.44896e-05)
(318.665 0.000151778 -5.97387e-05)
(318.661 5.03195e-05 -6.85327e-05)
(318.656 -5.61351e-05 -6.78539e-05)
(318.65 -0.000138624 -5.95122e-05)
(318.644 -0.000201891 -4.18285e-05)
(318.637 -0.000195361 -1.9824e-05)
(318.631 -0.000114207 -8.2087e-07)
(318.626 1.46486e-05 1.1722e-05)
(318.621 0.000140214 1.68941e-05)
(318.617 0.000210343 1.64038e-05)
(318.613 0.000199824 1.44921e-05)
(318.612 0.000139514 1.44637e-05)
(318.612 9.41292e-05 1.52114e-05)
(318.611 2.14876e-06 1.62107e-05)
(318.609 -9.30197e-05 1.84025e-05)
(318.609 -0.000148548 2.18444e-05)
(318.609 -0.00014438 2.70581e-05)
(318.609 -9.70623e-05 3.37062e-05)
(318.611 -2.39996e-05 4.06866e-05)
(318.613 4.43102e-05 4.67347e-05)
(318.613 8.26812e-05 5.1633e-05)
(318.61 9.11117e-05 5.40567e-05)
(318.607 8.72041e-05 5.43257e-05)
(318.603 5.06535e-05 5.10246e-05)
(318.598 2.02059e-07 4.75644e-05)
(318.593 -3.63564e-05 4.22883e-05)
(318.587 -5.79552e-05 3.69082e-05)
(318.581 -5.96467e-05 3.48293e-05)
(318.576 -4.36515e-05 3.7028e-05)
(318.57 -1.28312e-05 4.29586e-05)
(318.564 2.26778e-05 5.1336e-05)
(318.558 4.95865e-05 6.24123e-05)
(318.554 6.02498e-05 7.45177e-05)
(318.549 5.66946e-05 8.51489e-05)
(318.545 4.17584e-05 9.14724e-05)
(318.542 3.19043e-05 9.22763e-05)
(318.541 1.30422e-05 8.97542e-05)
(318.539 -1.10747e-05 8.04767e-05)
(318.537 -1.75971e-05 6.64231e-05)
(318.535 -1.47485e-05 4.87652e-05)
(318.533 -1.19617e-05 2.98557e-05)
(318.533 -2.33422e-06 1.34931e-05)
(318.533 6.29965e-06 2.123e-06)
(318.531 6.06171e-06 -2.1666e-06)
(318.53 1.59347e-06 -2.30647e-06)
(318.528 -3.19885e-07 1.87586e-06)
(318.526 -1.02659e-05 1.16877e-05)
(318.523 -2.76804e-05 2.11691e-05)
(318.521 -1.74265e-05 3.03963e-05)
(318.518 3.39094e-06 3.47692e-05)
(318.514 -4.74644e-07 3.11405e-05)
(318.511 -1.03425e-05 2.23386e-05)
(318.508 2.34268e-05 8.4874e-06)
(318.506 4.8062e-05 -1.21482e-05)
(318.504 4.66482e-05 -3.54507e-05)
(318.501 3.57336e-05 -5.53332e-05)
(318.499 2.51505e-05 -6.81682e-05)
(318.498 1.10732e-05 -7.81665e-05)
(318.497 -1.06801e-05 -8.97396e-05)
(318.496 -2.36696e-05 -9.61862e-05)
(318.498 -4.08394e-05 -9.5518e-05)
(318.501 -5.10265e-05 -8.56351e-05)
(318.503 -5.7192e-05 -7.30084e-05)
(318.504 -6.13806e-05 -6.03596e-05)
(318.503 -6.00598e-05 -4.66354e-05)
(318.5 -3.89232e-05 -2.96428e-05)
(318.498 -2.69948e-05 -1.52457e-05)
(318.494 -4.99675e-06 -8.05457e-07)
(318.491 1.88659e-05 8.58413e-06)
(318.489 4.24484e-05 1.66293e-05)
(318.487 5.0038e-05 2.78623e-05)
(318.484 4.69949e-05 3.64129e-05)
(318.479 4.74962e-05 4.21022e-05)
(318.474 4.14556e-05 4.46864e-05)
(318.471 1.99447e-05 4.69844e-05)
(318.468 -2.61731e-06 4.7936e-05)
(318.466 -1.05669e-05 4.66392e-05)
(318.465 -9.68229e-06 3.6271e-05)
(318.465 -5.3303e-06 1.62468e-05)
(318.465 7.75205e-07 3.56599e-06)
(318.463 1.02407e-05 -1.00102e-05)
(318.462 2.09532e-05 -3.17839e-05)
(318.461 2.45771e-05 -5.71725e-05)
(318.461 3.49719e-05 -8.04176e-05)
(318.462 3.11727e-05 -9.64048e-05)
(318.463 3.11407e-06 -0.00010485)
(318.464 -7.49558e-06 -0.000108395)
(318.463 -1.07477e-05 -0.000108752)
(318.461 -1.3237e-05 -0.000107795)
(318.458 -8.09128e-06 -0.000104739)
(318.456 1.51463e-05 -0.000100555)
(318.454 9.99784e-06 -9.57014e-05)
(318.452 -1.58727e-05 -9.00653e-05)
(318.449 6.21232e-06 -8.74997e-05)
(318.448 2.63335e-05 -8.50454e-05)
(318.448 1.83523e-05 -8.14209e-05)
(318.45 1.06326e-06 -7.67767e-05)
(318.452 -8.6441e-06 -7.1431e-05)
(318.452 -9.78065e-06 -6.52198e-05)
(318.452 -3.25282e-06 -6.20293e-05)
(318.452 -6.46577e-06 -5.63059e-05)
(318.451 -3.30321e-05 -4.85154e-05)
(318.452 -3.38117e-05 -4.14122e-05)
(318.455 1.2503e-05 -3.66246e-05)
(318.459 3.50175e-05 -3.14998e-05)
(318.461 -8.62782e-06 -2.51875e-05)
(318.463 -3.12198e-05 -2.17045e-05)
(318.465 -3.43324e-05 -1.97293e-05)
(318.465 -2.31091e-05 -2.04953e-05)
(318.464 -2.08265e-05 -2.13118e-05)
(318.463 -3.43589e-05 -2.10831e-05)
(318.463 -4.18509e-05 -2.19705e-05)
(318.464 -1.21197e-05 -2.50559e-05)
(318.463 3.77428e-05 -2.82589e-05)
(318.46 1.3374e-05 -2.88939e-05)
(318.457 -2.72788e-05 -2.7377e-05)
(318.453 -1.44066e-05 -2.7003e-05)
(318.449 1.47896e-05 -2.79271e-05)
(318.445 2.85498e-05 -2.78273e-05)
(318.442 1.64487e-05 -2.61043e-05)
(318.441 7.14858e-06 -2.51155e-05)
(318.441 1.73038e-05 -2.50451e-05)
(318.44 2.91547e-05 -2.43762e-05)
(318.439 1.06966e-05 -2.3263e-05)
(318.439 -1.8073e-05 -2.14095e-05)
(318.44 2.00662e-05 -2.21779e-05)
(318.44 6.05106e-05 -2.31371e-05)
(318.44 2.85678e-05 -2.02535e-05)
(318.442 -8.00719e-06 -1.58804e-05)
(318.443 1.32653e-05 -1.57258e-05)
(318.442 2.31176e-05 -1.47053e-05)
(318.438 2.04955e-06 -1.21177e-05)
(318.436 -4.48148e-06 -1.13974e-05)
(318.434 7.38002e-06 -1.08901e-05)
(318.432 3.02111e-05 -9.52483e-06)
(318.428 -3.97179e-05 -4.62203e-06)
(318.425 -0.000105857 1.44997e-06)
(318.422 -2.91859e-08 3.38761e-07)
(318.419 9.66393e-05 -2.60571e-06)
(318.415 -5.81499e-06 2.67066e-06)
(318.408 -0.000109437 7.29748e-06)
(318.403 1.03106e-05 3.2954e-06)
(318.4 3.59175e-05 3.66034e-06)
(318.398 1.64475e-05 4.18559e-06)
(318.395 1.81019e-05 1.57064e-06)
(318.395 5.14577e-05 -3.10787e-07)
(318.395 -7.32134e-05 8.16767e-06)
(318.394 -0.000201205 1.7933e-05)
(318.391 -4.5144e-05 1.97684e-05)
(318.392 0.000192912 2.03277e-05)
(318.393 3.48809e-05 3.80136e-05)
(318.394 -0.000128768 5.46825e-05)
(318.393 -5.5762e-05 6.10303e-05)
(318.394 -2.14848e-05 6.65131e-05)
(318.401 -9.23228e-06 7.32455e-05)
(318.405 -5.15435e-05 9.57341e-05)
(318.405 6.1841e-05 0.000102869)
(318.404 7.02952e-05 0.000113022)
(318.405 -6.547e-05 0.000123302)
(318.403 -0.000429291 0.000125853)
(318.401 -0.0003853 0.000120484)
(318.398 5.47605e-05 7.33783e-05)
(318.398 0.000430266 5.43584e-05)
(318.399 0.000505716 7.26312e-05)
(318.398 0.000548549 8.88975e-05)
(318.395 0.000509656 8.58026e-05)
(318.394 0.000376609 8.35575e-05)
(318.393 6.28297e-05 8.22128e-05)
(318.392 -0.00028658 4.45135e-05)
(318.39 -0.000671703 2.49862e-05)
(318.392 -0.00114705 7.15472e-05)
(318.395 -0.00134042 0.000158513)
(318.395 -0.00137455 0.000247501)
(318.394 -0.0014393 0.000280081)
(318.393 -0.00161043 0.000285059)
(318.395 -0.00145818 0.000229911)
(318.394 -0.00125709 7.50961e-05)
(318.396 -0.000991007 -0.000261281)
(318.393 -0.000832315 -0.000750252)
(318.396 -0.000777314 -0.00127708)
(318.394 -0.00111092 -0.00152525)
(318.392 -0.00360186 -0.00103801)
(318.389 -0.00796832 0.000481438)
(318.391 -0.0131604 0.00319901)
(318.39 -0.0222768 0.00647383)
(318.395 -0.036583 0.00887551)
(318.402 -0.0539158 0.00870078)
(318.417 -0.0743659 0.00535001)
(318.435 -0.100853 -0.000922031)
(318.463 -0.130639 -0.00795795)
(318.491 -0.155682 -0.0127737)
(318.526 -0.181305 -0.0156318)
(318.565 -0.193574 -0.0140924)
(318.602 -0.199297 -0.00979237)
(318.645 -0.175924 -0.00149882)
(318.676 -0.136704 0.0063665)
(318.711 -0.0873069 0.00792747)
(318.731 -0.00396785 0.000664423)
(318.732 0.104296 -0.0162043)
(318.715 0.209277 -0.0354416)
(318.685 0.303348 -0.0433233)
(318.636 0.377726 -0.0304571)
(318.553 0.402463 0.000963042)
(318.464 0.354755 0.0353333)
(318.447 0.266196 0.0451761)
(318.204 0.166467 0.0294957)
(317.994 0.0855602 0.0129416)
(318.316 0.0485144 0.0066497)
(318.362 0.0425502 0.0057602)
(318.31 0.0377458 0.00516313)
(318.23 0.0326653 0.00451332)
(318.164 0.02905 0.00406263)
(318.128 0.0269622 0.00388077)
(318.1 0.0219601 0.00351914)
(318.088 0.0154943 0.00309538)
(318.095 0.0101524 0.00277299)
(318.128 0.0067291 0.00257535)
(318.197 0.00460667 0.00245322)
(318.26 0.00308495 0.0023382)
(318.263 0.00230013 0.00224391)
(318.254 0.00170606 0.00214566)
(318.232 0.000967895 0.0020174)
(318.192 0.000417232 0.00190604)
(318.144 4.72942e-05 0.00180646)
(318.107 -0.000211419 0.00169908)
(318.104 -0.000387121 0.00159753)
(318.121 -0.000481328 0.00152832)
(318.146 -0.000586749 0.00141195)
(318.182 -0.000627193 0.00129059)
(318.217 -0.000629823 0.00116325)
(318.227 -0.000615178 0.00105196)
(318.225 -0.00059819 0.000969914)
(318.213 -0.000572649 0.000855139)
(318.182 -0.00054785 0.00074285)
(318.142 -0.000518224 0.000632784)
(318.118 -0.00047498 0.00052744)
(318.112 -0.000438223 0.000458984)
(318.114 -0.000398976 0.000380551)
(318.127 -0.000340389 0.000277474)
(318.151 -0.000251378 0.000186885)
(318.175 -0.000143445 0.000107783)
(318.181 -8.14211e-05 5.00111e-05)
(318.181 -5.77906e-05 6.4855e-06)
(318.174 -4.40506e-05 -5.29097e-05)
(318.158 -5.04418e-05 -0.000105299)
(318.135 -7.99403e-05 -0.000148605)
(318.117 -0.00014077 -0.000184648)
(318.113 -0.000210455 -0.000209046)
(318.116 -0.000267697 -0.000224362)
(318.125 -0.000357207 -0.000243622)
(318.141 -0.0004187 -0.000263659)
(318.16 -0.000399422 -0.000291141)
(318.171 -0.000274151 -0.000329617)
(318.172 -9.78433e-05 -0.000372501)
(318.169 9.80573e-05 -0.00041256)
(318.162 0.000467538 -0.000475582)
(318.149 0.000966791 -0.000549139)
(318.135 0.00156804 -0.000617886)
(318.129 0.00213679 -0.00065841)
(318.129 0.00247315 -0.000668283)
(318.131 0.0029057 -0.00065122)
(318.138 0.00317927 -0.000590677)
(318.147 0.00310038 -0.000482681)
(318.151 0.00254495 -0.000354957)
(318.152 0.00186298 -0.000280789)
(318.151 0.000214394 -0.000221279)
(318.146 -0.00245428 -0.000208616)
(318.136 -0.00596625 -0.00025686)
(318.126 -0.0101564 -0.000434241)
(318.124 -0.0137545 -0.000683522)
(318.126 -0.0154927 -0.000858162)
(318.13 -0.0172715 -0.0010089)
(318.139 -0.0180005 -0.00127184)
(318.15 -0.0172824 -0.00140371)
(318.161 -0.0147899 -0.0012749)
(318.168 -0.010577 -0.00100149)
(318.169 -0.00551367 -0.000412239)
(318.165 0.000112772 0.000772475)
(318.159 0.00690957 0.00270491)
(318.153 0.0126033 0.0046579)
(318.147 0.0161854 0.00621402)
(318.142 0.0188482 0.00787931)
(318.137 0.0209711 0.0097033)
(318.135 0.0220247 0.0114706)
(318.135 0.0208014 0.01273)
(318.135 0.0172103 0.0134824)
(318.135 0.0101087 0.0136454)
(318.134 0.00591143 0.0129206)
(318.132 -0.000615681 0.0122328)
(318.122 -0.00229309 0.0120888)
(318.114 -0.00314499 0.0121367)
(318.109 -0.00399359 0.0122779)
(318.106 -0.00448175 0.0125703)
(318.106 -0.00482611 0.0129381)
(318.106 -0.00505433 0.0132649)
(318.107 -0.00502941 0.0134419)
(318.108 -0.0045892 0.0133152)
(318.108 -0.00366452 0.012561)
(318.105 -0.0023821 0.0111479)
(318.101 -0.00111152 0.00892619)
(318.095 4.25018e-05 0.00701202)
(318.087 0.000911117 0.00536525)
(318.08 0.00130679 0.00403057)
(318.072 0.00142421 0.00324549)
(318.07 0.00142355 0.00286447)
(318.072 0.00139642 0.00274539)
(318.075 0.00132496 0.00257345)
(318.078 0.00117937 0.00232759)
(318.08 0.00102341 0.00212656)
(318.081 0.000905781 0.00199518)
(318.081 0.000723881 0.00180264)
(318.079 0.000542854 0.00161285)
(318.076 0.000389212 0.00144648)
(318.073 0.00025931 0.00130105)
(318.072 0.000164268 0.00118436)
(318.074 0.000116267 0.00112279)
(318.077 4.11377e-05 0.00102671)
(318.08 -2.5396e-05 0.000935778)
(318.083 -6.92897e-05 0.000860944)
(318.086 -9.30135e-05 0.000795063)
(318.087 -0.000100091 0.000753991)
(318.087 -0.00010057 0.000712888)
(318.086 -9.25756e-05 0.000659794)
(318.083 -7.81119e-05 0.000604504)
(318.078 -6.22471e-05 0.00054487)
(318.075 -4.87548e-05 0.000480381)
(318.074 -3.91156e-05 0.000414916)
(318.075 -3.40604e-05 0.000368244)
(318.077 -2.99201e-05 0.000322824)
(318.078 -2.5004e-05 0.000265601)
(318.08 -2.08524e-05 0.000223978)
(318.081 -1.68711e-05 0.000194832)
(318.081 -1.17269e-05 0.00016372)
(318.081 -7.78272e-06 0.000138364)
(318.079 -5.58963e-06 0.000118312)
(318.078 -6.01239e-06 0.000102582)
(318.078 -7.20934e-06 9.45317e-05)
(318.079 -9.78316e-06 8.59679e-05)
(318.08 -1.55651e-05 7.72354e-05)
(318.082 -2.39054e-05 7.07464e-05)
(318.085 -3.57472e-05 6.55079e-05)
(318.089 -4.8217e-05 6.23817e-05)
(318.091 -5.96004e-05 6.01817e-05)
(318.091 -6.294e-05 5.99773e-05)
(318.092 -6.03375e-05 6.11081e-05)
(318.091 -5.00015e-05 6.28482e-05)
(318.09 -3.21588e-05 6.3799e-05)
(318.089 -1.15312e-05 6.35426e-05)
(318.088 2.40251e-06 6.13005e-05)
(318.087 3.83357e-06 5.62761e-05)
(318.086 -4.01136e-06 5.04576e-05)
(318.086 -1.35308e-05 4.56807e-05)
(318.086 -2.0188e-05 4.23505e-05)
(318.086 -2.29471e-05 3.97213e-05)
(318.086 -2.20359e-05 3.71264e-05)
(318.084 -1.65194e-05 3.41674e-05)
(318.082 -6.84562e-06 3.06075e-05)
(318.078 3.99647e-06 2.61834e-05)
(318.074 1.2508e-05 2.12326e-05)
(318.071 1.79386e-05 1.71569e-05)
(318.07 1.71266e-05 1.51907e-05)
(318.07 1.38189e-05 1.46626e-05)
(318.07 6.18374e-06 1.40287e-05)
(318.07 -5.30019e-06 1.23862e-05)
(318.07 -9.82809e-06 1.12419e-05)
(318.07 -1.26381e-05 9.85385e-06)
(318.07 -6.84618e-06 8.37075e-06)
(318.069 4.96501e-06 6.34259e-06)
(318.067 2.35664e-05 5.00284e-06)
(318.065 3.90835e-05 6.66676e-06)
(318.063 4.66431e-05 1.17314e-05)
(318.061 4.97192e-05 1.84433e-05)
(318.06 4.76786e-05 2.18932e-05)
(318.059 4.02694e-05 2.00525e-05)
(318.058 2.90199e-05 1.59837e-05)
(318.058 1.49053e-05 1.14843e-05)
(318.057 -3.43831e-07 7.61024e-06)
(318.055 -1.37727e-05 5.59593e-06)
(318.053 -2.34545e-05 4.96842e-06)
(318.049 -2.97452e-05 5.02108e-06)
(318.045 -3.14916e-05 5.97759e-06)
(318.039 -2.88325e-05 6.45351e-06)
(318.034 -2.45428e-05 7.26385e-06)
(318.029 -2.08786e-05 7.22126e-06)
(318.025 -2.14723e-05 7.2173e-06)
(318.022 -2.21336e-05 7.16476e-06)
(318.02 -2.59291e-05 1.00178e-05)
(318.017 -2.39235e-05 9.14096e-06)
(318.015 -2.71624e-05 1.22609e-05)
(318.013 -1.95571e-05 8.23299e-06)
(318.01 -2.40353e-05 1.19643e-05)
(318.007 -4.92216e-06 5.24568e-06)
(318.004 -9.72627e-06 9.47896e-06)
(318.002 1.69587e-05 -1.25844e-06)
(318.001 3.57473e-06 2.89996e-06)
(318.001 2.21373e-05 -4.31279e-06)
(318.001 4.95491e-06 -4.69753e-08)
(318.001 2.14811e-05 -3.21843e-07)
(318 6.09562e-07 1.65796e-06)
(317.999 1.91066e-05 2.16692e-06)
(317.998 -5.66177e-06 -2.38604e-07)
(317.997 1.24378e-06 -1.31967e-06)
(317.995 -1.90106e-06 -4.60082e-06)
(317.993 -2.49719e-05 -6.00595e-06)
(317.99 9.31109e-06 -7.61751e-06)
(317.987 -2.82418e-05 -1.30896e-05)
(317.984 -8.80575e-06 -1.34841e-05)
(317.982 1.10453e-06 -1.86307e-05)
(317.98 -3.43126e-05 -2.19679e-05)
(317.978 1.29868e-05 -1.74645e-05)
(317.976 -8.26835e-06 -2.65314e-05)
(317.974 -1.89534e-05 -2.62664e-05)
(317.971 2.94123e-05 -2.50683e-05)
(317.967 -2.04679e-05 -4.37783e-05)
(317.963 -1.05729e-05 -4.17194e-05)
(317.959 1.47678e-05 -4.49735e-05)
(317.954 -2.84597e-05 -5.42899e-05)
(317.95 -2.00109e-05 -4.9376e-05)
(317.947 -1.66375e-06 -5.25245e-05)
(317.944 -2.86131e-05 -5.79869e-05)
(317.943 -2.4562e-05 -5.74173e-05)
(317.942 -7.70272e-06 -6.21641e-05)
(317.939 -1.36212e-05 -6.83637e-05)
(317.934 -1.7712e-05 -6.87048e-05)
(317.927 -4.89608e-06 -7.01599e-05)
(317.915 -5.39041e-06 -7.3662e-05)
(317.903 -1.75216e-05 -7.14883e-05)
(317.893 1.92258e-06 -7.02844e-05)
(317.922 7.12165e-06 -7.00995e-05)
(318.223 0.000387222 -8.01909e-05)
(319.37 -0.00390093 2.55184e-06)
(321.637 0.0131315 -0.000259404)
(324.723 -0.0204801 0.000212045)
(328.278 0.0198457 -0.000915603)
(332.054 -0.0159217 0.00176325)
(335.99 0.0214523 -0.00184046)
(339.989 -0.0194054 -0.000601607)
(344.081 0.0195107 0.00105553)
(348.192 -0.0106784 0.00170792)
(352.376 0.0181244 -0.00444011)
(356.558 -0.0194148 0.00019559)
(360.8 0.0157375 0.00442429)
(365.021 -0.017384 -0.000750587)
(369.296 0.0197778 -0.00619202)
(373.532 -0.0203112 0.003507)
(377.822 0.0121876 0.00345251)
(382.06 -0.0059786 -0.0019815)
(386.398 0.0111358 -0.00241885)
(391.056 -0.0140762 0.000250609)
(398.709 -0.0211868 0.00119095)
(347.059 -2.43337e-11 -2.78227e-11)
(347.059 -2.20458e-11 -3.16381e-11)
(347.059 -2.42934e-11 -3.0727e-11)
(347.059 -2.27413e-11 -3.18149e-11)
(347.059 -1.16571e-11 -3.20176e-11)
(347.059 -3.11044e-13 -3.15671e-11)
(347.059 8.41201e-12 -3.46879e-11)
(347.059 1.39753e-11 -3.20959e-11)
(347.059 2.09742e-11 -3.35695e-11)
(347.059 3.98497e-11 -3.58041e-11)
(347.059 3.37158e-11 -3.64675e-11)
(347.059 2.30526e-11 -3.64819e-11)
(347.059 1.18159e-11 -3.64364e-11)
(347.059 4.30821e-12 -3.50052e-11)
(347.059 5.54533e-12 -3.33965e-11)
(347.059 7.41281e-12 -3.01209e-11)
(347.059 1.42624e-11 -2.78779e-11)
(347.059 2.32968e-11 -2.49648e-11)
(347.059 2.87183e-11 -2.35392e-11)
(347.059 2.52434e-11 -2.28941e-11)
(347.059 1.53186e-11 -2.18103e-11)
(347.059 3.79774e-12 -2.30847e-11)
(347.059 -2.78567e-12 -1.8158e-11)
(347.059 -9.17618e-12 -1.92007e-11)
(347.059 -1.29482e-11 -1.90221e-11)
(347.059 -1.13314e-11 -1.89267e-11)
(347.059 -6.47483e-12 -1.90431e-11)
(347.059 -1.97063e-12 -1.90858e-11)
(347.059 8.68125e-12 -1.95926e-11)
(347.059 7.98696e-10 -5.28832e-11)
(347.048 -4.76846e-08 1.97951e-09)
(346.77 1.4153e-06 -6.06937e-08)
(341.298 -1.77537e-05 7.64766e-07)
(322.877 2.26417e-06 -1.14743e-07)
(318.325 2.63953e-05 -1.15717e-06)
(318.312 1.31074e-05 -5.61259e-07)
(318.304 -3.77567e-06 1.78608e-07)
(318.296 -9.06289e-06 4.05631e-07)
(318.291 -1.42186e-05 6.21567e-07)
(318.292 -1.2182e-05 5.24733e-07)
(318.304 -3.36585e-06 1.45322e-07)
(318.306 4.89185e-06 -2.06518e-07)
(318.292 6.30983e-06 -2.72302e-07)
(318.281 1.20069e-05 -5.22735e-07)
(318.267 1.87388e-05 -8.17949e-07)
(318.251 1.03707e-05 -4.59146e-07)
(318.241 -4.5942e-06 1.82946e-07)
(318.258 -8.77231e-06 3.66618e-07)
(318.27 -1.09035e-05 4.6317e-07)
(318.284 -1.28307e-05 5.52124e-07)
(318.295 -1.2484e-05 5.44794e-07)
(318.304 -1.23055e-05 5.39916e-07)
(318.311 -2.88535e-08 1.71226e-08)
(318.307 4.88366e-06 -1.98081e-07)
(318.309 5.11223e-06 -2.11166e-07)
(318.312 4.25062e-06 -1.77745e-07)
(318.317 2.80508e-06 -1.16485e-07)
(318.322 -4.42872e-07 1.86674e-08)
(318.327 -3.84163e-06 1.66429e-07)
(318.338 -4.12919e-06 1.82342e-07)
(318.341 -3.2027e-06 1.45371e-07)
(318.344 -1.16892e-06 6.15291e-08)
(318.345 2.88663e-06 -1.14101e-07)
(318.349 8.13617e-06 -3.51292e-07)
(318.35 1.01674e-05 -4.50917e-07)
(318.345 9.11876e-06 -4.12336e-07)
(318.344 7.13066e-06 -3.25828e-07)
(318.342 3.95627e-06 -1.87991e-07)
(318.338 -2.09497e-06 6.78353e-08)
(318.332 -1.06372e-05 4.32588e-07)
(318.323 -1.27711e-05 5.36247e-07)
(318.315 -8.47312e-06 3.74639e-07)
(318.311 -6.42059e-06 2.94831e-07)
(318.308 -3.13989e-06 1.53883e-07)
(318.306 7.33854e-07 -1.5297e-08)
(318.305 4.75218e-06 -1.99161e-07)
(318.308 6.71077e-06 -2.82027e-07)
(318.313 6.41357e-06 -2.54627e-07)
(318.314 5.67406e-06 -2.17575e-07)
(318.314 3.92628e-06 -1.38549e-07)
(318.313 1.90624e-06 -7.04385e-08)
(318.31 8.52395e-07 -5.40182e-08)
(318.308 6.35106e-07 -6.88641e-08)
(318.307 1.01151e-06 -8.44093e-08)
(318.307 2.74375e-06 -1.53331e-07)
(318.309 5.35086e-06 -2.53264e-07)
(318.312 6.11484e-06 -2.9158e-07)
(318.317 3.72593e-06 -2.32615e-07)
(318.323 9.18101e-07 -1.31517e-07)
(318.326 -2.5683e-07 -7.99314e-08)
(318.328 -2.51676e-06 3.76522e-08)
(318.329 -4.56738e-06 1.49514e-07)
(318.329 -4.98051e-06 1.73201e-07)
(318.328 -4.38747e-06 1.2238e-07)
(318.324 -2.26589e-06 2.78703e-08)
(318.321 -5.65954e-07 -2.90228e-08)
(318.319 2.04277e-06 -1.01508e-07)
(318.317 2.3893e-06 -1.06144e-07)
(318.315 1.60153e-06 -6.69827e-08)
(318.315 7.66286e-08 -2.38788e-09)
(318.315 -2.32078e-06 1.02195e-07)
(318.317 -4.82754e-06 2.1519e-07)
(318.322 -6.87994e-06 3.07483e-07)
(318.327 -6.36044e-06 2.92422e-07)
(318.331 -4.6618e-06 2.32635e-07)
(318.334 -3.68096e-06 1.976e-07)
(318.336 -1.81192e-06 1.19861e-07)
(318.336 2.27722e-07 3.92021e-08)
(318.332 4.82094e-07 2.42084e-08)
(318.329 2.72736e-07 2.70625e-08)
(318.325 -2.16697e-07 4.09594e-08)
(318.322 -1.55107e-06 1.00791e-07)
(318.32 -2.96323e-06 1.59027e-07)
(318.32 -3.1606e-06 1.49853e-07)
(318.322 -3.46399e-06 1.59706e-07)
(318.324 -1.25456e-06 5.26369e-08)
(318.324 2.6424e-07 -1.15618e-08)
(318.323 2.03694e-06 -8.91332e-08)
(318.321 4.58718e-06 -1.98081e-07)
(318.316 5.47797e-06 -2.35269e-07)
(318.312 6.30253e-06 -2.6946e-07)
(318.309 6.52519e-06 -2.78207e-07)
(318.306 5.95478e-06 -2.49439e-07)
(318.305 4.41876e-06 -1.79408e-07)
(318.307 2.7415e-06 -1.08971e-07)
(318.311 2.36169e-06 -9.54052e-08)
(318.315 6.44281e-07 -2.52439e-08)
(318.318 -6.15832e-07 -8.01811e-09)
(318.321 -3.50904e-07 -2.93661e-08)
(318.324 -4.20028e-07 -2.42238e-08)
(318.327 -7.7592e-07 -3.95658e-09)
(318.327 -1.43834e-06 2.06321e-08)
(318.327 -1.80329e-06 4.18352e-08)
(318.328 -2.25148e-06 6.22874e-08)
(318.329 -1.8962e-06 4.11933e-08)
(318.328 -1.98399e-06 4.69218e-08)
(318.328 -2.13218e-06 5.43023e-08)
(318.328 -2.15512e-06 3.45906e-08)
(318.326 -1.12619e-06 -1.57071e-08)
(318.325 3.34756e-07 -7.3212e-08)
(318.324 4.39124e-07 -7.48835e-08)
(318.324 3.75562e-07 -6.7891e-08)
(318.323 3.10021e-07 -6.61365e-08)
(318.322 4.60119e-07 -6.58415e-08)
(318.32 6.65046e-07 -5.49385e-08)
(318.319 6.55012e-07 -4.62386e-08)
(318.317 4.71549e-08 -3.38188e-08)
(318.316 -7.90103e-07 -2.35485e-08)
(318.317 -1.47139e-06 -1.53977e-08)
(318.319 -2.43962e-06 -4.454e-09)
(318.321 -3.30544e-06 6.21295e-09)
(318.324 -4.6383e-06 7.3332e-09)