/*--------------------------------*- C++ -*----------------------------------*\
| =========                 |                                                 |
| \\      /  F ield         | OpenFOAM: The Open Source CFD Toolbox           |
|  \\    /   O peration     | Version:  2406                                  |
|   \\  /    A nd           | Website:  www.openfoam.com                      |
|    \\/     M anipulation  |                                                 |
\*---------------------------------------------------------------------------*/
FoamFile
{
    version     2.0;
    format      ascii;
    arch        "LSB;label=32;scalar=64";
    class       volScalarField;
    location    "0.055";
    object      Ma;
}
// * * * * * * * * * * * * * * * * * * * * * * * * * * * * * * * * * * * * * //

dimensions      [0 0 0 0 0 0 0];

internalField   nonuniform List<scalar> 
13948
(
0.0749355
0.0292986
0.00470775
0.000141585
4.83248e-07
1.25389e-10
7.38448e-14
7.98712e-14
9.4385e-14
1.04568e-13
1.21892e-13
1.54595e-13
1.50762e-13
1.45408e-13
1.40994e-13
1.53047e-13
1.58052e-13
1.2703e-13
1.08321e-13
9.75603e-14
9.32358e-14
1.09894e-13
7.75342e-14
4.61867e-14
6.12598e-14
3.02206e-14
4.45278e-14
7.3729e-14
9.36697e-14
6.8014e-14
5.79444e-14
1.05183e-13
1.21701e-13
9.0843e-14
8.30133e-14
5.81884e-14
8.24804e-14
1.09826e-13
8.82957e-14
7.92404e-14
1.02659e-13
1.1531e-13
9.58008e-14
9.49567e-14
1.04969e-13
6.88454e-14
4.73362e-14
7.9014e-14
9.27058e-14
8.86086e-14
1.02514e-13
1.02452e-13
9.27776e-14
9.92935e-14
9.32771e-14
1.02921e-13
9.57309e-14
9.20237e-14
1.16691e-13
1.17747e-13
1.12967e-13
1.18596e-13
8.19742e-14
1.086e-13
9.58061e-14
5.83736e-14
6.79016e-14
3.9993e-14
6.15521e-14
5.51635e-14
2.79965e-14
3.33982e-14
5.99679e-14
7.00784e-14
8.07646e-14
1.07993e-13
1.2997e-13
1.17647e-13
9.31471e-14
7.48488e-14
8.13841e-14
9.84149e-14
1.22236e-13
1.27656e-13
1.03316e-13
8.77513e-14
5.90839e-14
4.12539e-14
4.62629e-14
2.47192e-14
1.12785e-14
3.45589e-14
6.34398e-14
8.02613e-14
1.01387e-13
8.30353e-14
1.51876e-13
2.22228e-13
2.04134e-13
0.0963591
0.0719148
0.0286257
0.00401368
0.000105665
3.24178e-07
7.7659e-11
7.60555e-14
7.01388e-14
9.03883e-14
1.02698e-13
1.20393e-13
1.45316e-13
1.48666e-13
1.45629e-13
1.33848e-13
1.48161e-13
1.50242e-13
1.20019e-13
1.03274e-13
9.94792e-14
1.00499e-13
1.0493e-13
7.38979e-14
4.02472e-14
4.83071e-14
2.06855e-14
3.52395e-14
6.92141e-14
8.62195e-14
6.55204e-14
4.90485e-14
9.61923e-14
1.22471e-13
1.01824e-13
8.23143e-14
5.4158e-14
8.62826e-14
1.07117e-13
8.97503e-14
7.17019e-14
1.02813e-13
1.08773e-13
9.0172e-14
1.00154e-13
8.76275e-14
5.84847e-14
5.42902e-14
8.08694e-14
8.67961e-14
8.69837e-14
9.06703e-14
1.01131e-13
8.99718e-14
8.83363e-14
9.82144e-14
9.10965e-14
9.05608e-14
9.28722e-14
1.02085e-13
9.25821e-14
9.47585e-14
1.01669e-13
8.15976e-14
8.39164e-14
8.46975e-14
5.37086e-14
6.70075e-14
3.81854e-14
6.12217e-14
4.54655e-14
2.59388e-14
3.18841e-14
5.44672e-14
6.30212e-14
7.40034e-14
1.04899e-13
1.23633e-13
1.04117e-13
8.53518e-14
7.44815e-14
8.58492e-14
8.88966e-14
1.16802e-13
1.22433e-13
1.04914e-13
8.57797e-14
5.83655e-14
3.93632e-14
4.7858e-14
3.3092e-14
1.10779e-14
3.05879e-14
5.37133e-14
7.47882e-14
9.48025e-14
8.63507e-14
1.30981e-13
1.94044e-13
1.88085e-13
0.000259491
0.00502272
0.0303005
0.0764327
0.113132
0.126168
0.123007
0.116907
0.102923
0.09251
0.0657663
0.0227333
0.00260008
5.56322e-05
1.40098e-07
2.81963e-11
7.052e-14
5.61166e-14
8.05792e-14
8.11049e-14
1.09534e-13
1.34881e-13
1.42358e-13
1.42136e-13
1.31629e-13
1.39879e-13
1.41584e-13
1.14991e-13
1.00622e-13
1.04401e-13
1.04063e-13
9.44923e-14
7.5921e-14
4.29791e-14
3.47029e-14
2.04942e-14
4.13163e-14
7.28609e-14
7.44036e-14
6.27165e-14
5.83237e-14
9.33298e-14
1.08133e-13
1.05952e-13
8.5746e-14
5.6149e-14
8.04371e-14
9.53154e-14
8.58384e-14
7.52388e-14
9.46192e-14
9.07103e-14
8.53829e-14
9.445e-14
8.14444e-14
5.95976e-14
6.74417e-14
6.95909e-14
8.98488e-14
8.87104e-14
8.78789e-14
1.03004e-13
9.48307e-14
8.42759e-14
9.05879e-14
8.46269e-14
9.16243e-14
9.98654e-14
9.18471e-14
9.0903e-14
8.01444e-14
8.24047e-14
6.8855e-14
5.23935e-14
5.93251e-14
4.29374e-14
3.8919e-14
2.54225e-14
3.12875e-14
3.78227e-14
2.73678e-14
2.69026e-14
5.85557e-14
6.351e-14
5.98524e-14
8.6929e-14
1.06981e-13
9.39141e-14
8.41515e-14
8.13929e-14
9.02972e-14
8.34673e-14
1.04755e-13
1.16827e-13
1.01103e-13
8.12906e-14
6.8174e-14
5.71376e-14
6.07927e-14
5.11027e-14
2.83055e-14
1.92442e-14
5.12591e-14
8.15545e-14
9.45304e-14
8.12191e-14
1.1571e-13
1.54195e-13
1.63777e-13
5.56321e-14
4.42753e-14
2.92287e-14
2.30701e-14
1.66878e-14
1.39927e-14
1.99366e-14
2.32046e-14
2.69976e-14
2.89318e-14
5.67904e-14
6.78628e-14
5.87987e-14
4.19077e-14
3.11352e-14
2.21686e-14
3.03811e-14
3.01077e-14
2.13526e-14
1.82169e-14
1.30835e-14
1.64251e-14
3.50537e-14
5.12038e-14
4.18552e-14
4.31344e-14
4.9075e-14
4.98659e-14
5.02761e-14
3.78337e-14
6.52843e-14
6.93942e-11
3.70039e-08
6.15132e-06
0.000306298
0.00457656
0.024173
0.0590835
0.0890894
0.101042
0.0985501
0.0877487
0.0783946
0.0505467
0.0147743
0.00129997
2.09156e-05
3.98309e-08
6.25772e-12
7.88128e-14
6.53334e-14
7.0453e-14
6.96784e-14
9.99884e-14
1.3222e-13
1.40633e-13
1.4579e-13
1.40282e-13
1.44935e-13
1.39017e-13
1.17362e-13
9.74356e-14
1.05405e-13
9.96652e-14
9.03707e-14
6.7933e-14
5.28846e-14
3.99837e-14
3.13912e-14
4.05672e-14
6.46468e-14
7.07273e-14
6.53929e-14
6.6043e-14
8.78246e-14
9.69781e-14
9.33585e-14
7.07929e-14
6.32374e-14
7.28121e-14
8.07231e-14
8.40839e-14
7.88302e-14
9.08495e-14
7.75911e-14
8.1874e-14
8.20378e-14
8.75201e-14
7.57899e-14
7.43602e-14
6.54583e-14
8.73696e-14
9.63017e-14
9.72011e-14
1.12154e-13
1.04022e-13
9.06203e-14
8.18471e-14
9.12709e-14
9.80877e-14
9.36944e-14
9.54408e-14
9.26305e-14
7.2946e-14
6.20871e-14
5.0845e-14
3.9088e-14
4.27294e-14
3.61548e-14
2.96289e-14
1.74412e-14
2.09843e-14
3.93765e-14
3.27885e-14
2.63432e-14
5.25649e-14
6.61007e-14
5.8999e-14
6.17192e-14
8.18615e-14
9.58362e-14
8.5865e-14
9.27647e-14
9.99395e-14
9.10745e-14
1.05036e-13
1.05999e-13
1.05032e-13
8.61612e-14
8.40316e-14
7.15122e-14
6.32843e-14
4.88181e-14
4.54785e-14
3.41322e-14
5.62998e-14
8.93533e-14
1.02995e-13
9.37761e-14
1.22355e-13
1.30006e-13
1.34886e-13
5.18384e-14
5.67392e-14
5.4123e-14
2.99536e-14
6.37409e-15
7.73871e-15
1.062e-14
1.11052e-14
1.37168e-14
1.67279e-14
1.3534e-14
2.16307e-14
3.80999e-14
4.77455e-14
4.44417e-14
3.01098e-14
1.76383e-14
2.28502e-14
3.59466e-14
3.69783e-14
2.73847e-14
2.0156e-14
9.39967e-15
1.59137e-14
2.96412e-14
3.91978e-14
3.59154e-14
3.94163e-14
4.08859e-14
3.98577e-14
3.56667e-14
2.9741e-14
1.6322e-14
3.66015e-13
2.33807e-10
5.89987e-08
5.94276e-06
0.000216189
0.00274795
0.0139596
0.0355106
0.0565294
0.0663677
0.0635967
0.0556794
0.0315784
0.00706763
0.000453625
5.29237e-06
7.47553e-09
9.43061e-13
6.59373e-14
6.44733e-14
5.63018e-14
6.50787e-14
8.97646e-14
1.14956e-13
1.23569e-13
1.35467e-13
1.40975e-13
1.37486e-13
1.1194e-13
1.03344e-13
8.26514e-14
9.25824e-14
7.95696e-14
7.0165e-14
4.97936e-14
3.72552e-14
3.71596e-14
2.58381e-14
3.15661e-14
5.28292e-14
5.70887e-14
5.52366e-14
6.24601e-14
7.32893e-14
7.83143e-14
6.41032e-14
4.99857e-14
5.63173e-14
5.65764e-14
5.21117e-14
6.54091e-14
6.4604e-14
7.7262e-14
7.74077e-14
7.16401e-14
6.64436e-14
7.53439e-14
7.64079e-14
6.85532e-14
6.22936e-14
6.97571e-14
8.69942e-14
8.6091e-14
9.58625e-14
8.48017e-14
7.27527e-14
6.22994e-14
7.43878e-14
7.96592e-14
7.34706e-14
7.90078e-14
8.31405e-14
5.30411e-14
5.49451e-14
4.77357e-14
3.42289e-14
4.51873e-14
3.70369e-14
4.56738e-14
2.80277e-14
2.66985e-14
3.79593e-14
2.76032e-14
2.4434e-14
4.19112e-14
4.87832e-14
4.63517e-14
5.23483e-14
5.90089e-14
7.93808e-14
7.54083e-14
8.67733e-14
8.75169e-14
8.99008e-14
9.54019e-14
8.47709e-14
9.2879e-14
7.85915e-14
7.68681e-14
6.31242e-14
5.30316e-14
4.05647e-14
3.41673e-14
3.96193e-14
6.14798e-14
9.73986e-14
1.21282e-13
1.25431e-13
1.23832e-13
1.15738e-13
1.14345e-13
3.80422e-14
5.84091e-14
6.40403e-14
5.5933e-14
2.53049e-14
1.37775e-14
1.93511e-14
2.39575e-14
1.34004e-14
2.89499e-15
7.76628e-15
4.03803e-15
1.19206e-14
2.90334e-14
4.03387e-14
3.18814e-14
1.88121e-14
6.93572e-15
1.32505e-14
2.55518e-14
3.30932e-14
3.38634e-14
2.26211e-14
9.37762e-15
1.81402e-14
3.11694e-14
3.75727e-14
3.20224e-14
3.21199e-14
3.30619e-14
3.23132e-14
2.75392e-14
1.99558e-14
1.44292e-14
1.36923e-14
1.19162e-12
3.61672e-10
5.05544e-08
3.30584e-06
9.25471e-05
0.00105267
0.00529439
0.0139525
0.0227854
0.0262219
0.022634
0.0112667
0.00195664
9.38483e-05
8.29649e-07
9.52962e-10
1.43412e-13
6.01584e-14
5.70552e-14
6.32356e-14
6.7653e-14
8.69431e-14
9.60024e-14
1.10986e-13
1.30374e-13
1.27429e-13
1.11607e-13
9.68085e-14
8.92924e-14
8.09479e-14
7.77315e-14
6.84431e-14
5.47539e-14
4.38973e-14
3.24866e-14
3.28018e-14
1.68779e-14
2.86631e-14
5.00945e-14
4.88884e-14
5.21447e-14
5.97215e-14
5.39755e-14
5.82624e-14
4.19007e-14
3.35542e-14
4.27678e-14
3.7992e-14
2.97738e-14
4.85763e-14
5.56386e-14
7.27613e-14
6.24739e-14
5.9322e-14
5.21221e-14
6.00259e-14
7.13465e-14
6.50086e-14
6.36814e-14
5.97736e-14
6.32316e-14
7.2962e-14
7.91442e-14
7.46091e-14
7.07815e-14
5.93094e-14
5.65925e-14
6.59023e-14
5.6385e-14
6.42619e-14
7.36049e-14
3.60376e-14
5.16232e-14
4.59949e-14
3.82582e-14
5.15338e-14
4.6601e-14
5.16876e-14
3.93764e-14
3.38596e-14
4.74111e-14
3.17005e-14
1.77681e-14
3.34497e-14
3.9601e-14
3.61768e-14
4.3543e-14
6.27609e-14
7.22959e-14
6.21758e-14
5.96015e-14
6.68365e-14
8.11666e-14
8.23952e-14
8.13136e-14
7.11615e-14
6.0751e-14
6.25693e-14
5.15772e-14
5.72723e-14
5.43405e-14
3.74054e-14
4.65545e-14
6.57668e-14
9.95197e-14
1.3247e-13
1.50627e-13
1.31301e-13
1.08452e-13
1.04722e-13
3.68486e-14
4.57353e-14
5.6962e-14
4.94066e-14
2.51624e-14
1.08974e-14
2.6491e-14
2.06594e-14
1.54916e-14
1.03039e-14
1.71651e-14
1.96887e-14
2.49226e-14
2.69049e-14
3.28983e-14
2.9226e-14
2.04028e-14
1.88433e-14
2.03131e-14
2.3433e-14
3.06144e-14
2.47445e-14
1.95005e-14
4.71376e-15
1.60447e-14
2.51635e-14
3.04228e-14
2.88439e-14
2.55652e-14
2.6765e-14
2.07798e-14
1.48786e-14
1.52059e-14
1.3394e-14
1.84576e-14
3.29463e-14
1.87749e-12
2.98483e-10
2.52192e-08
1.11801e-06
2.39808e-05
0.000232189
0.00106081
0.00257898
0.00375673
0.00326996
0.00153922
0.000230283
9.26802e-06
7.24245e-08
8.70777e-11
7.34941e-14
7.99951e-14
7.27619e-14
6.64164e-14
6.91887e-14
8.61527e-14
1.02652e-13
1.1534e-13
1.42277e-13
1.16042e-13
1.00667e-13
1.03606e-13
9.95464e-14
8.92678e-14
8.06927e-14
7.55975e-14
6.53487e-14
5.23948e-14
4.9768e-14
4.07144e-14
3.48903e-14
4.32157e-14
5.68591e-14
4.58287e-14
4.89596e-14
4.82467e-14
5.75124e-14
5.5446e-14
5.89179e-14
4.12451e-14
4.61702e-14
4.41429e-14
3.71504e-14
5.25195e-14
6.44264e-14
6.89197e-14
5.93578e-14
6.25878e-14
7.2306e-14
7.58094e-14
8.264e-14
7.71608e-14
6.51571e-14
6.21794e-14
5.74837e-14
7.64038e-14
6.48266e-14
8.00077e-14
7.882e-14
7.14e-14
6.3469e-14
6.06167e-14
5.24034e-14
5.98402e-14
6.00821e-14
3.94624e-14
4.77093e-14
3.93334e-14
2.36494e-14
3.21058e-14
3.23656e-14
3.82437e-14
3.82671e-14
4.66483e-14
6.13801e-14
3.63123e-14
1.93615e-14
3.43414e-14
4.25439e-14
5.03322e-14
5.14927e-14
6.39332e-14
6.62813e-14
6.5109e-14
6.08627e-14
7.43612e-14
8.52277e-14
7.65072e-14
8.11664e-14
6.73187e-14
6.09795e-14
6.22329e-14
6.36528e-14
5.67503e-14
5.44765e-14
5.03246e-14
5.67638e-14
6.7617e-14
1.02249e-13
1.36738e-13
1.49687e-13
1.26734e-13
1.0284e-13
8.99645e-14
4.28562e-14
4.35547e-14
4.731e-14
4.61068e-14
3.39756e-14
2.18215e-14
1.80351e-14
2.47984e-14
2.70427e-14
2.74169e-14
3.10173e-14
3.90324e-14
4.6125e-14
4.75027e-14
4.88383e-14
4.50381e-14
3.81509e-14
3.4795e-14
3.22409e-14
3.69007e-14
3.47898e-14
3.36772e-14
3.18612e-14
2.7298e-14
3.38475e-14
4.21373e-14
4.69404e-14
4.61784e-14
4.35238e-14
3.83718e-14
4.17661e-14
4.11916e-14
4.2551e-14
4.38363e-14
4.63004e-14
3.98511e-14
5.34829e-14
1.56121e-12
1.45376e-10
8.00386e-09
2.39063e-07
3.48615e-06
2.3823e-05
7.96293e-05
0.000137601
0.000126528
6.17118e-05
9.2513e-06
3.75013e-07
3.27904e-09
6.13204e-12
6.98533e-14
7.36219e-14
8.14059e-14
7.50157e-14
7.95269e-14
8.7481e-14
1.09691e-13
1.24071e-13
1.50806e-13
1.17592e-13
1.01981e-13
1.13961e-13
1.11705e-13
1.03095e-13
1.00817e-13
9.9765e-14
8.77712e-14
7.55041e-14
7.95702e-14
6.16273e-14
6.2266e-14
5.71193e-14
5.68764e-14
6.04193e-14
5.2222e-14
5.73738e-14
6.63437e-14
7.63853e-14
7.34019e-14
6.43193e-14
6.86785e-14
6.71521e-14
6.54987e-14
6.916e-14
7.04766e-14
5.83297e-14
6.25886e-14
7.3923e-14
9.50781e-14
9.02131e-14
9.85791e-14
9.15527e-14
7.05856e-14
7.70096e-14
6.68067e-14
7.05689e-14
6.92594e-14
8.55082e-14
7.17221e-14
6.80774e-14
6.9703e-14
5.85146e-14
6.51691e-14
5.81927e-14
5.73123e-14
5.81081e-14
5.27378e-14
4.93328e-14
3.76462e-14
3.26785e-14
3.10151e-14
4.90663e-14
5.53541e-14
5.74679e-14
6.57338e-14
5.29284e-14
3.30008e-14
3.66555e-14
4.71017e-14
6.61647e-14
6.55238e-14
6.03408e-14
5.91359e-14
7.2923e-14
7.94319e-14
9.58516e-14
9.32598e-14
8.1192e-14
8.40139e-14
7.49518e-14
8.0699e-14
7.66171e-14
8.041e-14
6.63065e-14
7.32048e-14
7.10747e-14
6.43983e-14
7.80651e-14
1.10075e-13
1.39022e-13
1.53906e-13
1.3234e-13
1.01925e-13
8.31e-14
3.49281e-14
3.70431e-14
3.59554e-14
4.87274e-14
3.9482e-14
3.86128e-14
3.10424e-14
3.30338e-14
3.68737e-14
3.81065e-14
3.94129e-14
4.23748e-14
4.3625e-14
5.67646e-14
4.70833e-14
3.87001e-14
3.87018e-14
3.16109e-14
3.05833e-14
3.00174e-14
3.40826e-14
3.9295e-14
4.06791e-14
4.58063e-14
4.85477e-14
5.64117e-14
5.82976e-14
6.37076e-14
6.3411e-14
5.52674e-14
6.10089e-14
6.33306e-14
6.3222e-14
6.58994e-14
6.35111e-14
5.47877e-14
4.39554e-14
5.05257e-14
7.83156e-13
4.72873e-11
1.69062e-09
2.93954e-08
2.34202e-07
8.77482e-07
1.60407e-06
1.58315e-06
8.42418e-07
1.41699e-07
6.74736e-09
8.04927e-11
3.90251e-13
8.17379e-14
6.43903e-14
7.37703e-14
9.54836e-14
9.34098e-14
1.05644e-13
1.11303e-13
1.31992e-13
1.40935e-13
1.29469e-13
1.10664e-13
1.23608e-13
1.23788e-13
1.2263e-13
1.16031e-13
1.22656e-13
1.05815e-13
1.01819e-13
9.9612e-14
8.10093e-14
8.2973e-14
7.69251e-14
7.87833e-14
8.16522e-14
6.91396e-14
7.66719e-14
8.67607e-14
9.76655e-14
7.9134e-14
8.25381e-14
9.07857e-14
9.15333e-14
8.87793e-14
9.24124e-14
8.56251e-14
7.43033e-14
8.52302e-14
9.49731e-14
1.02263e-13
9.34167e-14
1.07322e-13
9.70607e-14
8.08139e-14
8.82941e-14
8.50568e-14
7.54819e-14
7.24883e-14
8.56041e-14
7.07463e-14
6.17873e-14
7.21929e-14
6.72558e-14
7.71023e-14
7.50257e-14
7.03187e-14
6.35955e-14
6.24376e-14
4.8763e-14
5.58224e-14
5.54317e-14
5.74524e-14
7.66167e-14
7.80932e-14
7.97396e-14
7.96335e-14
7.23313e-14
6.1217e-14
6.26801e-14
6.16077e-14
7.5387e-14
7.03195e-14
7.21198e-14
7.62335e-14
8.20355e-14
8.40823e-14
8.53883e-14
8.88923e-14
9.29586e-14
1.00906e-13
9.33857e-14
1.01353e-13
9.95361e-14
8.84822e-14
8.45854e-14
9.20268e-14
9.09666e-14
8.18731e-14
8.70689e-14
1.07884e-13
1.31208e-13
1.42342e-13
1.16755e-13
8.12393e-14
6.25747e-14
3.59607e-14
3.74675e-14
4.44512e-14
4.82538e-14
4.03991e-14
3.73036e-14
3.06632e-14
2.98814e-14
3.14695e-14
3.13571e-14
3.49641e-14
3.39744e-14
3.43865e-14
4.59239e-14
3.44971e-14
2.98527e-14
2.93696e-14
2.81323e-14
2.57312e-14
2.2653e-14
2.73623e-14
2.8102e-14
3.72039e-14
4.59489e-14
4.72834e-14
4.99369e-14
5.64279e-14
6.37756e-14
6.08148e-14
5.95276e-14
5.45984e-14
6.12043e-14
7.26173e-14
7.89493e-14
6.37314e-14
5.88966e-14
4.60243e-14
4.21331e-14
5.10801e-14
3.08088e-13
1.05649e-11
1.97596e-10
1.60875e-09
5.98018e-09
1.09357e-08
1.14823e-08
6.54528e-09
1.25298e-09
7.25194e-11
1.28796e-12
9.39882e-14
8.29387e-14
7.93215e-14
9.06826e-14
9.66516e-14
9.52117e-14
9.59978e-14
9.90893e-14
1.10647e-13
1.25739e-13
1.34991e-13
1.18846e-13
1.09974e-13
1.1174e-13
1.21187e-13
1.18291e-13
1.14475e-13
1.05084e-13
1.10187e-13
9.52189e-14
8.84567e-14
8.72547e-14
7.5389e-14
7.5169e-14
8.26511e-14
7.69683e-14
8.56391e-14
9.00259e-14
9.40387e-14
8.58986e-14
8.7751e-14
8.76974e-14
9.2866e-14
9.25149e-14
8.95205e-14
8.19433e-14
9.37004e-14
1.00484e-13
9.8183e-14
9.72552e-14
9.76073e-14
9.22012e-14
8.21784e-14
8.7613e-14
8.77636e-14
7.55078e-14
7.02266e-14
6.57188e-14
6.48138e-14
6.4103e-14
6.65711e-14
6.44246e-14
6.21067e-14
7.9413e-14
8.46307e-14
7.32767e-14
5.49277e-14
6.29945e-14
5.53742e-14
6.42577e-14
6.79886e-14
7.2695e-14
8.80678e-14
8.88899e-14
9.28421e-14
8.61804e-14
7.76438e-14
8.02948e-14
7.68375e-14
7.0351e-14
7.56281e-14
7.70916e-14
8.26478e-14
8.00445e-14
8.66004e-14
8.958e-14
8.59167e-14
9.48504e-14
1.02222e-13
1.17729e-13
1.09356e-13
1.17583e-13
1.08607e-13
9.24107e-14
8.92268e-14
8.78374e-14
8.66486e-14
8.06307e-14
9.4901e-14
1.05774e-13
1.19649e-13
1.19862e-13
1.01355e-13
7.31079e-14
4.9289e-14
4.29224e-14
3.87725e-14
4.0872e-14
3.96826e-14
4.17903e-14
3.29836e-14
2.99235e-14
2.68112e-14
2.44687e-14
2.94093e-14
3.51549e-14
3.67172e-14
3.67217e-14
4.43165e-14
4.64133e-14
3.94592e-14
3.53305e-14
3.38792e-14
3.1852e-14
2.92431e-14
2.42689e-14
2.46072e-14
3.2555e-14
3.19503e-14
3.50824e-14
3.68547e-14
4.74638e-14
4.69472e-14
4.21333e-14
4.74427e-14
5.24817e-14
5.20912e-14
5.67608e-14
6.2982e-14
5.4471e-14
4.46825e-14
4.46928e-14
4.66699e-14
3.99539e-14
4.55397e-14
9.64195e-14
1.22534e-12
9.45408e-12
3.40406e-11
6.21197e-11
6.83195e-11
4.09105e-11
8.77053e-12
6.83857e-13
1.08377e-13
8.2424e-14
6.93066e-14
7.82977e-14
8.90978e-14
8.23148e-14
9.7401e-14
8.1505e-14
8.82965e-14
1.02273e-13
1.15753e-13
1.22031e-13
1.15438e-13
8.77328e-14
8.45008e-14
1.01184e-13
9.77981e-14
8.90951e-14
9.42759e-14
9.3846e-14
8.83606e-14
8.49862e-14
7.70523e-14
7.22441e-14
5.93579e-14
6.99338e-14
7.90692e-14
7.02679e-14
7.3814e-14
8.00239e-14
7.70779e-14
7.76446e-14
7.39831e-14
7.20588e-14
7.13406e-14
6.27797e-14
7.64892e-14
9.49415e-14
1.03391e-13
7.92798e-14
9.32559e-14
9.29296e-14
8.48373e-14
7.42128e-14
8.87807e-14
7.89725e-14
6.29418e-14
6.06056e-14
6.90399e-14
4.74525e-14
5.42873e-14
6.5594e-14
4.85728e-14
6.837e-14
7.22779e-14
8.22076e-14
8.38082e-14
6.19931e-14
6.79349e-14
6.88099e-14
6.14816e-14
6.36819e-14
7.072e-14
7.56746e-14
8.01002e-14
8.81541e-14
7.84774e-14
6.65831e-14
7.08732e-14
8.01755e-14
6.14175e-14
5.12483e-14
5.64843e-14
6.39513e-14
5.7727e-14
6.77253e-14
6.83443e-14
7.41297e-14
8.84842e-14
1.11265e-13
1.19617e-13
1.17566e-13
1.21798e-13
1.13148e-13
1.07343e-13
9.3615e-14
8.782e-14
8.68817e-14
8.29943e-14
9.08578e-14
9.81127e-14
1.05013e-13
1.1427e-13
9.44108e-14
6.71171e-14
5.29155e-14
3.98118e-14
4.0487e-14
3.61271e-14
3.42893e-14
3.23089e-14
4.01752e-14
3.75305e-14
3.02867e-14
3.29967e-14
3.27495e-14
4.00214e-14
4.05291e-14
3.85106e-14
4.78913e-14
5.40779e-14
4.921e-14
3.88846e-14
3.73289e-14
4.39533e-14
4.12655e-14
2.96076e-14
2.85095e-14
2.46783e-14
2.13586e-14
2.65432e-14
3.88043e-14
4.26552e-14
3.34386e-14
3.31932e-14
4.05809e-14
4.71519e-14
5.49814e-14
4.91931e-14
4.49937e-14
3.60865e-14
3.73094e-14
3.53748e-14
4.23906e-14
4.07976e-14
3.73287e-14
3.60452e-14
4.03017e-14
8.50829e-14
2.17518e-13
3.81301e-13
4.23769e-13
2.67182e-13
1.08241e-13
6.54296e-14
7.78921e-14
8.21982e-14
7.46601e-14
7.37411e-14
7.34915e-14
7.80429e-14
8.87564e-14
8.41234e-14
8.47097e-14
8.93415e-14
1.00647e-13
1.03993e-13
9.69035e-14
8.07934e-14
6.80395e-14
8.49033e-14
7.65777e-14
7.6792e-14
7.49204e-14
7.81644e-14
8.27195e-14
7.41912e-14
7.11575e-14
7.50115e-14
6.8474e-14
6.40531e-14
8.1003e-14
6.50294e-14
6.34768e-14
6.57965e-14
7.25823e-14
7.10932e-14
8.21476e-14
6.83647e-14
5.60061e-14
6.22325e-14
8.52894e-14
8.30882e-14
8.56557e-14
7.33841e-14
8.63278e-14
8.38993e-14
9.14273e-14
8.43052e-14
7.33659e-14
6.43137e-14
5.17849e-14
4.85317e-14
5.57244e-14
5.18639e-14
5.76665e-14
5.99352e-14
4.4267e-14
8.19142e-14
1.06409e-13
1.05023e-13
9.88987e-14
7.42837e-14
6.28989e-14
5.95912e-14
6.63185e-14
6.80479e-14
6.4807e-14
6.84181e-14
8.6602e-14
1.07322e-13
8.0178e-14
6.93219e-14
5.96804e-14
6.63713e-14
4.73087e-14
3.17081e-14
4.00919e-14
3.89551e-14
3.27165e-14
4.1255e-14
3.91509e-14
4.98557e-14
5.69846e-14
8.92293e-14
1.02513e-13
1.063e-13
1.07017e-13
1.08331e-13
1.00624e-13
9.78937e-14
8.49916e-14
8.19968e-14
7.52849e-14
7.88215e-14
8.72581e-14
8.6165e-14
9.57437e-14
8.67192e-14
6.03003e-14
4.8958e-14
4.69757e-14
4.12104e-14
3.68278e-14
3.17267e-14
3.58638e-14
3.74695e-14
3.24565e-14
2.60655e-14
2.35495e-14
2.70789e-14
4.15477e-14
3.84444e-14
3.58325e-14
4.97684e-14
5.99557e-14
5.74549e-14
5.23769e-14
5.31006e-14
6.11986e-14
5.20575e-14
3.9185e-14
3.29171e-14
2.74235e-14
2.21909e-14
3.39303e-14
3.74131e-14
2.09233e-14
2.19919e-14
2.67547e-14
3.23538e-14
4.01978e-14
4.23519e-14
3.83493e-14
3.61864e-14
3.04747e-14
2.96402e-14
2.45267e-14
2.39395e-14
3.02158e-14
3.41394e-14
3.57224e-14
4.05167e-14
4.38368e-14
4.66087e-14
5.3872e-14
6.87237e-14
7.5337e-14
5.72819e-14
6.54137e-14
7.61093e-14
7.17931e-14
8.30648e-14
8.45974e-14
8.75604e-14
9.36432e-14
9.65939e-14
1.0033e-13
1.00737e-13
8.65591e-14
9.48513e-14
1.04811e-13
1.11665e-13
8.23965e-14
6.07102e-14
6.27878e-14
6.62403e-14
8.65956e-14
9.1911e-14
8.44106e-14
7.92406e-14
8.55972e-14
7.68788e-14
6.74657e-14
7.461e-14
7.06163e-14
7.95947e-14
8.09972e-14
8.14412e-14
7.37379e-14
8.86797e-14
9.10103e-14
8.18535e-14
7.8275e-14
7.58591e-14
7.84172e-14
7.74675e-14
7.89795e-14
8.05106e-14
7.88049e-14
9.11325e-14
9.60018e-14
8.85341e-14
8.96711e-14
6.41865e-14
6.005e-14
6.33112e-14
6.52194e-14
6.2283e-14
7.85738e-14
7.80438e-14
6.98142e-14
6.24699e-14
9.0514e-14
1.36262e-13
1.25977e-13
9.71271e-14
7.21094e-14
6.56722e-14
5.6141e-14
6.89958e-14
7.26324e-14
6.22874e-14
6.65396e-14
9.58869e-14
1.31575e-13
1.00256e-13
8.19597e-14
6.90765e-14
6.45907e-14
6.10868e-14
3.49603e-14
2.67667e-14
2.76905e-14
1.93928e-14
2.28313e-14
4.37167e-14
4.06999e-14
2.58909e-14
5.55924e-14
7.7626e-14
8.24861e-14
9.44241e-14
9.66754e-14
9.72925e-14
7.90933e-14
8.73991e-14
9.03987e-14
8.08474e-14
8.17653e-14
8.2014e-14
8.42408e-14
9.37287e-14
9.71882e-14
7.23616e-14
4.92011e-14
5.01052e-14
4.80783e-14
4.5205e-14
4.1499e-14
4.25435e-14
3.26219e-14
2.25555e-14
3.09449e-14
2.14197e-14
3.65542e-14
4.09975e-14
3.43577e-14
4.1704e-14
5.43176e-14
5.91961e-14
6.15074e-14
6.14324e-14
6.43729e-14
6.13843e-14
5.49883e-14
4.2255e-14
2.72925e-14
2.19251e-14
3.01307e-14
3.58494e-14
2.36373e-14
1.01254e-14
1.8749e-14
2.73079e-14
4.05261e-14
3.77312e-14
3.43286e-14
2.6982e-14
2.27131e-14
1.93869e-14
1.93218e-14
1.75202e-14
1.25665e-14
1.66216e-14
2.26333e-14
2.45672e-14
2.63404e-14
2.81354e-14
2.95684e-14
3.2461e-14
4.02472e-14
5.69896e-14
5.79942e-14
6.38284e-14
6.89765e-14
6.76539e-14
7.07433e-14
8.12248e-14
8.94629e-14
9.26217e-14
8.99985e-14
1.0189e-13
9.9282e-14
8.31855e-14
8.25312e-14
8.05142e-14
1.02088e-13
6.76451e-14
5.03739e-14
5.3997e-14
5.0975e-14
8.50995e-14
1.07962e-13
8.49767e-14
7.57386e-14
7.93901e-14
7.4673e-14
5.88358e-14
6.45453e-14
7.72443e-14
6.88499e-14
7.02098e-14
7.93583e-14
7.25498e-14
8.57349e-14
9.01877e-14
7.79281e-14
7.94186e-14
9.75699e-14
8.57241e-14
7.26049e-14
8.36464e-14
7.46699e-14
7.92357e-14
9.88319e-14
8.89857e-14
7.36107e-14
8.5762e-14
6.1376e-14
6.52101e-14
6.79913e-14
8.10827e-14
7.68952e-14
9.17544e-14
8.51615e-14
8.1434e-14
8.17053e-14
7.60374e-14
1.10648e-13
9.74789e-14
8.61584e-14
7.19692e-14
5.79004e-14
5.33069e-14
6.16691e-14
6.32036e-14
5.87272e-14
6.65474e-14
9.9518e-14
1.34672e-13
1.11118e-13
7.41802e-14
5.8401e-14
5.00312e-14
5.42317e-14
3.29539e-14
1.01838e-14
1.35905e-14
2.28292e-14
2.38092e-14
3.01137e-14
1.11525e-14
1.05729e-14
4.20237e-14
6.7253e-14
6.02816e-14
6.52782e-14
7.1953e-14
7.32518e-14
5.65026e-14
6.6485e-14
7.81779e-14
8.23417e-14
8.79916e-14
8.78231e-14
8.35528e-14
9.43586e-14
1.00236e-13
9.10479e-14
7.20345e-14
5.40855e-14
5.43865e-14
5.63906e-14
5.15192e-14
3.94238e-14
2.89288e-14
2.61237e-14
3.62299e-14
3.45159e-14
3.78421e-14
2.23234e-14
2.98909e-14
4.66283e-14
6.17737e-14
6.24512e-14
6.07251e-14
6.01376e-14
6.34149e-14
5.56005e-14
5.35076e-14
4.13619e-14
2.05136e-14
1.34206e-14
2.42014e-14
2.46781e-14
1.68772e-14
1.6372e-14
1.86577e-14
2.37671e-14
3.22513e-14
3.45722e-14
3.18368e-14
3.59315e-14
2.51532e-14
1.53864e-14
1.04589e-14
1.44042e-14
1.80279e-14
1.40853e-14
1.38753e-14
1.34907e-14
1.4599e-14
1.16419e-14
8.72692e-15
1.66017e-14
2.86589e-14
4.38309e-14
5.85179e-14
5.16988e-14
5.00327e-14
5.40708e-14
5.9879e-14
6.66029e-14
6.93514e-14
7.18339e-14
6.52113e-14
7.97164e-14
8.26111e-14
7.36589e-14
6.03748e-14
6.75771e-14
7.95397e-14
5.4407e-14
4.88291e-14
6.06947e-14
5.48107e-14
7.09092e-14
8.03481e-14
8.09772e-14
7.32084e-14
5.91269e-14
6.38474e-14
6.26271e-14
6.69677e-14
7.68317e-14
6.78527e-14
6.23975e-14
6.08913e-14
5.14587e-14
6.01611e-14
6.91979e-14
6.34612e-14
7.31973e-14
8.6384e-14
7.79139e-14
7.48971e-14
7.04609e-14
6.98945e-14
7.64446e-14
7.88308e-14
6.8415e-14
7.40384e-14
7.12201e-14
6.57494e-14
6.12193e-14
5.63801e-14
6.43591e-14
7.44564e-14
7.02341e-14
6.80179e-14
6.41273e-14
6.456e-14
6.55083e-14
7.53147e-14
6.06476e-14
6.80254e-14
6.93676e-14
4.92469e-14
4.4852e-14
5.42336e-14
5.9869e-14
6.02e-14
7.04624e-14
1.01299e-13
1.3404e-13
1.21521e-13
7.94432e-14
5.39669e-14
4.66325e-14
3.43168e-14
3.62065e-14
2.06239e-14
9.97388e-15
1.95359e-14
1.58268e-14
1.42953e-14
1.42495e-14
1.88322e-14
3.97916e-14
6.22902e-14
6.40462e-14
5.43237e-14
5.87244e-14
6.62633e-14
5.39568e-14
5.59297e-14
6.67877e-14
7.33072e-14
7.79182e-14
8.44175e-14
8.56649e-14
9.45119e-14
1.0003e-13
9.80314e-14
7.93654e-14
5.85477e-14
6.28261e-14
5.75807e-14
6.03993e-14
5.00782e-14
3.67669e-14
2.67619e-14
2.13363e-14
2.43447e-14
2.16056e-14
1.97179e-14
2.84684e-14
3.23463e-14
3.81943e-14
5.4463e-14
6.26284e-14
6.2253e-14
6.59529e-14
5.84512e-14
6.08928e-14
4.21138e-14
2.79205e-14
1.46765e-14
2.44236e-14
2.91605e-14
1.59166e-14
1.86473e-14
2.41333e-14
2.07709e-14
3.43973e-14
3.75596e-14
3.69368e-14
3.33126e-14
1.88575e-14
9.69407e-15
1.50108e-14
1.97298e-14
1.55575e-14
1.60106e-14
2.47542e-14
1.93384e-14
1.90973e-14
1.98058e-14
1.74138e-14
1.59724e-14
2.73066e-14
3.68151e-14
3.83894e-14
4.08557e-14
3.85162e-14
3.65202e-14
4.78951e-14
5.22326e-14
5.34801e-14
5.54932e-14
5.20942e-14
4.96681e-14
5.50091e-14
6.32535e-14
5.0394e-14
4.87901e-14
5.63043e-14
4.99155e-14
4.07864e-14
5.02179e-14
5.28508e-14
6.77445e-14
5.92869e-14
5.8567e-14
5.53972e-14
5.15292e-14
5.14906e-14
4.9507e-14
5.87321e-14
5.53143e-14
5.2476e-14
5.12241e-14
4.91803e-14
3.88949e-14
3.99934e-14
4.97031e-14
5.69367e-14
6.15124e-14
7.11544e-14
7.38168e-14
6.58271e-14
5.14661e-14
5.49502e-14
6.0838e-14
5.35887e-14
5.96811e-14
6.24823e-14
5.55142e-14
5.79017e-14
4.08361e-14
4.01883e-14
4.72092e-14
5.19559e-14
3.4479e-14
3.53462e-14
3.56745e-14
4.08174e-14
4.20631e-14
3.62984e-14
3.59991e-14
4.36139e-14
4.70675e-14
3.69667e-14
3.12104e-14
4.06197e-14
4.3874e-14
4.70128e-14
6.12078e-14
8.42659e-14
1.02988e-13
9.46847e-14
7.07541e-14
5.39328e-14
4.84021e-14
2.78995e-14
3.11062e-14
3.05132e-14
1.9599e-14
1.55457e-14
1.38965e-14
2.40205e-14
1.62077e-14
3.49195e-14
3.8073e-14
6.03078e-14
7.7934e-14
5.36591e-14
5.3864e-14
5.95629e-14
5.39709e-14
5.06572e-14
6.45877e-14
7.50659e-14
8.06858e-14
7.90875e-14
8.06217e-14
9.42093e-14
1.01293e-13
1.00298e-13
9.00867e-14
4.8705e-14
5.2007e-14
5.12286e-14
4.3156e-14
2.8585e-14
1.88975e-14
1.31875e-14
1.39765e-14
1.16103e-14
1.47644e-14
1.41028e-14
1.01357e-14
6.94122e-15
1.3241e-14
2.66423e-14
3.62183e-14
3.93572e-14
4.01169e-14
3.8809e-14
3.8542e-14
2.93882e-14
1.42898e-14
1.83546e-14
2.36867e-14
1.98659e-14
1.58613e-14
8.95072e-15
1.69831e-14
1.4253e-14
1.89556e-14
3.04975e-14
3.23847e-14
2.93845e-14
1.6445e-14
1.83419e-14
2.30461e-14
2.2601e-14
2.42569e-14
2.23544e-14
3.12685e-14
3.91175e-14
3.54474e-14
3.77898e-14
3.51307e-14
3.16832e-14
3.32366e-14
2.97536e-14
2.5493e-14
2.13666e-14
1.76935e-14
2.88026e-14
2.98479e-14
3.43213e-14
3.88381e-14
3.09042e-14
3.21322e-14
2.90013e-14
3.18295e-14
3.9741e-14
3.96758e-14
3.16766e-14
3.40211e-14
3.59726e-14
2.77966e-14
3.19131e-14
3.5435e-14
4.36541e-14
4.16e-14
3.54349e-14
3.46923e-14
4.60631e-14
4.33702e-14
3.27848e-14
2.58534e-14
2.38582e-14
3.34575e-14
3.94565e-14
3.68199e-14
2.42542e-14
2.14812e-14
3.68736e-14
4.79946e-14
3.81945e-14
4.2555e-14
4.86321e-14
3.95981e-14
3.35919e-14
4.21741e-14
3.67411e-14
2.60205e-14
3.38967e-14
3.31156e-14
3.67103e-14
2.9321e-14
2.04376e-14
1.81663e-14
2.33934e-14
2.32516e-14
7.99114e-15
1.17029e-14
1.08525e-14
9.14971e-15
1.84065e-14
1.68281e-14
2.87921e-14
3.57892e-14
4.04421e-14
3.34935e-14
2.6881e-14
2.75623e-14
3.76898e-14
4.13692e-14
4.91456e-14
6.33892e-14
6.24825e-14
5.89466e-14
4.73953e-14
3.68909e-14
3.07202e-14
2.26872e-14
3.09307e-14
2.41901e-14
1.80756e-14
1.82685e-14
1.66946e-14
2.80958e-14
1.74084e-14
2.9011e-14
4.3182e-14
5.81384e-14
7.92594e-14
5.81446e-14
4.73836e-14
4.60663e-14
4.85835e-14
4.20289e-14
5.1098e-14
6.60838e-14
7.48763e-14
7.66204e-14
7.50344e-14
8.22607e-14
9.13989e-14
8.42358e-14
7.82848e-14
3.16283e-14
3.44038e-14
3.86962e-14
3.17006e-14
1.93693e-14
1.54113e-14
1.11325e-14
1.68241e-14
1.89069e-14
1.73313e-14
1.06176e-14
1.56796e-14
1.93972e-14
1.56516e-14
8.09862e-15
1.71983e-14
1.38943e-14
7.68856e-15
8.68352e-15
5.27511e-15
6.20446e-15
8.38974e-15
1.77914e-14
1.57774e-14
1.92599e-14
2.2594e-14
1.62626e-14
8.81468e-15
7.60912e-15
1.20875e-14
1.74306e-14
2.06971e-14
1.6078e-14
1.65022e-14
2.38259e-14
2.96787e-14
2.82987e-14
3.4044e-14
3.75386e-14
3.97347e-14
4.66332e-14
4.79276e-14
4.9738e-14
4.43615e-14
3.87345e-14
3.35108e-14
3.32894e-14
2.84008e-14
2.05441e-14
1.15394e-14
2.48226e-14
2.55431e-14
2.82399e-14
3.87494e-14
3.32397e-14
2.97721e-14
3.36025e-14
3.13147e-14
3.28343e-14
3.82619e-14
3.46316e-14
2.73869e-14
2.86868e-14
3.42408e-14
3.41131e-14
3.46861e-14
3.50207e-14
3.35223e-14
3.25679e-14
3.87807e-14
4.51684e-14
4.96874e-14
3.90263e-14
2.19327e-14
2.75906e-14
4.52258e-14
3.92098e-14
3.71249e-14
2.38689e-14
2.45598e-14
3.20258e-14
3.23553e-14
3.18862e-14
2.89981e-14
2.68415e-14
3.36616e-14
3.21073e-14
3.93196e-14
3.58462e-14
3.44116e-14
2.83611e-14
3.14292e-14
3.21606e-14
3.75349e-14
2.82943e-14
1.79091e-14
2.28287e-14
9.10774e-15
7.97975e-15
1.5496e-14
5.24851e-15
7.98512e-15
6.20631e-15
1.27538e-14
1.77978e-14
3.4669e-14
4.59346e-14
2.39336e-14
2.21673e-14
2.8092e-14
2.17849e-14
3.3548e-14
4.05033e-14
3.59351e-14
3.40059e-14
3.47109e-14
3.16347e-14
2.54123e-14
2.88917e-14
3.26073e-14
3.70426e-14