/*--------------------------------*- C++ -*----------------------------------*\
| =========                 |                                                 |
| \\      /  F ield         | OpenFOAM: The Open Source CFD Toolbox           |
|  \\    /   O peration     | Version:  2406                                  |
|   \\  /    A nd           | Website:  www.openfoam.com                      |
|    \\/     M anipulation  |                                                 |
\*---------------------------------------------------------------------------*/
FoamFile
{
    version     2.0;
    format      ascii;
    arch        "LSB;label=32;scalar=64";
    class       volVectorField;
    location    "0.055";
    object      U;
}
// * * * * * * * * * * * * * * * * * * * * * * * * * * * * * * * * * * * * * //

dimensions      [0 1 -1 0 0 0 0];

internalField   nonuniform List<vector> 
13948
(
(-20.2317 16.25 -0.733635)
(-9.39134 3.76951 -0.172252)
(-1.59383 0.285905 -0.0134545)
(-0.0482926 0.00595363 -0.000293887)
(-0.000165377 1.51937e-05 -7.89769e-07)
(-4.29813e-08 3.07615e-09 -1.6521e-10)
(-5.01285e-12 2.23312e-11 -1.09646e-11)
(7.67133e-12 1.37813e-11 -2.24648e-11)
(1.02575e-11 2.83047e-11 -1.20734e-11)
(5.16398e-12 3.55565e-11 6.96838e-13)
(1.58708e-11 3.8159e-11 6.83861e-12)
(1.53986e-11 5.00058e-11 9.21739e-12)
(6.94382e-12 4.86056e-11 1.6544e-11)
(1.62825e-14 4.62046e-11 1.90342e-11)
(1.18098e-12 4.50821e-11 1.77212e-11)
(1.64613e-12 5.13719e-11 1.11646e-11)
(-6.78341e-12 5.36343e-11 5.25803e-12)
(-1.1327e-11 4.21068e-11 2.12939e-12)
(-4.9281e-12 3.68706e-11 -1.43303e-12)
(-5.45436e-12 3.30535e-11 1.3568e-12)
(-9.05722e-12 3.04673e-11 4.04808e-12)
(-1.03216e-11 3.61144e-11 3.94219e-12)
(-1.60209e-11 2.11173e-11 2.71731e-12)
(-7.67024e-12 1.38816e-11 -6.40726e-13)
(-6.14081e-12 1.9924e-11 -2.92315e-12)
(-5.32903e-12 7.18925e-12 -5.27067e-12)
(1.03441e-11 4.1646e-12 -1.04798e-11)
(1.33123e-11 1.93204e-11 -9.56656e-12)
(3.69424e-12 3.03299e-11 -1.01344e-11)
(-2.17638e-12 2.07847e-11 -1.0469e-11)
(5.89947e-12 1.23506e-11 -1.44639e-11)
(1.22072e-11 1.95115e-11 -2.78736e-11)
(4.00702e-12 3.07765e-11 -2.80361e-11)
(-6.97995e-12 2.81327e-11 -1.15969e-11)
(-1.01834e-11 2.3664e-11 1.22556e-11)
(-3.24217e-12 1.96278e-11 2.03146e-12)
(4.5025e-12 2.78078e-11 -3.15063e-12)
(-4.84552e-13 3.7087e-11 -6.99145e-12)
(-5.82749e-12 2.77346e-11 -1.08441e-11)
(4.42444e-12 2.0195e-11 -1.77249e-11)
(7.99474e-12 3.43208e-11 -1.69375e-12)
(-3.89848e-12 3.75478e-11 1.20554e-11)
(-1.01243e-12 3.25002e-11 5.16251e-12)
(-4.04533e-12 3.08686e-11 -9.78215e-12)
(-1.24126e-11 2.21254e-11 -2.56461e-11)
(-1.15301e-11 1.92181e-11 -7.58289e-12)
(-6.72724e-12 1.36831e-11 5.6708e-12)
(-1.20856e-12 2.42321e-11 1.21941e-11)
(5.85474e-13 2.61603e-11 1.81751e-11)
(3.14251e-13 2.91633e-11 8.75789e-12)
(5.14423e-12 3.46163e-11 -4.05393e-12)
(-1.7026e-12 3.51192e-11 -1.85124e-12)
(-7.71754e-12 3.09173e-11 -1.0819e-12)
(-5.87434e-12 3.30616e-11 6.06966e-12)
(-2.92405e-12 2.86354e-11 1.41086e-11)
(5.91712e-13 3.46273e-11 7.18703e-12)
(-5.42232e-12 3.17669e-11 -6.62023e-12)
(-8.29967e-12 2.32935e-11 -1.97151e-11)
(-1.13465e-11 2.68367e-11 -2.75547e-11)
(-1.23125e-11 2.04323e-11 -3.26862e-11)
(-1.79573e-11 2.07682e-11 -2.74485e-11)
(-2.0711e-11 1.11245e-11 -3.32934e-11)
(-1.93765e-11 6.00747e-12 -1.95474e-11)
(-2.25681e-11 -6.82053e-12 -2.89326e-11)
(-1.4996e-11 -2.27702e-11 -1.84581e-11)
(-3.47331e-12 -1.86033e-11 -6.65528e-12)
(5.16528e-12 -2.1241e-11 8.16578e-12)
(5.09582e-12 -9.48494e-12 8.54226e-12)
(7.11066e-12 -1.57968e-11 1.21392e-11)
(1.52035e-11 -6.0059e-12 9.60095e-12)
(3.60188e-12 6.28887e-13 8.89957e-12)
(6.7141e-12 -2.42151e-12 8.98867e-12)
(1.74128e-11 8.21449e-12 7.35127e-12)
(1.01765e-11 2.06887e-11 -6.95899e-12)
(5.76539e-12 2.70803e-11 -1.95141e-12)
(9.7791e-12 3.57535e-11 -1.86139e-12)
(9.59633e-12 4.35658e-11 -2.23493e-12)
(4.93225e-12 4.00894e-11 -1.78187e-12)
(2.29841e-12 3.18174e-11 2.66401e-12)
(4.84541e-12 2.33017e-11 9.75794e-12)
(3.31113e-12 2.7636e-11 2.74616e-12)
(4.03617e-12 3.34258e-11 3.21382e-12)
(7.71322e-12 4.07782e-11 -6.50489e-12)
(6.31806e-12 4.15351e-11 -1.26321e-11)
(3.94843e-12 3.47854e-11 -5.92135e-12)
(3.07549e-12 2.93214e-11 6.3432e-12)
(6.24815e-13 2.02239e-11 1.70187e-12)
(-1.21141e-13 1.24484e-11 6.78406e-12)
(-8.20443e-13 1.58562e-11 8.26786e-13)
(-1.83415e-12 7.90072e-12 -2.52607e-12)
(-8.81886e-13 -1.53064e-12 -3.45007e-12)
(1.2771e-12 -9.00372e-12 -7.63919e-12)
(7.46011e-12 -1.69198e-11 -1.15496e-11)
(2.01607e-11 -1.2122e-11 -1.4402e-11)
(2.90209e-11 -4.53113e-12 -1.87431e-11)
(2.00253e-11 3.36181e-12 -2.00501e-11)
(1.40651e-11 -4.53643e-12 -5.00583e-11)
(1.28129e-11 -7.66665e-12 -7.48981e-11)
(1.18318e-11 -1.49086e-11 -6.75224e-11)
(-15.4 29.6349 -1.33528)
(-19.7802 15.1618 -0.677881)
(-8.62561 4.81973 -0.200794)
(-1.2728 0.533672 -0.0206104)
(-0.0339502 0.0128792 -0.000476771)
(-0.000105356 3.61983e-05 -1.31438e-06)
(-2.5499e-08 7.87427e-09 -2.81341e-10)
(-8.46085e-13 2.33857e-11 -1.16432e-11)
(6.34709e-12 1.12012e-11 -2.03779e-11)
(9.38741e-12 2.62126e-11 -1.37731e-11)
(6.52819e-12 3.46801e-11 -5.57333e-13)
(1.48068e-11 3.79438e-11 7.27345e-12)
(1.44515e-11 4.71831e-11 7.67476e-12)
(7.45754e-12 4.74346e-11 1.7454e-11)
(3.03517e-13 4.55504e-11 2.07319e-11)
(5.58397e-13 4.29971e-11 1.63346e-11)
(4.38875e-13 4.9622e-11 1.14049e-11)
(-5.62443e-12 5.10544e-11 5.26736e-12)
(-9.89381e-12 4.00045e-11 1.73693e-12)
(-5.34302e-12 3.48224e-11 -4.30133e-12)
(-4.48563e-12 3.38528e-11 1.62711e-12)
(-1.01233e-11 3.27271e-11 4.39478e-12)
(-9.71522e-12 3.44005e-11 4.75245e-12)
(-1.31033e-11 2.16123e-11 2.48434e-12)
(-8.81857e-12 1.06012e-11 -1.07587e-12)
(-5.72138e-12 1.52763e-11 -3.08314e-12)
(-3.05649e-12 4.4768e-12 -4.59913e-12)
(9.76524e-12 4.90936e-12 -5.21571e-12)
(1.06301e-11 1.97709e-11 -7.86791e-12)
(4.02272e-12 2.78113e-11 -9.39778e-12)
(1.50172e-12 2.04799e-11 -9.23769e-12)
(5.65444e-12 1.24767e-11 -9.82304e-12)
(8.90873e-12 2.05559e-11 -2.43087e-11)
(2.56776e-12 3.07394e-11 -2.86353e-11)
(-5.63109e-12 3.09271e-11 -1.53731e-11)
(-9.50793e-12 2.66301e-11 -8.20161e-13)
(-2.78549e-12 1.83999e-11 -3.09626e-13)
(2.59725e-12 2.93467e-11 -3.35875e-12)
(-5.50908e-13 3.60737e-11 -7.31545e-12)
(-3.02475e-12 2.87849e-11 -1.06598e-11)
(3.86064e-12 1.77655e-11 -1.66336e-11)
(5.89462e-12 3.4769e-11 -2.1907e-12)
(-2.38674e-12 3.70628e-11 4.24405e-12)
(-1.13949e-12 3.09679e-11 1.7721e-14)
(-3.70082e-12 3.34327e-11 -7.29744e-12)
(-1.13577e-11 2.41638e-11 -1.39281e-11)
(-1.10279e-11 1.63841e-11 -3.73087e-12)
(-7.94381e-12 1.54032e-11 6.90959e-12)
(-2.09181e-12 2.49812e-11 1.19981e-11)
(1.1616e-12 2.54492e-11 1.55158e-11)
(3.44693e-14 2.85178e-11 8.96317e-12)
(4.08424e-12 3.0891e-11 1.32432e-13)
(-1.02696e-12 3.4732e-11 -7.39948e-13)
(-7.94681e-12 2.98322e-11 -1.7144e-12)
(-5.71024e-12 2.88836e-11 7.39864e-12)
(-3.09113e-12 2.78307e-11 1.88453e-11)
(-2.16925e-13 3.0368e-11 7.60517e-12)
(-4.30018e-12 3.00526e-11 -6.8525e-12)
(-8.5461e-12 2.41688e-11 -1.90136e-11)
(-1.059e-11 2.2059e-11 -2.51411e-11)
(-1.19798e-11 1.87123e-11 -2.27742e-11)
(-1.85394e-11 1.86448e-11 -1.92132e-11)
(-2.07874e-11 8.27096e-12 -2.68379e-11)
(-1.94001e-11 6.2265e-12 -1.92674e-11)
(-1.99273e-11 -9.21579e-12 -1.86992e-11)
(-1.39836e-11 -2.16416e-11 -1.35404e-11)
(-2.89502e-12 -1.62982e-11 -8.16557e-12)
(4.45671e-12 -2.03947e-11 9.72036e-12)
(4.99909e-12 -9.64522e-12 7.36145e-12)
(7.76671e-12 -1.38854e-11 1.37674e-11)
(1.26971e-11 -2.76163e-12 8.67721e-12)
(4.06424e-12 3.3652e-12 7.18478e-12)
(7.4062e-12 -2.19803e-12 7.77057e-12)
(1.49162e-11 9.94907e-12 5.37603e-12)
(9.22796e-12 1.87978e-11 -5.52826e-12)
(6.40869e-12 2.45961e-11 -8.73378e-13)
(8.87997e-12 3.49279e-11 -8.9146e-13)
(8.54337e-12 4.16001e-11 -1.30347e-12)
(5.02473e-12 3.54191e-11 -7.33393e-13)
(3.11645e-12 2.91192e-11 1.6574e-12)
(5.25291e-12 2.43907e-11 5.71727e-12)
(2.34016e-12 2.94025e-11 6.7781e-13)
(3.38066e-12 3.02722e-11 -2.34618e-12)
(5.8177e-12 3.89272e-11 -7.88045e-12)
(6.70796e-12 3.93153e-11 -1.34051e-11)
(4.56836e-12 3.43687e-11 -9.89479e-12)
(4.28449e-12 2.86764e-11 -5.32373e-12)
(1.58946e-12 1.97221e-11 -3.29248e-12)
(-9.33827e-13 1.34611e-11 9.62483e-13)
(-8.93651e-13 1.63239e-11 -1.79901e-12)
(1.81848e-13 1.10755e-11 -2.57562e-12)
(-1.02735e-12 2.65073e-12 -2.53219e-12)
(1.67065e-12 -5.79624e-12 -8.60896e-12)
(8.45924e-12 -1.04569e-11 -1.26429e-11)
(2.00867e-11 -8.33669e-12 -1.36973e-11)
(2.60168e-11 -2.85854e-12 -1.94017e-11)
(2.01818e-11 3.4154e-12 -2.14866e-11)
(1.48011e-11 -4.93244e-12 -4.22234e-11)
(1.285e-11 -4.47975e-12 -6.52828e-11)
(1.12765e-11 -1.22171e-11 -6.24633e-11)
(0.0566294 0.0688454 -0.00263081)
(1.05558 1.36702 -0.0489227)
(6.01238 8.5726 -0.292209)
(13.8557 22.7577 -0.7756)
(17.5637 35.5868 -1.26194)
(15.2182 41.6278 -1.56575)
(9.80617 41.9736 -1.68203)
(2.00482 40.7734 -1.6869)
(-5.61647 35.3643 -1.50838)
(-13.9241 28.9629 -1.24078)
(-16.1435 16.0838 -0.67457)
(-6.1241 4.89391 -0.191584)
(-0.758124 0.473404 -0.0175877)
(-0.0166981 0.00930566 -0.000337222)
(-4.30188e-05 2.16075e-05 -7.78318e-07)
(-8.8212e-09 4.00789e-09 -1.42145e-10)
(2.83086e-12 2.36829e-11 -4.29557e-12)
(6.28042e-12 1.57093e-11 -9.25712e-12)
(6.66005e-12 2.55866e-11 -8.23578e-12)
(5.47246e-12 2.73215e-11 6.96542e-13)
(1.42283e-11 3.43255e-11 6.02569e-12)
(1.42099e-11 4.3339e-11 8.27514e-12)
(7.07169e-12 4.56258e-11 1.61789e-11)
(1.2082e-12 4.46359e-11 1.98045e-11)
(4.13251e-13 4.12787e-11 1.84992e-11)
(-6.78533e-13 4.65849e-11 1.18427e-11)
(-4.65411e-12 4.81697e-11 5.05343e-12)
(-7.03092e-12 3.88136e-11 2.40124e-12)
(-4.93483e-12 3.4226e-11 1.33105e-13)
(-5.4055e-12 3.53095e-11 3.36485e-12)
(-9.75995e-12 3.39522e-11 5.56505e-12)
(-9.01015e-12 3.03158e-11 7.36928e-12)
(-1.07975e-11 2.3664e-11 2.04594e-12)
(-8.31567e-12 1.16198e-11 -3.74072e-12)
(-4.8605e-12 1.03141e-11 -3.49684e-12)
(-3.01969e-12 4.58961e-12 -4.40709e-12)
(7.14234e-12 1.06984e-11 -6.01165e-12)
(1.0047e-11 2.00936e-11 -1.10584e-11)
(4.80203e-12 2.28057e-11 -1.05195e-11)
(3.4291e-12 1.98948e-11 -7.54891e-12)
(5.05298e-12 1.66703e-11 -9.9157e-12)
(7.04196e-12 2.42246e-11 -1.98073e-11)
(6.56652e-13 2.71356e-11 -2.5381e-11)
(-6.0048e-12 3.03348e-11 -1.92242e-11)
(-6.18147e-12 2.7248e-11 -9.36426e-12)
(-2.36907e-12 1.9023e-11 -2.20533e-12)
(-2.52218e-13 2.73986e-11 -3.6619e-12)
(1.79561e-13 3.21056e-11 -6.4948e-12)
(-7.26365e-14 2.80954e-11 -8.99246e-12)
(3.61032e-12 2.2553e-11 -1.21205e-11)
(3.52533e-12 3.14148e-11 -7.61913e-12)
(-8.67941e-13 3.06374e-11 -5.69276e-12)
(-1.99526e-12 2.89933e-11 -4.05189e-12)
(-3.12318e-12 3.22213e-11 -2.37107e-12)
(-7.97242e-12 2.67467e-11 -2.1141e-12)
(-1.03214e-11 1.72551e-11 3.90199e-12)
(-1.00509e-11 1.93926e-11 7.75194e-12)
(-2.65696e-12 2.02944e-11 1.23712e-11)
(6.84353e-13 2.77279e-11 1.35696e-11)
(8.66153e-13 2.88605e-11 9.78521e-12)
(2.94356e-12 2.9558e-11 5.45406e-12)
(-1.75687e-12 3.51591e-11 3.71794e-12)
(-6.26322e-12 3.183e-11 3.11841e-12)
(-5.4839e-12 2.73616e-11 7.75263e-12)
(-3.21577e-12 2.74026e-11 1.44203e-11)
(-3.35364e-13 2.8378e-11 6.35699e-12)
(-5.11446e-12 3.03311e-11 -6.73509e-12)
(-7.61083e-12 2.79151e-11 -1.84579e-11)
(-9.26998e-12 2.16492e-11 -2.10167e-11)
(-1.30552e-11 2.21111e-11 -1.77935e-11)
(-1.62337e-11 1.97482e-11 -1.02508e-11)
(-2.16286e-11 1.18047e-11 -1.39588e-11)
(-1.80678e-11 6.05483e-12 -1.40297e-11)
(-1.67109e-11 -4.91815e-12 -4.55697e-12)
(-1.34036e-11 -1.36296e-11 -7.08844e-12)
(-2.8239e-12 -1.38515e-11 -4.23117e-12)
(4.0513e-12 -1.16019e-11 5.27961e-12)
(3.64672e-12 -7.43534e-12 2.78366e-12)
(7.2744e-12 -4.59379e-12 6.44935e-12)
(1.08606e-11 4.57936e-12 5.48032e-12)
(5.27576e-12 6.3394e-12 4.52088e-12)
(7.26994e-12 1.07479e-12 5.60992e-12)
(1.34208e-11 1.38859e-11 5.65838e-12)
(8.99543e-12 1.98858e-11 1.22168e-13)
(5.33219e-12 1.98271e-11 1.24299e-12)
(6.8602e-12 2.9014e-11 1.89829e-12)
(1.01354e-11 3.53297e-11 8.88248e-13)
(6.71354e-12 3.15309e-11 1.54905e-12)
(3.69707e-12 2.8374e-11 4.19578e-12)
(3.85448e-12 2.77021e-11 4.01086e-13)
(2.80543e-12 3.06636e-11 -3.85422e-12)
(2.4408e-12 2.79213e-11 -6.10373e-12)
(4.28048e-12 3.46322e-11 -8.85064e-12)
(7.35767e-12 3.78953e-11 -1.10356e-11)
(5.8966e-12 3.27355e-11 -1.0043e-11)
(5.71613e-12 2.48767e-11 -1.13548e-11)
(3.36959e-12 2.20297e-11 -7.22866e-12)
(-6.03742e-13 1.90886e-11 -4.56488e-12)
(-8.69844e-13 2.04678e-11 -4.0989e-12)
(7.55448e-13 1.73859e-11 -2.36436e-12)
(1.24458e-12 9.62983e-12 5.85719e-13)
(1.81364e-12 6.50193e-13 -6.32668e-12)
(8.40463e-12 -3.14466e-12 -1.51589e-11)
(1.98058e-11 -4.81454e-12 -1.92375e-11)
(2.44062e-11 2.12599e-12 -2.13355e-11)
(2.03982e-11 3.71302e-12 -1.86872e-11)
(1.54631e-11 1.47071e-12 -3.66062e-11)
(1.20956e-11 1.73107e-12 -5.15632e-11)
(1.09807e-11 -2.47271e-12 -5.51474e-11)
(1.90393e-12 7.65823e-12 1.74142e-11)
(-2.40992e-12 7.4153e-12 1.30662e-11)
(-2.26497e-12 7.92375e-12 5.74311e-12)
(-1.58717e-12 4.8049e-12 6.10351e-12)
(5.84882e-13 5.02377e-12 2.70364e-12)
(3.35233e-12 3.40088e-12 -5.65871e-13)
(2.35331e-12 6.40656e-12 -6.0081e-13)
(-1.52224e-12 7.79827e-12 -6.81112e-13)
(-1.07984e-12 8.23166e-12 -4.14206e-12)
(-9.57776e-13 7.78746e-12 6.10719e-12)
(-1.33412e-12 8.40738e-12 1.75625e-11)
(2.86033e-12 7.88246e-12 2.17624e-11)
(7.30605e-13 8.61149e-12 1.82656e-11)
(-2.84695e-12 4.87961e-12 1.32479e-11)
(-8.14068e-13 6.97843e-12 8.07033e-12)
(2.34707e-12 4.75364e-12 5.4714e-12)
(1.31184e-13 7.5545e-12 7.20589e-12)
(-4.16786e-12 6.1307e-12 7.21822e-12)
(-3.09681e-12 6.09108e-12 2.6752e-12)
(-1.20599e-12 4.50598e-12 4.1756e-12)
(-7.0983e-13 4.43871e-12 1.0438e-13)
(-2.39841e-12 8.42857e-13 -5.03985e-12)
(-2.37542e-12 2.33386e-12 -1.15773e-11)
(1.3708e-12 7.48101e-13 -1.75275e-11)
(2.54371e-12 1.14622e-12 -1.4111e-11)
(2.54814e-12 3.20796e-12 -1.42464e-11)
(2.61957e-12 6.45325e-12 -1.53601e-11)
(-2.42347e-13 7.01137e-12 -1.56353e-11)
(2.31615e-12 4.73607e-12 -1.64541e-11)
(5.10628e-12 5.01825e-12 -1.08534e-11)
(6.73786e-12 1.98239e-11 -8.06127e-12)
(1.25249e-08 2.02709e-08 -9.7986e-10)
(7.23615e-06 1.04455e-05 -5.00204e-07)
(0.00127914 0.00168139 -7.54524e-05)
(0.0627467 0.0844614 -0.00330169)
(0.889429 1.29804 -0.0465397)
(4.34255 7.12406 -0.243171)
(9.42644 18.2363 -0.614269)
(11.4742 28.9238 -0.995399)
(8.91431 34.2008 -1.22769)
(3.9719 34.1985 -1.28595)
(-2.43562 30.4745 -1.18488)
(-9.03728 25.7219 -1.0066)
(-9.86035 14.4625 -0.553631)
(-3.3908 3.79403 -0.138078)
(-0.3318 0.299126 -0.0106806)
(-0.005686 0.00439447 -0.000157936)
(-1.13895e-05 7.58793e-06 -2.78742e-07)
(-1.85197e-09 1.09252e-09 -3.83417e-11)
(5.41781e-12 2.65273e-11 -7.44649e-13)
(5.19466e-12 2.18215e-11 -9.82549e-13)
(5.78154e-12 2.34814e-11 -1.19393e-12)
(6.29455e-12 2.28015e-11 3.7255e-12)
(1.0167e-11 3.19769e-11 7.40843e-12)
(1.18705e-11 4.30636e-11 8.32789e-12)
(6.94668e-12 4.50378e-11 1.60994e-11)
(1.68716e-12 4.54735e-11 2.09668e-11)
(4.65565e-13 4.33531e-11 2.1083e-11)
(-1.72198e-12 4.80522e-11 1.2998e-11)
(-2.39583e-12 4.7549e-11 3.97478e-12)
(-4.72022e-12 3.99313e-11 3.15707e-12)
(-4.82865e-12 3.29151e-11 3.81215e-12)
(-4.57659e-12 3.56318e-11 4.6471e-12)
(-8.55572e-12 3.21924e-11 7.97505e-12)
(-7.98714e-12 2.77065e-11 1.15371e-11)
(-8.70681e-12 2.1545e-11 2.24661e-12)
(-6.92191e-12 1.47846e-11 -7.98864e-12)
(-4.50526e-12 1.23608e-11 -3.96571e-12)
(-3.4629e-12 9.07844e-12 -4.68739e-12)
(4.4611e-12 1.16004e-11 -6.31619e-12)
(8.45586e-12 1.76163e-11 -1.05712e-11)
(6.05964e-12 1.90355e-11 -1.38468e-11)
(4.501e-12 1.91257e-11 -1.09084e-11)
(3.62556e-12 1.84869e-11 -1.2658e-11)
(5.15484e-12 2.39913e-11 -1.75729e-11)
(9.21806e-13 2.76209e-11 -1.86276e-11)
(-6.38687e-12 2.82563e-11 -1.37902e-11)
(-4.65637e-12 2.28964e-11 -6.78033e-12)
(-2.06524e-12 2.15891e-11 -1.394e-12)
(-2.46362e-12 2.48451e-11 -1.67303e-12)
(-3.36674e-13 2.75823e-11 -2.9494e-12)
(1.24231e-12 2.81388e-11 -6.45609e-12)
(3.39928e-12 2.50062e-11 -9.85197e-12)
(3.79769e-12 2.79916e-11 -1.32982e-11)
(1.71939e-12 2.58232e-11 -6.42206e-12)
(-2.69287e-12 2.78185e-11 -3.25296e-12)
(-4.89216e-12 2.76955e-11 1.97408e-12)
(-6.95783e-12 2.92558e-11 5.88061e-13)
(-9.40571e-12 2.31727e-11 7.27772e-12)
(-9.46274e-12 2.09647e-11 1.11353e-11)
(-6.07627e-12 1.7331e-11 1.29912e-11)
(-2.08742e-12 2.72136e-11 1.25144e-11)
(1.48766e-12 3.15617e-11 9.84642e-12)
(1.64937e-12 3.26244e-11 6.9851e-12)
(-2.05858e-12 3.79969e-11 6.13104e-12)
(-5.2934e-12 3.48315e-11 6.0595e-12)
(-4.79624e-12 2.97634e-11 7.81162e-12)
(-3.24763e-12 2.62963e-11 9.44116e-12)
(-1.16648e-12 3.10187e-11 4.50996e-12)
(-5.1449e-12 3.25502e-11 -7.09419e-12)
(-5.8185e-12 2.72208e-11 -1.61856e-11)
(-8.12147e-12 2.51045e-11 -1.94838e-11)
(-1.24053e-11 2.46045e-11 -1.59411e-11)
(-1.38791e-11 2.07952e-11 -1.83898e-12)
(-1.80195e-11 1.13846e-11 9.79377e-13)
(-1.55303e-11 5.37243e-12 -5.93921e-12)
(-1.33589e-11 4.75526e-13 1.32792e-12)
(-1.17832e-11 -7.77461e-12 -4.04336e-12)
(-4.06082e-12 -1.09997e-11 -4.11096e-12)
(2.55525e-12 -9.79814e-12 -1.07153e-12)
(3.6631e-12 -4.60771e-12 -1.13034e-12)
(7.10609e-12 -4.65633e-13 -1.13716e-12)
(1.08684e-11 7.69533e-12 -2.40454e-12)
(6.94756e-12 8.86675e-12 -2.91856e-13)
(6.46394e-12 5.70567e-12 2.76106e-12)
(1.08637e-11 1.4233e-11 2.39459e-12)
(1.11777e-11 1.94458e-11 3.59955e-12)
(7.04944e-12 1.83662e-11 4.90891e-12)
(3.89762e-12 1.98813e-11 6.27979e-12)
(6.87973e-12 2.69005e-11 4.52646e-12)
(6.34351e-12 3.22367e-11 2.30273e-12)
(4.38954e-12 2.90771e-11 2.45273e-12)
(3.84038e-12 3.16184e-11 -1.36243e-12)
(2.67136e-12 3.38175e-11 -5.37237e-12)
(2.29762e-12 3.03707e-11 -7.20911e-12)
(2.83581e-12 3.47248e-11 -9.44182e-12)
(6.54642e-12 3.42272e-11 -1.06129e-11)
(7.72993e-12 3.37859e-11 -1.00825e-11)
(6.35226e-12 2.69749e-11 -1.043e-11)
(3.31251e-12 2.719e-11 -9.149e-12)
(-2.29157e-12 2.34241e-11 -7.07454e-12)
(-1.96048e-12 2.09116e-11 -5.64434e-12)
(2.32201e-12 1.65261e-11 -1.7214e-12)
(4.20737e-12 1.42676e-11 4.7968e-12)
(3.58459e-12 9.05588e-12 -6.53721e-12)
(8.37489e-12 -6.39142e-13 -1.743e-11)
(1.85973e-11 -2.32207e-12 -2.43249e-11)
(2.136e-11 4.43824e-12 -2.78729e-11)
(1.96127e-11 7.22939e-12 -2.45293e-11)
(1.58606e-11 5.36172e-12 -3.85721e-11)
(1.32306e-11 4.44156e-12 -4.24428e-11)
(1.17101e-11 2.43682e-12 -4.47859e-11)
(2.36025e-12 2.06626e-12 1.75367e-11)
(1.54177e-12 1.80227e-12 1.93545e-11)
(-2.34081e-13 4.53202e-12 1.8038e-11)
(-8.95101e-13 4.44848e-12 9.2399e-12)
(-1.52871e-12 6.70069e-13 1.41864e-12)
(3.98647e-13 2.06875e-12 -1.62307e-12)
(7.09315e-13 5.18912e-13 -3.54233e-12)
(3.17686e-13 2.47537e-12 -2.88739e-12)
(1.84666e-13 4.62527e-12 -8.91314e-13)
(-6.19044e-13 5.60119e-12 1.13665e-12)
(-7.45597e-13 4.57703e-12 -3.58041e-13)
(-7.24949e-13 5.73563e-12 4.67302e-12)
(-6.43898e-13 3.63062e-12 1.25636e-11)
(4.0607e-14 5.03612e-12 1.56164e-11)
(3.82383e-13 8.09033e-12 1.29486e-11)
(-3.93675e-13 4.83672e-12 9.13921e-12)
(-5.70706e-13 4.1415e-12 4.38928e-12)
(5.12236e-13 5.36873e-12 5.70797e-12)
(6.30523e-14 8.34474e-12 9.10886e-12)
(-1.55371e-12 5.90077e-12 1.11473e-11)
(-1.95758e-12 3.28916e-12 8.59759e-12)
(-1.12127e-12 2.35818e-12 6.4159e-12)
(-1.0866e-12 2.75919e-12 1.28109e-12)
(-1.55203e-12 1.71423e-12 -4.95605e-12)
(-1.06771e-12 1.29309e-12 -1.00476e-11)
(2.0663e-13 3.00033e-13 -1.3466e-11)
(1.92208e-13 2.06746e-12 -1.21669e-11)
(5.32947e-13 4.21094e-12 -1.28638e-11)
(1.51517e-12 5.47807e-12 -1.28501e-11)
(1.68795e-12 5.19892e-12 -1.25598e-11)
(2.54939e-12 2.9295e-12 -1.16259e-11)
(3.32556e-12 5.77448e-12 -7.75005e-12)
(3.43134e-12 2.91582e-12 -3.34488e-12)
(6.1908e-11 1.09441e-10 -3.50167e-12)
(3.92284e-08 7.00385e-08 -3.47195e-09)
(1.08227e-05 1.71253e-05 -8.35745e-07)
(0.00115677 0.00168139 -7.65879e-05)
(0.0414907 0.061586 -0.00247045)
(0.494466 0.804659 -0.0288393)
(2.27421 4.23652 -0.146044)
(4.90016 11.262 -0.377211)
(5.64277 18.796 -0.629902)
(3.3738 22.8283 -0.775528)
(-0.169106 22.0965 -0.762262)
(-4.20803 18.8499 -0.650977)
(-4.28941 10.0284 -0.345214)
(-1.33181 2.03365 -0.0706461)
(-0.10094 0.118745 -0.00425429)
(-0.00131604 0.00125453 -4.72121e-05)
(-2.02345e-06 1.58173e-06 -6.23074e-08)
(-2.59031e-10 1.947e-10 -5.78001e-12)
(6.82691e-12 2.15619e-11 1.40266e-12)
(8.31178e-12 2.01672e-11 3.89071e-12)
(6.15793e-12 1.77175e-11 4.74878e-12)
(3.66281e-12 2.14672e-11 5.09346e-12)
(7.75567e-12 2.8235e-11 9.71024e-12)
(9.59912e-12 3.7064e-11 9.73922e-12)
(5.81756e-12 3.78644e-11 1.83255e-11)
(2.95465e-12 3.87769e-11 2.55929e-11)
(-2.62291e-13 4.09061e-11 2.59585e-11)
(-2.39485e-12 4.46938e-11 1.51389e-11)
(-1.47915e-12 3.79791e-11 5.94371e-12)
(-1.83638e-12 3.52834e-11 3.61627e-12)
(-4.22879e-12 2.77608e-11 4.2735e-12)
(-5.27881e-12 3.0913e-11 5.372e-12)
(-7.07189e-12 2.47223e-11 9.30347e-12)
(-5.80259e-12 2.11441e-11 1.0035e-11)
(-7.11635e-12 1.54686e-11 1.70538e-12)
(-6.74235e-12 9.26858e-12 -5.70592e-12)
(-5.29382e-12 1.11256e-11 -3.35858e-12)
(-3.29903e-12 7.39345e-12 -3.64711e-12)
(4.39971e-12 7.57609e-12 -6.39746e-12)
(7.9824e-12 1.25993e-11 -1.03519e-11)
(5.43637e-12 1.22496e-11 -1.43287e-11)
(3.81689e-12 1.38817e-11 -1.23724e-11)
(3.16579e-12 1.56444e-11 -1.43524e-11)
(3.2435e-12 1.73956e-11 -1.79235e-11)
(8.06125e-13 2.18205e-11 -1.57343e-11)
(-3.25955e-12 2.02182e-11 -8.11901e-12)
(-3.42967e-12 1.66498e-11 -2.47304e-12)
(-3.03198e-12 1.90181e-11 1.92513e-12)
(-9.7026e-13 1.94182e-11 -1.7539e-13)
(-3.46998e-13 1.78921e-11 -6.9275e-13)
(8.98196e-13 2.21201e-11 -3.89744e-12)
(4.15667e-12 2.00251e-11 -8.64e-12)
(3.27093e-12 2.27655e-11 -1.32684e-11)
(1.52483e-12 2.40657e-11 -1.12338e-11)
(-2.48475e-12 2.37703e-11 -5.91176e-12)
(-4.56682e-12 2.17625e-11 5.1904e-12)
(-7.74549e-12 2.35094e-11 7.60006e-12)
(-8.91391e-12 2.05566e-11 1.36926e-11)
(-9.30128e-12 1.67975e-11 1.36517e-11)
(-5.91994e-12 1.51006e-11 1.39726e-11)
(-4.49822e-12 1.96155e-11 1.3027e-11)
(-7.4329e-13 2.78617e-11 1.08163e-11)
(1.24268e-12 2.77254e-11 1.02523e-11)
(-2.37222e-12 3.15986e-11 9.01347e-12)
(-4.60885e-12 2.71947e-11 9.40957e-12)
(-3.79964e-12 2.30041e-11 9.02761e-12)
(-3.59761e-12 1.90249e-11 9.13795e-12)
(-3.45965e-12 2.50807e-11 3.53977e-12)
(-3.25898e-12 2.61533e-11 -7.40449e-12)
(-4.92698e-12 2.02817e-11 -1.42091e-11)
(-8.5733e-12 1.86872e-11 -1.77349e-11)
(-1.0258e-11 2.04793e-11 -1.70809e-11)
(-1.11778e-11 1.43534e-11 -1.14322e-12)
(-1.50746e-11 5.39213e-12 1.00118e-11)
(-1.60109e-11 1.01574e-12 3.42696e-12)
(-1.08808e-11 -3.61718e-12 2.62635e-12)
(-9.91929e-12 -1.1692e-11 -2.46235e-12)
(-3.29516e-12 -1.1344e-11 -4.73967e-12)
(1.85614e-12 -1.51483e-11 -3.66922e-12)
(2.65034e-12 -8.31079e-12 -4.08463e-12)
(5.66059e-12 -3.60972e-12 -6.2541e-12)
(7.66461e-12 2.61082e-12 -1.02282e-11)
(6.4423e-12 3.81276e-12 -5.82652e-12)
(5.10874e-12 6.63931e-12 -5.75601e-13)
(9.73852e-12 1.03594e-11 2.30271e-12)
(1.09633e-11 1.18946e-11 4.40365e-12)
(7.40666e-12 1.25232e-11 6.48507e-12)
(3.20416e-12 1.44376e-11 1.02439e-11)
(4.15752e-12 1.88249e-11 6.29166e-12)
(6.30039e-12 2.63255e-11 3.38968e-12)
(3.63046e-12 2.56236e-11 1.35868e-12)
(1.74477e-12 2.96807e-11 -2.30107e-12)
(4.20054e-12 2.92405e-11 -5.65151e-12)
(2.19064e-12 2.9717e-11 -8.16354e-12)
(3.18436e-12 3.10713e-11 -9.96856e-12)
(6.23384e-12 2.65472e-11 -1.02519e-11)
(7.42721e-12 2.93747e-11 -1.00397e-11)
(6.68238e-12 2.47424e-11 -8.52349e-12)
(3.66829e-12 2.34977e-11 -1.15e-11)
(3.07471e-13 2.015e-11 -8.03069e-12)
(-9.74987e-13 1.70967e-11 -6.23745e-12)
(1.77999e-12 1.3663e-11 -2.12039e-12)
(3.08593e-12 1.13255e-11 2.94135e-13)
(5.29205e-12 8.51112e-12 -9.21647e-12)
(1.04773e-11 -2.00464e-12 -1.82378e-11)
(1.87948e-11 -5.00714e-12 -2.72412e-11)
(2.10857e-11 -2.77118e-12 -3.58463e-11)
(1.87084e-11 1.14878e-12 -3.88176e-11)
(1.64246e-11 -5.20338e-13 -3.92558e-11)
(1.38326e-11 -9.62195e-13 -3.72797e-11)
(1.32883e-11 -2.82405e-12 -3.68732e-11)
(1.89671e-12 -1.09755e-12 1.28888e-11)
(3.48143e-12 -1.93043e-12 1.96744e-11)
(1.59833e-12 -1.15221e-12 2.192e-11)
(-1.02739e-12 -1.52313e-12 1.91342e-11)
(8.13281e-13 -1.78174e-12 8.47297e-12)
(-1.04535e-12 -4.54168e-12 -8.36049e-13)
(-4.31305e-13 -1.46701e-12 -6.47211e-12)
(-1.76356e-13 -3.73991e-12 -7.33279e-12)
(-3.01581e-13 -1.11238e-12 -4.45867e-12)
(-4.93806e-13 -4.4252e-13 -7.41734e-13)
(-1.15086e-12 1.43244e-12 1.93576e-12)
(-1.23461e-12 6.08095e-13 1.78149e-13)
(-4.88516e-13 1.03252e-12 3.93422e-12)
(5.06559e-13 -1.74246e-12 9.81135e-12)
(-1.63503e-12 1.31874e-13 1.37656e-11)
(-3.80721e-13 1.30903e-12 1.08713e-11)
(1.55568e-13 7.46306e-14 6.46274e-12)
(-9.06108e-13 7.87639e-15 2.2046e-12)
(-6.34577e-13 1.76013e-12 4.1516e-12)
(3.06256e-13 2.76991e-12 8.32731e-12)
(7.34622e-13 6.1968e-13 1.13323e-11)
(-5.97478e-13 -3.12257e-12 1.1195e-11)
(-1.02733e-12 -2.63782e-12 7.24035e-12)
(-1.01854e-12 -2.87051e-12 1.05301e-12)
(-2.74051e-12 -2.00956e-12 -5.22644e-12)
(-1.15269e-12 -3.9311e-12 -9.8975e-12)
(5.9793e-13 -3.05872e-12 -1.25306e-11)
(-5.8894e-14 -2.5713e-12 -1.07002e-11)
(8.79776e-14 -5.04735e-13 -1.10266e-11)
(9.79012e-13 -9.9286e-13 -1.12763e-11)
(2.7807e-12 -1.81226e-12 -1.05973e-11)
(2.76297e-12 -3.23904e-12 -8.45261e-12)
(3.80541e-12 -1.75026e-13 -5.70278e-12)
(4.40403e-12 -1.93213e-12 -1.20875e-12)
(2.06629e-12 1.68401e-12 3.87771e-12)
(1.80556e-10 3.67328e-10 -1.31806e-11)
(5.8031e-08 1.09775e-07 -5.53454e-09)
(8.75323e-06 1.49895e-05 -7.37673e-07)
(0.000603427 0.000961573 -4.44311e-05)
(0.0168035 0.0269813 -0.00112123)
(0.176623 0.315591 -0.0115412)
(0.773911 1.64777 -0.0577386)
(1.5373 4.55286 -0.154006)
(1.49378 7.71672 -0.256451)
(0.14339 9.05126 -0.298852)
(-1.15904 7.7207 -0.255828)
(-1.15073 3.70343 -0.124948)
(-0.306408 0.598457 -0.0212541)
(-0.0182959 0.0265419 -0.00101598)
(-0.000189063 0.000213242 -8.76067e-06)
(-2.45006e-07 2.171e-07 -9.75914e-09)
(-2.3476e-11 4.33348e-11 1.554e-13)
(8.5396e-12 1.85456e-11 3.24993e-12)
(7.78787e-12 1.69332e-11 6.08958e-12)
(5.6211e-12 1.91767e-11 8.53984e-12)
(3.45299e-12 2.20344e-11 6.56655e-12)
(5.46541e-12 2.73596e-11 1.06935e-11)
(8.194e-12 3.08426e-11 8.37266e-12)
(5.92295e-12 3.20591e-11 1.97976e-11)
(2.20468e-12 3.27082e-11 3.05417e-11)
(-1.86012e-12 3.65358e-11 2.40721e-11)
(-1.05139e-12 3.59319e-11 1.33761e-11)
(-2.81621e-14 3.26858e-11 6.20543e-12)
(-1.53572e-12 3.04055e-11 3.8492e-12)
(-3.89246e-12 2.72379e-11 4.10312e-12)
(-4.61757e-12 2.5679e-11 5.73415e-12)
(-5.42742e-12 1.97375e-11 1.15858e-11)
(-5.92636e-12 1.47785e-11 1.00276e-11)
(-4.84485e-12 1.40468e-11 2.60791e-12)
(-5.91251e-12 9.24212e-12 -2.06664e-12)
(-4.50421e-12 1.01615e-11 -1.87929e-12)
(-2.46675e-12 4.50116e-12 -2.7016e-12)
(2.90549e-12 6.59992e-12 -6.71051e-12)
(6.62731e-12 1.22743e-11 -1.00897e-11)
(4.73103e-12 8.4164e-12 -1.37499e-11)
(2.91917e-12 1.14136e-11 -1.35035e-11)
(2.6301e-12 1.14753e-11 -1.68119e-11)
(2.5648e-12 1.18237e-11 -1.40608e-11)
(6.36274e-13 1.40538e-11 -1.42476e-11)
(-2.19236e-12 1.41897e-11 -1.09482e-12)
(-3.26661e-12 1.10549e-11 3.03574e-13)
(-2.88123e-12 1.37171e-11 4.42326e-12)
(-9.03805e-13 1.27533e-11 2.64737e-12)
(-3.14581e-13 1.00738e-11 1.76563e-12)
(1.18427e-12 1.6638e-11 -6.79663e-13)
(3.46934e-12 1.69711e-11 -8.09674e-12)
(2.20049e-12 1.98785e-11 -1.50092e-11)
(1.78571e-12 1.87535e-11 -1.02995e-11)
(-2.22133e-12 1.89831e-11 -7.09449e-12)
(-4.05508e-12 1.65243e-11 5.60005e-12)
(-8.14198e-12 1.60815e-11 1.00318e-11)
(-8.32365e-12 1.51421e-11 1.73961e-11)
(-8.83076e-12 1.38636e-11 1.51309e-11)
(-6.42874e-12 1.54837e-11 1.4067e-11)
(-5.75053e-12 1.28461e-11 1.49628e-11)
(-1.57105e-12 1.87701e-11 1.08364e-11)
(-2.72891e-13 2.12959e-11 1.32339e-11)
(-1.9207e-12 2.34353e-11 1.36706e-11)
(-1.79409e-12 2.1085e-11 1.44789e-11)
(-2.54869e-12 2.12066e-11 1.16401e-11)
(-3.99762e-12 1.606e-11 1.18972e-11)
(-4.40516e-12 1.82293e-11 5.15207e-12)
(-3.15511e-12 2.16486e-11 -5.85881e-12)
(-3.87819e-12 1.48135e-11 -1.18747e-11)
(-8.31674e-12 1.33264e-11 -1.55231e-11)
(-9.70933e-12 1.48054e-11 -1.80661e-11)
(-8.50802e-12 8.94534e-12 -9.89108e-13)
(-1.34634e-11 1.67052e-12 1.1432e-11)
(-1.40932e-11 -2.82724e-12 6.57598e-12)
(-8.57017e-12 -9.53764e-12 2.90762e-12)
(-8.62436e-12 -1.52988e-11 -2.28512e-12)
(-3.72679e-12 -1.45528e-11 -5.55077e-12)
(8.25896e-13 -1.64115e-11 -6.74619e-12)
(1.11906e-12 -1.10897e-11 -7.6739e-12)
(2.72383e-12 -3.92992e-12 -1.06085e-11)
(6.97165e-12 -4.18762e-12 -1.41187e-11)
(6.00681e-12 -3.87513e-12 -8.2212e-12)
(4.00792e-12 2.57098e-12 -3.82268e-12)
(9.28392e-12 5.88183e-12 -3.37021e-12)
(1.14773e-11 5.82897e-12 4.41712e-12)
(6.64604e-12 8.18362e-12 6.59014e-12)
(1.56294e-12 1.182e-11 9.04269e-12)
(3.65416e-12 1.87719e-11 9.97359e-12)
(3.81004e-12 2.39976e-11 5.18651e-12)
(2.6144e-12 2.11646e-11 1.34177e-12)
(1.89502e-12 2.02814e-11 -2.15034e-12)
(4.14524e-12 2.19257e-11 -5.44717e-12)
(1.74011e-12 2.66463e-11 -8.0637e-12)
(4.65091e-12 2.60271e-11 -1.01376e-11)
(8.79653e-12 2.416e-11 -1.09459e-11)
(8.7077e-12 2.05551e-11 -9.98719e-12)
(8.01288e-12 1.69956e-11 -9.10121e-12)
(4.67741e-12 1.81652e-11 -1.05127e-11)
(1.99494e-13 1.58374e-11 -7.95753e-12)
(-7.87817e-13 1.83183e-11 -7.1566e-12)
(2.55235e-12 1.80771e-11 -3.93154e-12)
(4.49258e-12 1.08233e-11 -5.28403e-12)
(7.41119e-12 6.46127e-12 -1.26213e-11)
(1.29386e-11 -3.1824e-12 -1.82565e-11)
(1.95894e-11 -6.5514e-12 -2.72592e-11)
(1.97286e-11 -5.78798e-12 -4.06179e-11)
(1.76526e-11 -5.77819e-12 -4.83181e-11)
(1.60894e-11 -5.32223e-12 -4.18202e-11)
(1.307e-11 -4.10391e-12 -3.4662e-11)
(1.15643e-11 -9.52919e-12 -3.27214e-11)
(2.48958e-12 3.983e-12 1.17602e-11)
(2.23449e-12 2.38968e-12 1.53733e-11)
(2.17228e-12 4.76955e-12 1.88612e-11)
(1.21196e-12 1.7509e-12 1.68452e-11)
(6.79119e-13 2.32461e-13 8.61758e-12)
(-2.83578e-12 -1.4606e-12 -1.96224e-12)
(-4.8322e-13 7.89742e-13 -9.05681e-12)
(4.9826e-13 8.46663e-13 -7.03161e-12)
(-2.03548e-12 2.11197e-12 -4.44301e-12)
(-2.01705e-12 2.75369e-12 -9.42299e-13)
(-2.40435e-12 5.15516e-12 1.56264e-12)
(-9.7674e-13 6.45563e-12 1.7758e-12)
(1.20573e-12 6.86946e-12 4.97153e-12)
(-1.91983e-13 5.1963e-12 7.64558e-12)
(-1.13355e-12 6.96893e-12 8.8303e-12)
(7.02874e-13 6.45598e-12 7.66201e-12)
(4.87546e-13 4.12041e-12 5.65233e-12)
(-7.80176e-13 4.84524e-12 4.225e-12)
(-7.03998e-13 5.05238e-12 4.76556e-12)
(5.83158e-13 4.51499e-12 6.6428e-12)
(1.64647e-12 4.49425e-12 9.36932e-12)
(2.61014e-13 1.98911e-12 8.26375e-12)
(-2.11194e-12 2.39548e-12 5.89178e-12)
(-1.30776e-12 5.48887e-13 7.82778e-13)