/*--------------------------------*- C++ -*----------------------------------*\
| =========                 |                                                 |
| \\      /  F ield         | OpenFOAM: The Open Source CFD Toolbox           |
|  \\    /   O peration     | Version:  2406                                  |
|   \\  /    A nd           | Website:  www.openfoam.com                      |
|    \\/     M anipulation  |                                                 |
\*---------------------------------------------------------------------------*/
FoamFile
{
    version     2.0;
    format      ascii;
    arch        "LSB;label=32;scalar=64";
    class       volScalarField;
    location    "0.003";
    object      Ma;
}
// * * * * * * * * * * * * * * * * * * * * * * * * * * * * * * * * * * * * * //

dimensions      [0 0 0 0 0 0 0];

internalField   nonuniform List<scalar> 
81000
(
0.00111317
0.00111723
0.00111789
0.00111802
0.00111809
0.00111816
0.00111823
0.00111831
0.0011184
0.0011185
0.00111861
0.00111873
0.00111886
0.001119
0.00111914
0.00111929
0.00111945
0.0011196
0.00111976
0.00111991
0.00112005
0.00112019
0.00112031
0.00112041
0.00112051
0.00112058
0.00112065
0.0011207
0.00112073
0.00112076
0.00112078
0.00112079
0.0011208
0.0011208
0.0011208
0.00112079
0.00112078
0.00112078
0.00112077
0.00112076
0.00112075
0.00112074
0.00112073
0.00112073
0.00112072
0.00112072
0.00112071
0.00112071
0.00112071
0.0011207
0.0011207
0.0011207
0.0011207
0.0011207
0.00112069
0.00112069
0.00112068
0.00112068
0.00112067
0.00112066
0.00112065
0.00112064
0.00112062
0.00112061
0.0011206
0.00112059
0.00112058
0.00112057
0.00112056
0.00112055
0.00112054
0.00112052
0.0011205
0.00112047
0.00112042
0.00112036
0.00112029
0.00112018
0.00112005
0.00111988
0.00111966
0.0011194
0.00111909
0.00111874
0.00111834
0.00111792
0.00111748
0.00111704
0.0011166
0.00111617
0.00111574
0.00111534
0.00111496
0.00111467
0.00111449
0.00111447
0.0011147
0.00111519
0.00111575
0.00111611
0.00779871
0.00780048
0.00780029
0.00780029
0.00780027
0.00780025
0.00780025
0.00780025
0.00780027
0.0078003
0.00780034
0.0078004
0.00780047
0.00780057
0.00780068
0.00780081
0.00780096
0.00780112
0.00780129
0.00780147
0.00780164
0.00780182
0.00780199
0.00780214
0.00780229
0.00780242
0.00780253
0.00780263
0.00780271
0.00780279
0.00780284
0.00780289
0.00780293
0.00780296
0.00780298
0.00780299
0.007803
0.007803
0.007803
0.007803
0.007803
0.00780299
0.00780299
0.00780298
0.00780297
0.00780296
0.00780295
0.00780295
0.00780294
0.00780294
0.00780293
0.00780293
0.00780292
0.00780292
0.00780291
0.0078029
0.00780289
0.00780287
0.00780286
0.00780284
0.00780281
0.00780279
0.00780276
0.00780273
0.0078027
0.00780267
0.00780264
0.0078026
0.00780257
0.00780253
0.0078025
0.00780247
0.00780243
0.0078024
0.00780237
0.00780234
0.00780231
0.00780227
0.00780223
0.00780219
0.00780214
0.00780208
0.00780201
0.00780193
0.00780184
0.00780174
0.00780162
0.0078015
0.00780136
0.00780123
0.00780109
0.00780096
0.00780083
0.00780071
0.00780061
0.00780053
0.00780048
0.00780042
0.00780057
0.00778904
0.0108501
0.0108492
0.010849
0.0108487
0.0108484
0.0108481
0.010848
0.0108479
0.0108478
0.0108478
0.0108479
0.0108479
0.010848
0.0108481
0.0108482
0.0108482
0.0108483
0.0108484
0.0108485
0.0108485
0.0108486
0.0108486
0.0108487
0.0108487
0.0108488
0.0108488
0.0108488
0.0108488
0.0108489
0.0108489
0.0108489
0.0108489
0.0108489
0.0108489
0.0108488
0.0108488
0.0108488
0.0108488
0.0108488
0.0108488
0.0108488
0.0108488
0.0108488
0.0108488
0.0108488
0.0108488
0.0108488
0.0108488
0.0108487
0.0108487
0.0108487
0.0108487
0.0108487
0.0108487
0.0108487
0.0108487
0.0108487
0.0108487
0.0108487
0.0108487
0.0108487
0.0108487
0.0108486
0.0108486
0.0108486
0.0108486
0.0108486
0.0108486
0.0108486
0.0108486
0.0108486
0.0108486
0.0108486
0.0108486
0.0108486
0.0108487
0.0108487
0.0108487
0.0108487
0.0108487
0.0108488
0.0108488
0.0108488
0.0108488
0.0108488
0.0108488
0.0108488
0.0108488
0.0108488
0.0108488
0.0108488
0.0108489
0.0108489
0.0108491
0.0108493
0.0108496
0.01085
0.0108504
0.0108507
0.0108516
0.0109622
0.0109645
0.0109638
0.0109629
0.0109618
0.0109608
0.0109598
0.0109589
0.0109583
0.0109578
0.0109575
0.0109574
0.0109574
0.0109574
0.0109574
0.0109574
0.0109574
0.0109575
0.0109576
0.0109577
0.0109579
0.0109582
0.0109585
0.0109587
0.010959
0.0109592
0.0109594
0.0109595
0.0109596
0.0109597
0.0109598
0.0109598
0.0109599
0.0109599
0.01096
0.01096
0.01096
0.01096
0.0109601
0.0109601
0.0109601
0.0109601
0.0109601
0.0109601
0.0109601
0.0109602
0.0109602
0.0109602
0.0109602
0.0109602
0.0109602
0.0109602
0.0109602
0.0109602
0.0109602
0.0109602
0.0109602
0.0109602
0.0109602
0.0109602
0.0109602
0.0109602
0.0109602
0.0109602
0.0109602
0.0109602
0.0109603
0.0109603
0.0109603
0.0109603
0.0109603
0.0109603
0.0109603
0.0109603
0.0109603
0.0109602
0.0109601
0.0109599
0.0109598
0.0109596
0.0109594
0.0109593
0.0109592
0.0109591
0.0109591
0.0109591
0.0109591
0.0109592
0.0109593
0.0109597
0.0109602
0.010961
0.0109619
0.0109632
0.0109642
0.0109655
0.0109663
0.0109672
0.0109677
0.010966
0.0376512
0.0376716
0.0376716
0.0376716
0.0376716
0.0376716
0.0376715
0.0376715
0.0376714
0.0376714
0.0376713
0.0376713
0.0376713
0.0376713
0.0376713
0.0376713
0.0376713
0.0376714
0.0376714
0.0376715
0.0376716
0.0376717
0.0376718
0.037672
0.0376721
0.0376721
0.0376722
0.0376723
0.0376724
0.0376724
0.0376725
0.0376725
0.0376725
0.0376726
0.0376726
0.0376726
0.0376726
0.0376726
0.0376726
0.0376726
0.0376727
0.0376727
0.0376727
0.0376727
0.0376727
0.0376727
0.0376727
0.0376727
0.0376727
0.0376727
0.0376727
0.0376727
0.0376727
0.0376727
0.0376727
0.0376727
0.0376727
0.0376727
0.0376726
0.0376726
0.0376726
0.0376726
0.0376726
0.0376726
0.0376726
0.0376726
0.0376725
0.0376725
0.0376725
0.0376725
0.0376724
0.0376724
0.0376723
0.0376723
0.0376722
0.0376722
0.0376721
0.0376721
0.037672
0.037672
0.0376719
0.0376719
0.0376718
0.0376718
0.0376718
0.0376718
0.0376718
0.0376718
0.0376719
0.0376719
0.037672
0.0376721
0.0376722
0.0376723
0.0376724
0.0376724
0.0376724
0.0376724
0.0376724
0.0376395
0.0205208
0.0205544
0.0205545
0.0205545
0.0205545
0.0205545
0.0205545
0.0205544
0.0205544
0.0205544
0.0205544
0.0205544
0.0205544
0.0205543
0.0205543
0.0205543
0.0205542
0.0205542
0.0205542
0.0205541
0.0205541
0.0205541
0.020554
0.020554
0.020554
0.0205539
0.0205539
0.0205539
0.0205538
0.0205538
0.0205538
0.0205537
0.0205537
0.0205537
0.0205537
0.0205536
0.0205536
0.0205536
0.0205536
0.0205536
0.0205536
0.0205536
0.0205536
0.0205536
0.0205536
0.0205536
0.0205536
0.0205536
0.0205536
0.0205536
0.0205536
0.0205536
0.0205536
0.0205536
0.0205536
0.0205536
0.0205536
0.0205536
0.0205536
0.0205536
0.0205536
0.0205536
0.0205536
0.0205536
0.0205536
0.0205536
0.0205536
0.0205536
0.0205536
0.0205537
0.0205537
0.0205537
0.0205537
0.0205537
0.0205537
0.0205538
0.0205538
0.0205538
0.0205538
0.0205538
0.0205538
0.0205538
0.0205538
0.0205538
0.0205538
0.0205538
0.0205539
0.0205539
0.0205539
0.0205539
0.0205539
0.0205539
0.0205539
0.0205539
0.020554
0.020554
0.020554
0.020554
0.0205539
0.0205089
0.00269148
0.00269409
0.00269408
0.00269408
0.00269408
0.00269407
0.00269406
0.00269404
0.00269402
0.002694
0.00269397
0.00269394
0.00269391
0.00269388
0.00269385
0.00269382
0.00269378
0.00269375
0.00269373
0.0026937
0.00269368
0.00269365
0.00269364
0.00269362
0.0026936
0.00269359
0.00269358
0.00269357
0.00269357
0.00269356
0.00269356
0.00269355
0.00269355
0.00269354
0.00269354
0.00269354
0.00269354
0.00269354
0.00269353
0.00269353
0.00269353
0.00269353
0.00269353
0.00269353
0.00269353
0.00269353
0.00269353
0.00269353
0.00269353
0.00269353
0.00269353
0.00269353
0.00269353
0.00269353
0.00269353
0.00269353
0.00269353
0.00269353
0.00269353
0.00269353
0.00269353
0.00269353
0.00269353
0.00269353
0.00269353
0.00269353
0.00269353
0.00269353
0.00269352
0.00269352
0.00269352
0.00269352
0.00269352
0.00269352
0.00269352
0.00269352
0.00269352
0.00269353
0.00269353
0.00269354
0.00269354
0.00269356
0.00269357
0.00269359
0.00269361
0.00269363
0.00269365
0.00269367
0.00269369
0.00269371
0.00269373
0.00269375
0.00269377
0.00269378
0.00269379
0.00269379
0.00269379
0.00269379
0.00269379
0.00269057
4.62373e-05
4.77366e-05
4.77723e-05
4.77807e-05
4.77826e-05
4.7783e-05
4.77831e-05
4.77832e-05
4.77833e-05
4.77832e-05
4.77829e-05
4.77824e-05
4.77815e-05
4.77801e-05
4.77782e-05
4.77757e-05
4.77727e-05
4.77691e-05
4.77652e-05
4.77613e-05
4.77574e-05
4.77539e-05
4.77508e-05
4.77484e-05
4.77467e-05
4.77455e-05
4.77448e-05
4.77445e-05
4.77443e-05
4.77443e-05
4.77444e-05
4.77445e-05
4.77447e-05
4.77449e-05
4.77453e-05
4.77456e-05
4.7746e-05
4.77463e-05
4.77466e-05
4.77469e-05
4.77472e-05
4.77474e-05
4.77475e-05
4.77476e-05
4.77477e-05
4.77477e-05
4.77478e-05
4.77478e-05
4.77478e-05
4.77478e-05
4.77478e-05
4.77478e-05
4.77478e-05
4.77478e-05
4.77477e-05
4.77477e-05
4.77476e-05
4.77474e-05
4.77473e-05
4.7747e-05
4.77467e-05
4.77463e-05
4.77458e-05
4.77453e-05
4.77447e-05
4.77442e-05
4.77436e-05
4.77432e-05
4.77428e-05
4.77425e-05
4.77423e-05
4.77422e-05
4.77422e-05
4.77423e-05
4.77425e-05
4.77431e-05
4.77441e-05
4.77456e-05
4.77478e-05
4.77504e-05
4.77534e-05
4.77564e-05
4.77594e-05
4.7762e-05
4.77641e-05
4.77657e-05
4.77667e-05
4.77673e-05
4.77676e-05
4.77677e-05
4.77677e-05
4.77676e-05
4.77674e-05
4.77671e-05
4.77667e-05
4.77662e-05
4.77642e-05
4.77559e-05
4.77214e-05
4.62829e-05
9.34511e-07
9.34197e-07
9.33347e-07
9.31903e-07
9.29993e-07
9.27889e-07
9.25906e-07
9.24304e-07
9.2321e-07
9.22604e-07
9.22355e-07
9.22295e-07
9.22299e-07
9.22362e-07
9.22555e-07
9.22938e-07
9.23539e-07
9.24358e-07
9.25367e-07
9.26525e-07
9.27785e-07
9.29098e-07
9.30417e-07
9.31702e-07
9.32916e-07
9.34032e-07
9.35029e-07
9.35894e-07
9.36622e-07
9.37215e-07
9.37681e-07
9.38035e-07
9.38293e-07
9.38474e-07
9.38595e-07
9.38671e-07
9.38715e-07
9.38739e-07
9.38748e-07
9.38749e-07
9.38745e-07
9.38738e-07
9.38732e-07
9.38726e-07
9.38721e-07
9.38718e-07
9.38715e-07
9.38713e-07
9.38712e-07
9.38712e-07
9.38711e-07
9.38711e-07
9.38711e-07
9.38711e-07
9.38712e-07
9.38713e-07
9.38714e-07
9.38715e-07
9.38716e-07
9.38714e-07
9.38708e-07
9.38694e-07
9.38669e-07
9.38626e-07
9.38557e-07
9.38452e-07
9.38298e-07
9.3808e-07
9.37781e-07
9.37385e-07
9.36878e-07
9.36248e-07
9.35487e-07
9.34594e-07
9.33575e-07
9.3244e-07
9.3121e-07
9.29909e-07
9.28571e-07
9.27239e-07
9.25962e-07
9.24797e-07
9.23797e-07
9.23009e-07
9.22455e-07
9.22127e-07
9.2198e-07
9.21942e-07
9.21952e-07
9.22045e-07
9.22354e-07
9.23035e-07
9.24201e-07
9.25857e-07
9.27871e-07
9.29988e-07
9.31901e-07
9.33349e-07
9.34205e-07
9.34522e-07
3.77796e-07
3.91005e-07
3.91102e-07
3.91453e-07
3.91693e-07
3.91828e-07
3.91889e-07
3.91908e-07
3.91908e-07
3.91898e-07
3.91861e-07
3.91774e-07
3.91615e-07
3.91366e-07
3.91018e-07
3.90568e-07
3.90023e-07
3.89397e-07
3.8871e-07
3.87983e-07
3.87239e-07
3.86499e-07
3.85779e-07
3.85094e-07
3.84454e-07
3.83867e-07
3.83336e-07
3.82864e-07
3.82451e-07
3.82094e-07
3.81791e-07
3.81537e-07
3.81329e-07
3.81159e-07
3.81024e-07
3.80917e-07
3.80834e-07
3.80771e-07
3.80723e-07
3.80688e-07
3.80663e-07
3.80645e-07
3.80634e-07
3.80626e-07
3.80621e-07
3.80618e-07
3.80617e-07
3.80616e-07
3.80616e-07
3.80616e-07
3.80616e-07
3.80616e-07
3.80616e-07
3.80618e-07
3.8062e-07
3.80624e-07
3.8063e-07
3.8064e-07
3.80655e-07
3.80676e-07
3.80706e-07
3.80747e-07
3.80802e-07
3.80874e-07
3.80967e-07
3.81085e-07
3.81233e-07
3.81416e-07
3.81638e-07
3.81906e-07
3.82224e-07
3.82595e-07
3.83021e-07
3.83505e-07
3.84045e-07
3.84638e-07
3.85281e-07
3.85964e-07
3.86678e-07
3.87407e-07
3.88133e-07
3.88835e-07
3.89492e-07
3.90082e-07
3.90586e-07
3.90993e-07
3.91299e-07
3.91508e-07
3.91636e-07
3.91702e-07
3.91728e-07
3.91734e-07
3.91727e-07
3.91693e-07
3.9161e-07
3.91459e-07
3.91234e-07
3.90966e-07
3.90922e-07
3.81386e-07
0.00110356
0.00111519
0.0011157
0.00111582
0.00111589
0.00111596
0.00111603
0.0011161
0.00111619
0.00111629
0.0011164
0.00111653
0.00111667
0.00111682
0.00111698
0.00111715
0.00111732
0.00111749
0.00111766
0.00111782
0.00111798
0.00111813
0.00111826
0.00111838
0.00111848
0.00111857
0.00111864
0.0011187
0.00111875
0.00111878
0.00111881
0.00111883
0.00111884
0.00111885
0.00111885
0.00111886
0.00111885
0.00111885
0.00111885
0.00111884
0.00111884
0.00111883
0.00111883
0.00111882
0.00111882
0.00111882
0.00111881
0.00111881
0.00111881
0.00111881
0.0011188
0.0011188
0.0011188
0.0011188
0.0011188
0.0011188
0.0011188
0.0011188
0.00111879
0.00111879
0.00111879
0.00111879
0.0011188
0.00111881
0.00111882
0.00111883
0.00111886
0.00111888
0.00111891
0.00111894
0.00111897
0.001119
0.00111903
0.00111904
0.00111905
0.00111904
0.00111901
0.00111895
0.00111887
0.00111875
0.0011186
0.0011184
0.00111816
0.00111787
0.00111754
0.00111718
0.0011168
0.00111639
0.00111599
0.00111557
0.00111517
0.00111476
0.00111439
0.00111409
0.00111389
0.00111378
0.00111376
0.00111382
0.00111397
0.0011133
0.0078089
0.0078156
0.00781548
0.00781548
0.00781544
0.00781544
0.00781544
0.00781545
0.00781547
0.00781551
0.00781556
0.00781564
0.00781573
0.00781584
0.00781596
0.0078161
0.00781625
0.00781641
0.00781658
0.00781675
0.00781692
0.00781708
0.00781724
0.00781738
0.00781752
0.00781764
0.00781775
0.00781784
0.00781793
0.007818
0.00781806
0.00781811
0.00781815
0.00781819
0.00781822
0.00781824
0.00781826
0.00781827
0.00781828
0.00781828
0.00781829
0.00781829
0.00781829
0.00781829
0.00781828
0.00781828
0.00781828
0.00781827
0.00781827
0.00781826
0.00781826
0.00781826
0.00781826
0.00781825
0.00781825
0.00781825
0.00781824
0.00781823
0.00781823
0.00781822
0.00781821
0.0078182
0.00781819
0.00781817
0.00781816
0.00781815
0.00781813
0.00781812
0.00781811
0.0078181
0.00781809
0.00781808
0.00781807
0.00781806
0.00781806
0.00781805
0.00781804
0.00781802
0.007818
0.00781798
0.00781794
0.0078179
0.00781785
0.00781778
0.0078177
0.0078176
0.00781749
0.00781737
0.00781725
0.00781711
0.00781698
0.00781685
0.00781673
0.00781661
0.00781651
0.00781644
0.0078164
0.00781628
0.00781635
0.00779701
0.0108577
0.0108565
0.0108564
0.0108563
0.0108561
0.0108559
0.0108558
0.0108556
0.0108556
0.0108556
0.0108556
0.0108556
0.0108557
0.0108558
0.0108559
0.0108559
0.010856
0.0108561
0.0108562
0.0108562
0.0108563
0.0108563
0.0108564
0.0108564
0.0108564
0.0108565
0.0108565
0.0108565
0.0108565
0.0108565
0.0108565
0.0108565
0.0108565
0.0108564
0.0108564
0.0108564
0.0108564
0.0108564
0.0108564
0.0108564
0.0108564
0.0108564
0.0108564
0.0108564
0.0108564
0.0108563
0.0108563
0.0108563
0.0108563
0.0108563
0.0108563
0.0108563
0.0108563
0.0108563
0.0108563
0.0108563
0.0108563
0.0108563
0.0108563
0.0108563
0.0108563
0.0108563
0.0108563
0.0108563
0.0108562
0.0108562
0.0108562
0.0108563
0.0108563
0.0108563
0.0108563
0.0108563
0.0108563
0.0108563
0.0108564
0.0108564
0.0108564
0.0108564
0.0108565
0.0108565
0.0108565
0.0108566
0.0108566
0.0108566
0.0108566
0.0108566
0.0108566
0.0108566
0.0108566
0.0108566
0.0108566
0.0108567
0.0108568
0.010857
0.0108572
0.0108575
0.0108577
0.0108579
0.010858
0.0108594
0.0109991
0.0109969
0.0109958
0.0109943
0.0109928
0.0109914
0.0109902
0.0109894
0.0109888
0.0109885
0.0109883
0.0109882
0.0109882
0.0109882
0.0109882
0.0109882
0.0109882
0.0109883
0.0109884
0.0109886
0.0109888
0.0109891
0.0109894
0.0109896
0.0109899
0.0109901
0.0109903
0.0109905
0.0109906
0.0109907
0.0109908
0.0109909
0.0109909
0.010991
0.010991
0.010991
0.0109911
0.0109911
0.0109911
0.0109911
0.0109912
0.0109912
0.0109912
0.0109912
0.0109912
0.0109912
0.0109912
0.0109912
0.0109912
0.0109912
0.0109912
0.0109912
0.0109912
0.0109912
0.0109912
0.0109912
0.0109912
0.0109912
0.0109912
0.0109912
0.0109913
0.0109913
0.0109913
0.0109913
0.0109913
0.0109913
0.0109913
0.0109913
0.0109914
0.0109914
0.0109914
0.0109914
0.0109914
0.0109913
0.0109913
0.0109912
0.0109911
0.0109909
0.0109907
0.0109906
0.0109904
0.0109902
0.0109901
0.0109901
0.01099
0.01099
0.01099
0.0109901
0.0109902
0.0109904
0.0109908
0.0109914
0.0109923
0.0109934
0.0109948
0.0109965
0.0109984
0.0110001
0.0110014
0.0110038
0.0376381
0.0376569
0.0376569
0.0376569
0.0376569
0.0376569
0.0376568
0.0376568
0.0376567
0.0376567
0.0376566
0.0376566
0.0376566
0.0376566
0.0376566
0.0376566
0.0376567
0.0376567
0.0376568
0.0376568
0.0376569
0.037657
0.0376571
0.0376573
0.0376574
0.0376574
0.0376575
0.0376576
0.0376577
0.0376577
0.0376578
0.0376578
0.0376578
0.0376579
0.0376579
0.0376579
0.0376579
0.0376579
0.0376579
0.0376579
0.0376579
0.0376579
0.037658
0.037658
0.037658
0.037658
0.037658
0.037658
0.037658
0.037658
0.037658
0.037658
0.037658
0.037658
0.037658
0.037658
0.037658
0.0376579
0.0376579
0.0376579
0.0376579
0.0376579
0.0376579
0.0376579
0.0376579
0.0376579
0.0376578
0.0376578
0.0376578
0.0376578
0.0376577
0.0376577
0.0376577
0.0376576
0.0376576
0.0376575
0.0376575
0.0376574
0.0376574
0.0376573
0.0376573
0.0376572
0.0376572
0.0376572
0.0376572
0.0376572
0.0376572
0.0376572
0.0376573
0.0376573
0.0376574
0.0376575
0.0376576
0.0376577
0.0376578
0.0376578
0.0376579
0.0376579
0.0376578
0.0376264
0.0204984
0.0205319
0.020532
0.020532
0.020532
0.020532
0.020532
0.0205319
0.0205319
0.0205319
0.0205319
0.0205319
0.0205319
0.0205318
0.0205318
0.0205318
0.0205317
0.0205317
0.0205317
0.0205317
0.0205316
0.0205316
0.0205316
0.0205315
0.0205315
0.0205314
0.0205314
0.0205314
0.0205313
0.0205313
0.0205313
0.0205312
0.0205312
0.0205312
0.0205312
0.0205312
0.0205311
0.0205311
0.0205311
0.0205311
0.0205311
0.0205311
0.0205311
0.0205311
0.0205311
0.0205311
0.0205311
0.0205311
0.0205311
0.0205311
0.0205311
0.0205311
0.0205311
0.0205311
0.0205311
0.0205311
0.0205311
0.0205311
0.0205311
0.0205311
0.0205311
0.0205311
0.0205311
0.0205311
0.0205311
0.0205311
0.0205311
0.0205312
0.0205312
0.0205312
0.0205312
0.0205312
0.0205312
0.0205312
0.0205313
0.0205313
0.0205313
0.0205313
0.0205313
0.0205313
0.0205313
0.0205313
0.0205313
0.0205313
0.0205313
0.0205314
0.0205314
0.0205314
0.0205314
0.0205314
0.0205314
0.0205314
0.0205314
0.0205315
0.0205315
0.0205315
0.0205315
0.0205315
0.0205314
0.0204864
0.0026814
0.00268398
0.00268397
0.00268397
0.00268396
0.00268395
0.00268394
0.00268392
0.0026839
0.00268388
0.00268386
0.00268383
0.0026838
0.00268377
0.00268373
0.0026837
0.00268367
0.00268364
0.00268361
0.00268359
0.00268356
0.00268354
0.00268352
0.00268351
0.00268349
0.00268348
0.00268347
0.00268346
0.00268346
0.00268345
0.00268345
0.00268344
0.00268344
0.00268344
0.00268343
0.00268343
0.00268343
0.00268343
0.00268343
0.00268342
0.00268342
0.00268342
0.00268342
0.00268342
0.00268342
0.00268342
0.00268342
0.00268342
0.00268342
0.00268342
0.00268342
0.00268342
0.00268342
0.00268342
0.00268342
0.00268342
0.00268342
0.00268342
0.00268342
0.00268342
0.00268342
0.00268342
0.00268342
0.00268342
0.00268342
0.00268342
0.00268342
0.00268342
0.00268341
0.00268341
0.00268341
0.00268341
0.00268341
0.00268341
0.00268341
0.00268341
0.00268341
0.00268341
0.00268342
0.00268342
0.00268343
0.00268344
0.00268346
0.00268347
0.00268349
0.00268351
0.00268354
0.00268356
0.00268358
0.0026836
0.00268362
0.00268364
0.00268365
0.00268366
0.00268367
0.00268368
0.00268368
0.00268369
0.00268369
0.00268041
4.58947e-05
4.73983e-05
4.74305e-05
4.74383e-05
4.74404e-05
4.7441e-05
4.74412e-05
4.74414e-05
4.74416e-05
4.74415e-05
4.74413e-05
4.74408e-05
4.74401e-05
4.74389e-05
4.74372e-05
4.7435e-05
4.74322e-05
4.74289e-05
4.74253e-05
4.74215e-05
4.74178e-05
4.74144e-05
4.74115e-05
4.74091e-05
4.74074e-05
4.74062e-05
4.74055e-05
4.74051e-05
4.74049e-05
4.74049e-05
4.74049e-05
4.7405e-05
4.74052e-05
4.74054e-05
4.74057e-05
4.7406e-05
4.74064e-05
4.74067e-05
4.7407e-05
4.74073e-05
4.74076e-05
4.74078e-05
4.74079e-05
4.7408e-05
4.74081e-05
4.74081e-05
4.74082e-05
4.74082e-05
4.74082e-05
4.74082e-05
4.74082e-05
4.74082e-05
4.74082e-05
4.74082e-05
4.74081e-05
4.74081e-05
4.7408e-05
4.74078e-05
4.74076e-05
4.74074e-05
4.74071e-05
4.74067e-05
4.74062e-05
4.74057e-05
4.74051e-05
4.74046e-05
4.74041e-05
4.74036e-05
4.74033e-05
4.7403e-05
4.74028e-05
4.74027e-05
4.74027e-05
4.74028e-05
4.7403e-05
4.74036e-05
4.74045e-05
4.7406e-05
4.7408e-05
4.74105e-05
4.74133e-05
4.74162e-05
4.74189e-05
4.74213e-05
4.74231e-05
4.74245e-05
4.74253e-05
4.74258e-05
4.7426e-05
4.7426e-05
4.7426e-05
4.74258e-05
4.74255e-05
4.74252e-05
4.74247e-05
4.7424e-05
4.7422e-05
4.74141e-05
4.73829e-05
4.59358e-05
9.31137e-07
9.30825e-07
9.29975e-07
9.2852e-07
9.26584e-07
9.24434e-07
9.2239e-07
9.20721e-07
9.19565e-07
9.18911e-07
9.18632e-07
9.18559e-07
9.18556e-07
9.18609e-07
9.1878e-07
9.19127e-07
9.19685e-07
9.20455e-07
9.21416e-07
9.22531e-07
9.23755e-07
9.25039e-07
9.26336e-07
9.27602e-07
9.288e-07
9.299e-07
9.30881e-07
9.31728e-07
9.32437e-07
9.33012e-07
9.33462e-07
9.33802e-07
9.3405e-07
9.34222e-07
9.34337e-07
9.3441e-07
9.34452e-07
9.34474e-07
9.34482e-07
9.34481e-07
9.34475e-07
9.34468e-07
9.34461e-07
9.34454e-07
9.34449e-07
9.34445e-07
9.34442e-07
9.34441e-07
9.3444e-07
9.34439e-07
9.34439e-07
9.34438e-07
9.34438e-07
9.34439e-07
9.34439e-07
9.34441e-07
9.34443e-07
9.34445e-07
9.34447e-07
9.34447e-07
9.34443e-07
9.34432e-07
9.34408e-07
9.34368e-07
9.34303e-07
9.34203e-07
9.34055e-07
9.33846e-07
9.33558e-07
9.33177e-07
9.32686e-07
9.32074e-07
9.31331e-07
9.30457e-07
9.29456e-07
9.2834e-07
9.27131e-07
9.25855e-07
9.24551e-07
9.23261e-07
9.22034e-07
9.20922e-07
9.19973e-07
9.19225e-07
9.18698e-07
9.18384e-07
9.1824e-07
9.18203e-07
9.18211e-07
9.18301e-07
9.18612e-07
9.19305e-07
9.20497e-07
9.22188e-07
9.24234e-07
9.2637e-07
9.28284e-07
9.29718e-07
9.30556e-07
9.30863e-07
3.77778e-07
3.93333e-07
3.93461e-07
3.93861e-07
3.94113e-07
3.94247e-07
3.94306e-07
3.94322e-07
3.94322e-07
3.94312e-07
3.94273e-07
3.94183e-07
3.94018e-07
3.93762e-07
3.93405e-07
3.92944e-07
3.92389e-07
3.91753e-07
3.91057e-07
3.90322e-07
3.89571e-07
3.88825e-07
3.88101e-07
3.87412e-07
3.8677e-07
3.86181e-07
3.85649e-07
3.85176e-07
3.84762e-07
3.84406e-07
3.84103e-07
3.8385e-07
3.83642e-07
3.83473e-07
3.83337e-07
3.8323e-07
3.83147e-07
3.83083e-07
3.83036e-07
3.83e-07
3.82975e-07
3.82957e-07
3.82945e-07
3.82937e-07
3.82932e-07
3.8293e-07
3.82928e-07
3.82927e-07
3.82927e-07
3.82927e-07
3.82927e-07
3.82927e-07
3.82928e-07
3.82929e-07
3.82931e-07
3.82935e-07
3.82941e-07
3.82952e-07
3.82967e-07
3.82988e-07
3.83019e-07
3.8306e-07
3.83115e-07
3.83187e-07
3.8328e-07
3.83399e-07
3.83546e-07
3.83729e-07
3.83952e-07
3.84219e-07
3.84536e-07
3.84907e-07
3.85333e-07
3.85817e-07
3.86358e-07
3.86954e-07
3.87598e-07
3.88285e-07
3.89002e-07
3.89735e-07
3.90467e-07
3.91176e-07
3.9184e-07
3.92438e-07
3.92951e-07
3.93367e-07
3.9368e-07
3.93896e-07
3.94027e-07
3.94095e-07
3.9412e-07
3.94125e-07
3.9412e-07
3.94091e-07
3.94013e-07
3.93862e-07
3.93623e-07
3.93314e-07
3.93265e-07
3.81866e-07
0.00110259
0.00112399
0.00112455
0.00112465
0.00112472
0.00112477
0.00112483
0.0011249
0.00112499
0.00112508
0.00112519
0.00112531
0.00112544
0.00112559
0.00112575
0.00112592
0.00112609
0.00112627
0.00112645
0.00112662
0.00112678
0.00112694
0.00112708
0.0011272
0.00112731
0.00112741
0.00112748
0.00112755
0.0011276
0.00112764
0.00112768
0.0011277
0.00112773
0.00112774
0.00112775
0.00112776
0.00112777
0.00112777
0.00112778
0.00112778
0.00112778
0.00112777
0.00112777
0.00112777
0.00112777
0.00112777
0.00112777
0.00112776
0.00112776
0.00112776
0.00112776
0.00112776
0.00112776
0.00112776
0.00112776
0.00112776
0.00112777
0.00112777
0.00112778
0.00112779
0.00112781
0.00112782
0.00112785
0.00112788
0.00112792
0.00112798
0.00112804
0.00112811
0.00112819
0.00112827
0.00112836
0.00112844
0.00112852
0.00112859
0.00112865
0.0011287
0.00112872
0.00112873
0.00112871
0.00112866
0.00112859
0.00112848
0.00112833
0.00112814
0.00112791
0.00112764
0.00112732
0.00112697
0.00112659
0.00112619
0.00112578
0.0011254
0.00112507
0.00112481
0.00112462
0.00112449
0.00112436
0.0011244
0.00112455
0.00111608
0.00780998
0.00781681
0.00781676
0.0078167
0.00781667
0.00781668
0.00781669
0.00781671
0.00781675
0.0078168
0.00781688
0.00781698
0.0078171
0.00781724
0.0078174
0.00781758
0.00781777
0.00781797
0.00781818
0.00781838
0.00781858
0.00781878
0.00781897
0.00781915
0.00781932
0.00781947
0.00781961
0.00781974
0.00781985
0.00781996
0.00782005
0.00782013
0.0078202
0.00782026
0.00782031
0.00782036
0.0078204
0.00782043
0.00782046
0.00782048
0.0078205
0.00782052
0.00782053
0.00782054
0.00782054
0.00782054
0.00782054
0.00782054
0.00782054
0.00782054
0.00782054
0.00782054
0.00782054
0.00782054
0.00782054
0.00782055
0.00782055
0.00782055
0.00782055
0.00782055
0.00782056
0.00782056
0.00782056
0.00782056
0.00782056
0.00782056
0.00782056
0.00782055
0.00782055
0.00782054
0.00782054
0.00782053
0.00782051
0.0078205
0.00782048
0.00782046
0.00782043
0.00782039
0.00782034
0.00782029
0.00782023
0.00782016
0.00782007
0.00781997
0.00781986
0.00781974
0.00781961
0.00781947
0.00781933
0.00781918
0.00781904
0.0078189
0.00781877
0.00781865
0.00781853
0.00781844
0.00781841
0.00781832
0.0078183
0.00780163
0.0108667
0.0108653
0.0108652
0.0108651
0.010865
0.0108649
0.0108648
0.0108647
0.0108646
0.0108646
0.0108646
0.0108646
0.0108647
0.0108648
0.0108649
0.010865
0.010865
0.0108651
0.0108652
0.0108652
0.0108652
0.0108653
0.0108653
0.0108653
0.0108653
0.0108653
0.0108653
0.0108653
0.0108653
0.0108653
0.0108653
0.0108653
0.0108652
0.0108652
0.0108652
0.0108652
0.0108652
0.0108652
0.0108652
0.0108651
0.0108651
0.0108651
0.0108651
0.0108651
0.0108651
0.0108651
0.0108651
0.0108651
0.0108651
0.0108651
0.0108651
0.0108651
0.0108651
0.0108651
0.0108651
0.0108651
0.0108651
0.0108651
0.0108651
0.0108651
0.010865
0.010865
0.010865
0.010865
0.0108651
0.0108651
0.0108651
0.0108651
0.0108651
0.0108651
0.0108652
0.0108652
0.0108652
0.0108653
0.0108653
0.0108653
0.0108654
0.0108654
0.0108655
0.0108655
0.0108656
0.0108656
0.0108656
0.0108657
0.0108657
0.0108657
0.0108657
0.0108656
0.0108656
0.0108657
0.0108657
0.0108658
0.0108659
0.0108661
0.0108663
0.0108665
0.0108667
0.0108668
0.010867
0.0108687
0.0109832
0.0110048
0.011004
0.0110031
0.0110022
0.0110014
0.0110007
0.011
0.0109995
0.0109991
0.0109989
0.0109987
0.0109986
0.0109986
0.0109986
0.0109986
0.0109986
0.0109987
0.0109988
0.010999
0.0109992
0.0109995
0.0109997
0.011
0.0110002
0.0110004
0.0110006
0.0110008
0.0110009
0.011001
0.011001
0.0110011
0.0110012
0.0110012
0.0110012
0.0110013
0.0110013
0.0110013
0.0110014
0.0110014
0.0110014
0.0110014
0.0110014
0.0110014
0.0110014
0.0110014
0.0110014
0.0110015
0.0110015
0.0110015
0.0110015
0.0110015
0.0110015
0.0110015
0.0110015
0.0110015
0.0110015
0.0110015
0.0110015
0.0110015
0.0110015
0.0110015
0.0110015
0.0110015
0.0110015
0.0110015
0.0110016
0.0110016
0.0110016
0.0110016
0.0110017
0.0110017
0.0110017
0.0110017
0.0110016
0.0110016
0.0110015
0.0110013
0.0110012
0.011001
0.0110009
0.0110007
0.0110006
0.0110006
0.0110006
0.0110006
0.0110006
0.0110007
0.0110008
0.0110012
0.0110016
0.0110023
0.0110031
0.011004
0.0110049
0.0110059
0.0110066
0.0110074
0.0110079
0.0109879
0.0376651
0.0376803
0.0376803
0.0376803
0.0376803
0.0376802
0.0376802
0.0376801
0.03768
0.03768
0.03768
0.0376799
0.0376799
0.0376799
0.0376799
0.03768
0.03768
0.03768
0.0376801
0.0376802
0.0376803
0.0376804
0.0376805
0.0376806
0.0376807
0.0376808
0.0376809
0.0376809
0.037681
0.037681
0.0376811
0.0376811
0.0376812
0.0376812
0.0376812
0.0376812
0.0376813
0.0376813
0.0376813
0.0376813
0.0376813
0.0376813
0.0376813
0.0376813
0.0376813
0.0376813
0.0376813
0.0376813
0.0376813
0.0376813
0.0376813
0.0376813
0.0376813
0.0376813
0.0376813
0.0376813
0.0376813
0.0376813
0.0376813
0.0376813
0.0376813
0.0376813
0.0376813
0.0376812
0.0376812
0.0376812
0.0376812
0.0376812
0.0376811
0.0376811
0.0376811
0.0376811
0.037681
0.037681
0.0376809
0.0376809
0.0376808
0.0376808
0.0376807
0.0376807
0.0376806
0.0376806
0.0376806
0.0376806
0.0376806
0.0376806
0.0376806
0.0376806
0.0376807
0.0376807
0.0376808
0.0376809
0.037681
0.0376811
0.0376812
0.0376812
0.0376813
0.0376813
0.0376813
0.0376538
0.020523
0.0205583
0.0205583
0.0205583
0.0205583
0.0205583
0.0205583
0.0205583
0.0205583
0.0205583
0.0205583
0.0205582
0.0205582
0.0205582
0.0205582
0.0205581
0.0205581
0.0205581
0.020558
0.020558
0.020558
0.0205579
0.0205579
0.0205579
0.0205578
0.0205578
0.0205577
0.0205577
0.0205577
0.0205576
0.0205576
0.0205576
0.0205576
0.0205575
0.0205575
0.0205575
0.0205575
0.0205575
0.0205575
0.0205574
0.0205574
0.0205574
0.0205574
0.0205574
0.0205574
0.0205574
0.0205574
0.0205574
0.0205574
0.0205574
0.0205574
0.0205574
0.0205574
0.0205574
0.0205574
0.0205574
0.0205574
0.0205574
0.0205574
0.0205574
0.0205574
0.0205574
0.0205574
0.0205574
0.0205575
0.0205575
0.0205575
0.0205575
0.0205575
0.0205575
0.0205575
0.0205576
0.0205576
0.0205576
0.0205576
0.0205576
0.0205576
0.0205576
0.0205576
0.0205577
0.0205577
0.0205577
0.0205577
0.0205577
0.0205577
0.0205577
0.0205577
0.0205577
0.0205578
0.0205578
0.0205578
0.0205578
0.0205578
0.0205578
0.0205578
0.0205578
0.0205578
0.0205578
0.0205578
0.0205109
0.00268108
0.0026836
0.00268358
0.00268357
0.00268356
0.00268355
0.00268354
0.00268352
0.00268351
0.00268348
0.00268346
0.00268343
0.0026834
0.00268337
0.00268334
0.0026833
0.00268327
0.00268324
0.00268322
0.00268319
0.00268317
0.00268314
0.00268313
0.00268311
0.0026831
0.00268308
0.00268307
0.00268307
0.00268306
0.00268305
0.00268305
0.00268304
0.00268304
0.00268303
0.00268303
0.00268303
0.00268303
0.00268303
0.00268302
0.00268302
0.00268302
0.00268302
0.00268302
0.00268302
0.00268302
0.00268302
0.00268302
0.00268302
0.00268302
0.00268302
0.00268302
0.00268302
0.00268302
0.00268302
0.00268302
0.00268302
0.00268302
0.00268302
0.00268302
0.00268302
0.00268302
0.00268302
0.00268302
0.00268302
0.00268302
0.00268302
0.00268302
0.00268302
0.00268301
0.00268301
0.00268301
0.00268301
0.00268301
0.00268301
0.00268301
0.00268301
0.00268301
0.00268301
0.00268302
0.00268302
0.00268303
0.00268304
0.00268306
0.00268307
0.00268309
0.00268312
0.00268314
0.00268316
0.00268318
0.0026832
0.00268322
0.00268324
0.00268325
0.00268326
0.00268327
0.00268328
0.00268329
0.0026833
0.00268333
0.00267998
4.59297e-05
4.73563e-05
4.73782e-05
4.73829e-05
4.73855e-05
4.7387e-05
4.73878e-05
4.73883e-05
4.73885e-05
4.73884e-05
4.73882e-05
4.73877e-05
4.7387e-05
4.7386e-05
4.73845e-05
4.73825e-05
4.73801e-05
4.73772e-05
4.7374e-05
4.73707e-05
4.73674e-05
4.73643e-05