/*--------------------------------*- C++ -*----------------------------------*\
| =========                 |                                                 |
| \\      /  F ield         | OpenFOAM: The Open Source CFD Toolbox           |
|  \\    /   O peration     | Version:  2406                                  |
|   \\  /    A nd           | Website:  www.openfoam.com                      |
|    \\/     M anipulation  |                                                 |
\*---------------------------------------------------------------------------*/
FoamFile
{
    version     2.0;
    format      ascii;
    arch        "LSB;label=32;scalar=64";
    class       volVectorField;
    location    "0.003";
    object      U;
}
// * * * * * * * * * * * * * * * * * * * * * * * * * * * * * * * * * * * * * //

dimensions      [0 1 -1 0 0 0 0];

internalField   nonuniform List<vector> 
81000
(
(-0.0397495 0.380498 0)
(-0.0438723 0.381444 0)
(-0.0438885 0.381672 0)
(-0.04392 0.381712 0)
(-0.043911 0.381737 0)
(-0.043902 0.381761 0)
(-0.0439026 0.381786 0)
(-0.0438984 0.381814 0)
(-0.0438943 0.381845 0)
(-0.0438902 0.38188 0)
(-0.0438856 0.381919 0)
(-0.0438807 0.381961 0)
(-0.0438755 0.382006 0)
(-0.0438701 0.382055 0)
(-0.0438645 0.382106 0)
(-0.0438591 0.382159 0)
(-0.043854 0.382213 0)
(-0.043849 0.382268 0)
(-0.0438442 0.382322 0)
(-0.0438396 0.382375 0)
(-0.0438351 0.382425 0)
(-0.0438309 0.382471 0)
(-0.0438267 0.382513 0)
(-0.0438228 0.382551 0)
(-0.0438189 0.382583 0)
(-0.0438151 0.38261 0)
(-0.0438115 0.382633 0)
(-0.0438079 0.38265 0)
(-0.0438043 0.382663 0)
(-0.0438009 0.382673 0)
(-0.0437974 0.38268 0)
(-0.043794 0.382684 0)
(-0.0437906 0.382687 0)
(-0.0437872 0.382688 0)
(-0.043784 0.382687 0)
(-0.043781 0.382686 0)
(-0.0437782 0.382684 0)
(-0.0437756 0.382682 0)
(-0.0437731 0.382679 0)
(-0.0437708 0.382676 0)
(-0.0437688 0.382673 0)
(-0.0437669 0.382671 0)
(-0.0437653 0.382668 0)
(-0.0437639 0.382666 0)
(-0.0437628 0.382664 0)
(-0.0437619 0.382663 0)
(-0.0437612 0.382661 0)
(-0.0437606 0.38266 0)
(-0.0437602 0.382659 0)
(-0.04376 0.382659 0)
(-0.0437598 0.382658 0)
(-0.0437601 0.382658 0)
(-0.0437604 0.382657 0)
(-0.043761 0.382656 0)
(-0.0437618 0.382655 0)
(-0.0437629 0.382653 0)
(-0.0437643 0.382651 0)
(-0.0437662 0.382648 0)
(-0.0437686 0.382645 0)
(-0.0437717 0.382642 0)
(-0.0437756 0.382637 0)
(-0.0437804 0.382633 0)
(-0.0437862 0.382628 0)
(-0.0437929 0.382623 0)
(-0.0438008 0.382618 0)
(-0.0438097 0.382613 0)
(-0.0438196 0.382609 0)
(-0.0438304 0.382604 0)
(-0.0438421 0.3826 0)
(-0.0438546 0.382595 0)
(-0.0438678 0.382589 0)
(-0.0438816 0.382581 0)
(-0.0438962 0.382572 0)
(-0.0439112 0.382559 0)
(-0.0439268 0.382542 0)
(-0.0439425 0.38252 0)
(-0.0439582 0.382491 0)
(-0.0439737 0.382454 0)
(-0.0439889 0.382406 0)
(-0.0440036 0.382345 0)
(-0.0440181 0.382269 0)
(-0.0440323 0.382177 0)
(-0.0440462 0.382068 0)
(-0.0440599 0.381944 0)
(-0.0440734 0.381805 0)
(-0.0440864 0.381658 0)
(-0.0440991 0.381505 0)
(-0.0441113 0.38135 0)
(-0.0441234 0.381196 0)
(-0.0441349 0.381045 0)
(-0.0441425 0.380898 0)
(-0.0441295 0.380759 0)
(-0.0440599 0.380637 0)
(-0.0439225 0.380552 0)
(-0.0437269 0.380512 0)
(-0.0434963 0.380531 0)
(-0.0432699 0.380637 0)
(-0.0431065 0.380826 0)
(-0.0430272 0.381028 0)
(-0.043007 0.381161 0)
(-0.00972942 2.68022 0)
(-0.00625995 2.68077 0)
(-0.00623416 2.68071 0)
(-0.00621189 2.68071 0)
(-0.0061937 2.6807 0)
(-0.00617583 2.68069 0)
(-0.00615787 2.68069 0)
(-0.00613997 2.68069 0)
(-0.00612225 2.6807 0)
(-0.00610504 2.68071 0)
(-0.00608893 2.68072 0)
(-0.00607419 2.68074 0)
(-0.00606071 2.68077 0)
(-0.0060482 2.6808 0)
(-0.00603644 2.68084 0)
(-0.00602535 2.68089 0)
(-0.00601494 2.68094 0)
(-0.00600531 2.68099 0)
(-0.00599661 2.68105 0)
(-0.00598893 2.68111 0)
(-0.00598237 2.68117 0)
(-0.00597692 2.68123 0)
(-0.00597253 2.68129 0)
(-0.00596906 2.68134 0)
(-0.00596637 2.68139 0)
(-0.0059643 2.68144 0)
(-0.00596269 2.68148 0)
(-0.00596141 2.68151 0)
(-0.00596036 2.68154 0)
(-0.00595947 2.68157 0)
(-0.00595874 2.68159 0)
(-0.00595815 2.6816 0)
(-0.00595766 2.68162 0)
(-0.00595722 2.68162 0)
(-0.00595683 2.68163 0)
(-0.00595647 2.68164 0)
(-0.00595613 2.68164 0)
(-0.00595578 2.68164 0)
(-0.00595542 2.68164 0)
(-0.00595494 2.68164 0)
(-0.00595434 2.68164 0)
(-0.00595348 2.68164 0)
(-0.0059524 2.68164 0)
(-0.00595117 2.68163 0)
(-0.00594989 2.68163 0)
(-0.00594863 2.68163 0)
(-0.00594742 2.68162 0)
(-0.00594627 2.68162 0)
(-0.00594518 2.68162 0)
(-0.00594428 2.68162 0)
(-0.00594339 2.68162 0)
(-0.00594294 2.68161 0)
(-0.0059433 2.68161 0)
(-0.00594334 2.68161 0)
(-0.00594353 2.68161 0)
(-0.00594382 2.6816 0)
(-0.00594423 2.6816 0)
(-0.00594478 2.6816 0)
(-0.00594549 2.68159 0)
(-0.00594636 2.68158 0)
(-0.00594741 2.68158 0)
(-0.00594865 2.68157 0)
(-0.0059501 2.68156 0)
(-0.0059518 2.68155 0)
(-0.0059538 2.68154 0)
(-0.00595616 2.68153 0)
(-0.00595892 2.68151 0)
(-0.00596218 2.6815 0)
(-0.00596602 2.68149 0)
(-0.00597056 2.68148 0)
(-0.00597596 2.68147 0)
(-0.00598235 2.68146 0)
(-0.00598981 2.68144 0)
(-0.00599834 2.68143 0)
(-0.0060079 2.68142 0)
(-0.00601853 2.68141 0)
(-0.00603028 2.6814 0)
(-0.00604322 2.68139 0)
(-0.00605739 2.68138 0)
(-0.00607276 2.68136 0)
(-0.00608912 2.68134 0)
(-0.00610619 2.68132 0)
(-0.00612356 2.6813 0)
(-0.00614087 2.68127 0)
(-0.00615787 2.68124 0)
(-0.00617441 2.6812 0)
(-0.00619051 2.68116 0)
(-0.00620629 2.68112 0)
(-0.00622193 2.68108 0)
(-0.00623766 2.68103 0)
(-0.00625377 2.68098 0)
(-0.00627058 2.68094 0)
(-0.00628857 2.68089 0)
(-0.00630875 2.68085 0)
(-0.00633413 2.68081 0)
(-0.00637264 2.68079 0)
(-0.00642029 2.68077 0)
(-0.00647459 2.68075 0)
(-0.00656152 2.6808 0)
(-0.00930741 2.67691 0)
(-0.353918 3.71232 0)
(-0.35388 3.7118 0)
(-0.353894 3.71171 0)
(-0.353907 3.7116 0)
(-0.353915 3.71149 0)
(-0.353917 3.71141 0)
(-0.353913 3.71135 0)
(-0.353905 3.71132 0)
(-0.353895 3.71131 0)
(-0.353881 3.71132 0)
(-0.353865 3.71133 0)
(-0.353846 3.71135 0)
(-0.353822 3.71137 0)
(-0.353793 3.7114 0)
(-0.35376 3.71144 0)
(-0.353722 3.71147 0)
(-0.35368 3.7115 0)
(-0.353635 3.71153 0)
(-0.353591 3.71156 0)
(-0.353547 3.71158 0)
(-0.353506 3.71161 0)
(-0.35347 3.71163 0)
(-0.353437 3.71165 0)
(-0.35341 3.71167 0)
(-0.353387 3.71169 0)
(-0.353368 3.7117 0)
(-0.353354 3.71171 0)
(-0.353342 3.71172 0)
(-0.353334 3.71172 0)
(-0.353328 3.71172 0)
(-0.353324 3.71172 0)
(-0.353321 3.71172 0)
(-0.35332 3.71172 0)
(-0.353319 3.71172 0)
(-0.35332 3.71172 0)
(-0.35332 3.71172 0)
(-0.353322 3.71171 0)
(-0.353323 3.71171 0)
(-0.353325 3.71171 0)
(-0.353327 3.7117 0)
(-0.353328 3.7117 0)
(-0.35333 3.7117 0)
(-0.353331 3.7117 0)
(-0.353332 3.71169 0)
(-0.353332 3.71169 0)
(-0.353333 3.71169 0)
(-0.353333 3.71169 0)
(-0.353334 3.71169 0)
(-0.353334 3.71168 0)
(-0.353333 3.71168 0)
(-0.353333 3.71168 0)
(-0.353331 3.71168 0)
(-0.35333 3.71168 0)
(-0.353329 3.71168 0)
(-0.353327 3.71168 0)
(-0.353324 3.71168 0)
(-0.353322 3.71167 0)
(-0.353319 3.71167 0)
(-0.353316 3.71167 0)
(-0.353312 3.71166 0)
(-0.353308 3.71166 0)
(-0.353304 3.71166 0)
(-0.3533 3.71165 0)
(-0.353296 3.71165 0)
(-0.353293 3.71165 0)
(-0.353291 3.71164 0)
(-0.35329 3.71164 0)
(-0.35329 3.71164 0)
(-0.353291 3.71164 0)
(-0.353293 3.71164 0)
(-0.353297 3.71164 0)
(-0.353303 3.71164 0)
(-0.353313 3.71164 0)
(-0.353326 3.71165 0)
(-0.353345 3.71165 0)
(-0.353367 3.71165 0)
(-0.353395 3.71165 0)
(-0.353427 3.71166 0)
(-0.353462 3.71166 0)
(-0.353498 3.71166 0)
(-0.353536 3.71166 0)
(-0.353572 3.71166 0)
(-0.353605 3.71167 0)
(-0.353636 3.71167 0)
(-0.353663 3.71166 0)
(-0.353686 3.71166 0)
(-0.353706 3.71166 0)
(-0.353724 3.71166 0)
(-0.353739 3.71166 0)
(-0.353752 3.71165 0)
(-0.353765 3.71166 0)
(-0.353776 3.71167 0)
(-0.353784 3.7117 0)
(-0.353791 3.71175 0)
(-0.353794 3.71183 0)
(-0.353793 3.71194 0)
(-0.353787 3.71207 0)
(-0.353776 3.71221 0)
(-0.353764 3.71231 0)
(-0.353808 3.71289 0)
(-0.496596 -3.73601 0)
(-0.491376 -3.73685 0)
(-0.491238 -3.73661 0)
(-0.491127 -3.73631 0)
(-0.491025 -3.73596 0)
(-0.490938 -3.7356 0)
(-0.490872 -3.73526 0)
(-0.490829 -3.73497 0)
(-0.490805 -3.73474 0)
(-0.490794 -3.73459 0)
(-0.490791 -3.7345 0)
(-0.490791 -3.73445 0)
(-0.490791 -3.73444 0)
(-0.490792 -3.73443 0)
(-0.490792 -3.73443 0)
(-0.490793 -3.73444 0)
(-0.490794 -3.73445 0)
(-0.490795 -3.73447 0)
(-0.490797 -3.73451 0)
(-0.490798 -3.73457 0)
(-0.4908 -3.73464 0)
(-0.490802 -3.73473 0)
(-0.490803 -3.73482 0)
(-0.490804 -3.73491 0)
(-0.490803 -3.735 0)
(-0.490802 -3.73507 0)
(-0.4908 -3.73514 0)
(-0.490797 -3.73519 0)
(-0.490794 -3.73523 0)
(-0.490791 -3.73526 0)
(-0.490785 -3.73529 0)
(-0.490786 -3.73531 0)
(-0.490785 -3.73533 0)
(-0.490787 -3.73534 0)
(-0.490788 -3.73535 0)
(-0.490789 -3.73536 0)
(-0.49079 -3.73537 0)
(-0.49079 -3.73538 0)
(-0.490791 -3.73539 0)
(-0.490791 -3.73539 0)
(-0.490791 -3.7354 0)
(-0.490791 -3.7354 0)
(-0.490791 -3.73541 0)
(-0.490791 -3.73541 0)
(-0.490791 -3.73541 0)
(-0.490791 -3.73541 0)
(-0.490791 -3.73542 0)
(-0.49079 -3.73542 0)
(-0.49079 -3.73542 0)
(-0.49079 -3.73542 0)
(-0.490789 -3.73542 0)
(-0.490789 -3.73542 0)
(-0.490788 -3.73542 0)
(-0.490788 -3.73542 0)
(-0.490787 -3.73542 0)
(-0.490787 -3.73542 0)
(-0.490786 -3.73542 0)
(-0.490786 -3.73542 0)
(-0.490785 -3.73542 0)
(-0.490784 -3.73542 0)
(-0.490783 -3.73543 0)
(-0.490782 -3.73543 0)
(-0.490781 -3.73543 0)
(-0.49078 -3.73544 0)
(-0.490778 -3.73544 0)
(-0.490777 -3.73545 0)
(-0.490776 -3.73546 0)
(-0.490775 -3.73546 0)
(-0.490773 -3.73547 0)
(-0.490772 -3.73547 0)
(-0.490771 -3.73547 0)
(-0.49077 -3.73547 0)
(-0.490769 -3.73547 0)
(-0.490767 -3.73547 0)
(-0.490765 -3.73545 0)
(-0.49076 -3.73543 0)
(-0.490754 -3.73539 0)
(-0.490746 -3.73534 0)
(-0.490736 -3.73528 0)
(-0.490724 -3.73522 0)
(-0.490713 -3.73516 0)
(-0.490701 -3.73511 0)
(-0.490691 -3.73508 0)
(-0.490683 -3.73506 0)
(-0.490678 -3.73505 0)
(-0.490673 -3.73505 0)
(-0.49067 -3.73505 0)
(-0.490667 -3.73508 0)
(-0.490666 -3.73514 0)
(-0.490673 -3.73526 0)
(-0.490689 -3.73543 0)
(-0.49073 -3.73572 0)
(-0.490783 -3.73601 0)
(-0.490879 -3.73644 0)
(-0.490967 -3.73678 0)
(-0.491096 -3.73721 0)
(-0.49119 -3.73748 0)
(-0.491292 -3.7378 0)
(-0.491385 -3.73794 0)
(-0.495974 -3.73746 0)
(0.211205 -12.9439 0)
(0.215113 -12.949 0)
(0.215128 -12.949 0)
(0.215128 -12.949 0)
(0.215128 -12.949 0)
(0.215127 -12.949 0)
(0.215125 -12.949 0)
(0.215123 -12.949 0)
(0.21512 -12.9489 0)
(0.215118 -12.9489 0)
(0.215116 -12.9489 0)
(0.215115 -12.9489 0)
(0.215114 -12.9489 0)
(0.215114 -12.9489 0)
(0.215113 -12.9489 0)
(0.215113 -12.9489 0)
(0.215112 -12.9489 0)
(0.215111 -12.9489 0)
(0.215111 -12.949 0)
(0.215111 -12.949 0)
(0.215111 -12.949 0)
(0.215112 -12.9491 0)
(0.215113 -12.9491 0)
(0.215115 -12.9491 0)
(0.215117 -12.9492 0)
(0.215119 -12.9492 0)
(0.21512 -12.9492 0)
(0.215122 -12.9493 0)
(0.215123 -12.9493 0)
(0.215124 -12.9493 0)
(0.215124 -12.9493 0)
(0.215124 -12.9493 0)
(0.215125 -12.9493 0)
(0.215125 -12.9494 0)
(0.215126 -12.9494 0)
(0.215127 -12.9494 0)
(0.215127 -12.9494 0)
(0.215128 -12.9494 0)
(0.215128 -12.9494 0)
(0.215128 -12.9494 0)
(0.215129 -12.9494 0)
(0.215129 -12.9494 0)
(0.215129 -12.9494 0)
(0.215129 -12.9494 0)
(0.215129 -12.9494 0)
(0.215129 -12.9494 0)
(0.215129 -12.9494 0)
(0.215129 -12.9494 0)
(0.215129 -12.9494 0)
(0.215129 -12.9494 0)
(0.215129 -12.9494 0)
(0.215129 -12.9494 0)
(0.215129 -12.9494 0)
(0.215129 -12.9494 0)
(0.215128 -12.9494 0)
(0.215128 -12.9494 0)
(0.215127 -12.9494 0)
(0.215127 -12.9494 0)
(0.215126 -12.9494 0)
(0.215125 -12.9494 0)
(0.215124 -12.9494 0)
(0.215123 -12.9494 0)
(0.215121 -12.9494 0)
(0.21512 -12.9494 0)
(0.215118 -12.9494 0)
(0.215117 -12.9494 0)
(0.215115 -12.9493 0)
(0.215114 -12.9493 0)
(0.215113 -12.9493 0)
(0.215112 -12.9493 0)
(0.215112 -12.9493 0)
(0.215111 -12.9493 0)
(0.21511 -12.9493 0)
(0.21511 -12.9493 0)
(0.21511 -12.9492 0)
(0.21511 -12.9492 0)
(0.21511 -12.9492 0)
(0.215111 -12.9492 0)
(0.215112 -12.9492 0)
(0.215114 -12.9491 0)
(0.215117 -12.9491 0)
(0.21512 -12.9491 0)
(0.215123 -12.9491 0)
(0.215127 -12.9491 0)
(0.215131 -12.9491 0)
(0.215135 -12.9491 0)
(0.215139 -12.9491 0)
(0.215144 -12.9491 0)
(0.215149 -12.9491 0)
(0.215154 -12.9491 0)
(0.215159 -12.9491 0)
(0.215164 -12.9492 0)
(0.215169 -12.9492 0)
(0.215172 -12.9492 0)
(0.215174 -12.9493 0)
(0.215175 -12.9493 0)
(0.215176 -12.9493 0)
(0.215176 -12.9493 0)
(0.215176 -12.9493 0)
(0.211621 -12.9399 0)
(0.368661 -7.0441 0)
(0.364805 -7.05558 0)
(0.36479 -7.05558 0)
(0.36479 -7.05558 0)
(0.36479 -7.05558 0)
(0.36479 -7.05558 0)
(0.364791 -7.05558 0)
(0.364792 -7.05558 0)
(0.364793 -7.05557 0)
(0.364795 -7.05557 0)
(0.364797 -7.05556 0)
(0.364799 -7.05555 0)
(0.364802 -7.05555 0)
(0.364805 -7.05554 0)
(0.364808 -7.05553 0)
(0.364811 -7.05552 0)
(0.364815 -7.05551 0)
(0.364819 -7.0555 0)
(0.364824 -7.05548 0)
(0.364829 -7.05547 0)
(0.364835 -7.05546 0)
(0.36484 -7.05545 0)
(0.364845 -7.05544 0)
(0.36485 -7.05543 0)
(0.364854 -7.05541 0)
(0.364858 -7.0554 0)
(0.364862 -7.05539 0)
(0.364865 -7.05537 0)
(0.364868 -7.05536 0)
(0.364871 -7.05535 0)
(0.364874 -7.05534 0)
(0.364876 -7.05533 0)
(0.364878 -7.05532 0)
(0.36488 -7.05531 0)
(0.364882 -7.0553 0)
(0.364884 -7.0553 0)
(0.364885 -7.05529 0)
(0.364887 -7.05529 0)
(0.364888 -7.05528 0)
(0.364889 -7.05528 0)
(0.364889 -7.05528 0)
(0.36489 -7.05528 0)
(0.36489 -7.05528 0)
(0.364891 -7.05528 0)
(0.364891 -7.05527 0)
(0.364891 -7.05527 0)
(0.364891 -7.05527 0)
(0.364891 -7.05527 0)
(0.364891 -7.05527 0)
(0.364891 -7.05527 0)
(0.364891 -7.05527 0)
(0.364891 -7.05527 0)
(0.364891 -7.05527 0)
(0.364891 -7.05527 0)
(0.364891 -7.05527 0)
(0.36489 -7.05527 0)
(0.36489 -7.05527 0)
(0.36489 -7.05527 0)
(0.364889 -7.05527 0)
(0.364888 -7.05528 0)
(0.364887 -7.05528 0)
(0.364886 -7.05528 0)
(0.364885 -7.05528 0)
(0.364884 -7.05528 0)
(0.364882 -7.05529 0)
(0.36488 -7.05529 0)
(0.364878 -7.05529 0)
(0.364875 -7.0553 0)
(0.364872 -7.0553 0)
(0.364869 -7.05531 0)
(0.364866 -7.05531 0)
(0.364863 -7.05532 0)
(0.364859 -7.05532 0)
(0.364855 -7.05533 0)
(0.364851 -7.05533 0)
(0.364846 -7.05534 0)
(0.364842 -7.05534 0)
(0.364836 -7.05535 0)
(0.364831 -7.05535 0)
(0.364825 -7.05535 0)
(0.36482 -7.05535 0)
(0.364814 -7.05536 0)
(0.364809 -7.05536 0)
(0.364804 -7.05536 0)
(0.3648 -7.05537 0)
(0.364795 -7.05537 0)
(0.364792 -7.05538 0)
(0.364788 -7.05538 0)
(0.364785 -7.05539 0)
(0.364783 -7.05539 0)
(0.364781 -7.0554 0)
(0.364779 -7.0554 0)
(0.364778 -7.0554 0)
(0.364777 -7.05541 0)
(0.364776 -7.05541 0)
(0.364776 -7.05541 0)
(0.364776 -7.05541 0)
(0.364776 -7.05541 0)
(0.364792 -7.05539 0)
(0.368821 -7.03999 0)
(0.0673472 -0.922532 0)
(0.0679645 -0.923384 0)
(0.0679688 -0.923382 0)
(0.0679685 -0.923381 0)
(0.0679683 -0.923379 0)
(0.0679681 -0.923376 0)
(0.067968 -0.923372 0)
(0.067968 -0.923367 0)
(0.067968 -0.92336 0)
(0.0679681 -0.923352 0)
(0.0679684 -0.923343 0)
(0.0679686 -0.923333 0)
(0.067969 -0.923322 0)
(0.0679693 -0.923311 0)
(0.0679697 -0.9233 0)
(0.06797 -0.923289 0)
(0.0679702 -0.923278 0)
(0.0679704 -0.923268 0)
(0.0679705 -0.923258 0)
(0.0679706 -0.923249 0)
(0.0679706 -0.923241 0)
(0.0679706 -0.923234 0)
(0.0679705 -0.923227 0)
(0.0679704 -0.923222 0)
(0.0679703 -0.923217 0)
(0.0679701 -0.923212 0)
(0.0679699 -0.923209 0)
(0.0679695 -0.923206 0)
(0.0679691 -0.923204 0)
(0.0679686 -0.923201 0)
(0.0679681 -0.9232 0)
(0.0679676 -0.923198 0)
(0.067967 -0.923197 0)
(0.0679666 -0.923196 0)
(0.0679662 -0.923195 0)
(0.067966 -0.923194 0)
(0.0679658 -0.923194 0)
(0.0679656 -0.923193 0)
(0.0679655 -0.923193 0)
(0.0679655 -0.923192 0)
(0.0679654 -0.923192 0)
(0.0679654 -0.923192 0)
(0.0679653 -0.923191 0)
(0.0679653 -0.923191 0)
(0.0679653 -0.923191 0)
(0.0679653 -0.923191 0)
(0.0679653 -0.923191 0)
(0.0679653 -0.923191 0)
(0.0679653 -0.923191 0)
(0.0679653 -0.923191 0)
(0.0679653 -0.923191 0)
(0.0679653 -0.923191 0)
(0.0679653 -0.923191 0)
(0.0679653 -0.923191 0)
(0.0679653 -0.923191 0)
(0.0679653 -0.923191 0)
(0.0679653 -0.923191 0)
(0.0679653 -0.923191 0)
(0.0679653 -0.923191 0)
(0.0679654 -0.923191 0)
(0.0679654 -0.923191 0)
(0.0679655 -0.923191 0)
(0.0679656 -0.923191 0)
(0.0679658 -0.923191 0)
(0.0679659 -0.92319 0)
(0.0679661 -0.92319 0)
(0.0679664 -0.92319 0)
(0.0679666 -0.92319 0)
(0.0679668 -0.923189 0)
(0.067967 -0.923189 0)
(0.0679672 -0.923189 0)
(0.0679674 -0.923189 0)
(0.0679675 -0.923188 0)
(0.0679676 -0.923188 0)
(0.0679677 -0.923188 0)
(0.0679677 -0.923189 0)
(0.0679678 -0.923189 0)
(0.0679678 -0.92319 0)
(0.0679678 -0.923191 0)
(0.0679677 -0.923193 0)
(0.0679676 -0.923196 0)
(0.0679674 -0.9232 0)
(0.0679672 -0.923205 0)
(0.0679669 -0.92321 0)
(0.0679666 -0.923217 0)
(0.0679663 -0.923224 0)
(0.0679659 -0.923232 0)
(0.0679655 -0.92324 0)
(0.0679652 -0.923247 0)
(0.0679649 -0.923255 0)
(0.0679646 -0.923262 0)
(0.0679645 -0.923268 0)
(0.0679644 -0.923273 0)
(0.0679645 -0.923277 0)
(0.0679645 -0.92328 0)
(0.0679646 -0.923281 0)
(0.0679647 -0.923282 0)
(0.0679647 -0.923282 0)
(0.067965 -0.923281 0)
(0.0672914 -0.922226 0)
(0.000574279 -0.0158797 0)
(0.000488743 -0.0163981 0)
(0.000505327 -0.0164098 0)
(0.000505472 -0.0164127 0)
(0.000504763 -0.0164134 0)
(0.000504204 -0.0164136 0)
(0.000503826 -0.0164136 0)
(0.000503585 -0.0164137 0)
(0.000503435 -0.0164137 0)
(0.000503334 -0.0164137 0)
(0.000503279 -0.0164136 0)
(0.000503241 -0.0164134 0)
(0.000503204 -0.0164131 0)
(0.000503164 -0.0164126 0)
(0.000503116 -0.016412 0)
(0.000503056 -0.0164111 0)
(0.000502984 -0.0164101 0)
(0.000502897 -0.0164088 0)
(0.000502798 -0.0164075 0)
(0.000502689 -0.0164061 0)
(0.000502573 -0.0164048 0)
(0.000502456 -0.0164036 0)
(0.000502342 -0.0164026 0)
(0.000502235 -0.0164018 0)
(0.000502141 -0.0164011 0)
(0.000502062 -0.0164007 0)
(0.000502001 -0.0164005 0)
(0.000501955 -0.0164004 0)
(0.000501921 -0.0164003 0)
(0.000501893 -0.0164003 0)
(0.00050187 -0.0164004 0)
(0.000501849 -0.0164004 0)
(0.000501827 -0.0164005 0)
(0.000501806 -0.0164006 0)
(0.000501786 -0.0164007 0)
(0.000501767 -0.0164008 0)
(0.000501751 -0.0164009 0)
(0.000501736 -0.016401 0)
(0.000501724 -0.0164011 0)
(0.000501714 -0.0164012 0)
(0.000501707 -0.0164013 0)
(0.000501701 -0.0164014 0)
(0.000501697 -0.0164014 0)
(0.000501695 -0.0164015 0)
(0.000501694 -0.0164015 0)
(0.000501693 -0.0164015 0)
(0.000501692 -0.0164015 0)
(0.000501692 -0.0164015 0)
(0.000501692 -0.0164015 0)
(0.000501692 -0.0164015 0)
(0.000501692 -0.0164015 0)
(0.000501692 -0.0164015 0)
(0.000501692 -0.0164015 0)
(0.000501691 -0.0164015 0)
(0.000501691 -0.0164015 0)
(0.000501691 -0.0164015 0)
(0.000501691 -0.0164015 0)
(0.000501691 -0.0164014 0)
(0.000501693 -0.0164014 0)
(0.000501696 -0.0164013 0)
(0.000501702 -0.0164012 0)
(0.000501711 -0.016401 0)
(0.000501723 -0.0164009 0)
(0.000501738 -0.0164007 0)
(0.000501756 -0.0164005 0)
(0.000501776 -0.0164003 0)
(0.000501798 -0.0164001 0)
(0.000501822 -0.0163999 0)
(0.000501845 -0.0163998 0)
(0.000501868 -0.0163997 0)
(0.00050189 -0.0163996 0)
(0.000501911 -0.0163996 0)
(0.000501936 -0.0163996 0)
(0.000501963 -0.0163996 0)
(0.000502001 -0.0163997 0)
(0.000502055 -0.0163999 0)
(0.000502127 -0.0164003 0)
(0.000502214 -0.0164008 0)
(0.000502313 -0.0164015 0)
(0.000502418 -0.0164024 0)
(0.000502522 -0.0164034 0)
(0.000502621 -0.0164045 0)
(0.000502709 -0.0164055 0)
(0.000502784 -0.0164064 0)
(0.000502845 -0.0164071 0)
(0.000502892 -0.0164077 0)
(0.00050293 -0.016408 0)
(0.000502961 -0.0164082 0)
(0.000502987 -0.0164083 0)
(0.000503017 -0.0164084 0)
(0.000503057 -0.0164083 0)
(0.000503112 -0.0164083 0)
(0.000503209 -0.0164082 0)
(0.00050339 -0.0164081 0)
(0.000503716 -0.016408 0)
(0.000504239 -0.0164078 0)
(0.000504913 -0.0164071 0)
(0.000504574 -0.0164042 0)
(0.000488127 -0.0163929 0)
(0.000577813 -0.0158953 0)
(-6.94995e-05 0.000313548 0)
(-6.94978e-05 0.000313438 0)
(-6.9491e-05 0.00031314 0)
(-6.9477e-05 0.000312635 0)
(-6.94563e-05 0.000311967 0)
(-6.94314e-05 0.000311231 0)
(-6.94059e-05 0.000310539 0)
(-6.9383e-05 0.00030998 0)
(-6.93649e-05 0.000309599 0)
(-6.93523e-05 0.000309388 0)
(-6.93449e-05 0.000309302 0)
(-6.93414e-05 0.000309282 0)
(-6.93383e-05 0.000309284 0)
(-6.93351e-05 0.000309307 0)
(-6.93302e-05 0.000309376 0)
(-6.93238e-05 0.000309512 0)
(-6.93161e-05 0.000309726 0)
(-6.93073e-05 0.000310016 0)
(-6.92974e-05 0.000310373 0)
(-6.92864e-05 0.000310784 0)
(-6.92743e-05 0.00031123 0)
(-6.92609e-05 0.000311695 0)
(-6.92461e-05 0.000312163 0)
(-6.92299e-05 0.000312619 0)
(-6.92124e-05 0.00031305 0)
(-6.91939e-05 0.000313447 0)
(-6.91747e-05 0.000313802 0)
(-6.91549e-05 0.000314111 0)
(-6.9135e-05 0.000314371 0)
(-6.91154e-05 0.000314584 0)
(-6.90965e-05 0.000314752 0)
(-6.90787e-05 0.000314881 0)
(-6.90623e-05 0.000314975 0)
(-6.90476e-05 0.000315042 0)
(-6.90346e-05 0.000315087 0)
(-6.90233e-05 0.000315117 0)
(-6.90136e-05 0.000315134 0)
(-6.90054e-05 0.000315144 0)
(-6.89985e-05 0.000315149 0)
(-6.89928e-05 0.000315151 0)
(-6.89883e-05 0.00031515 0)
(-6.89848e-05 0.000315149 0)
(-6.89822e-05 0.000315147 0)
(-6.89802e-05 0.000315145 0)
(-6.89788e-05 0.000315144 0)
(-6.89777e-05 0.000315143 0)
(-6.8977e-05 0.000315142 0)
(-6.89765e-05 0.000315142 0)
(-6.89763e-05 0.000315141 0)
(-6.89761e-05 0.000315141 0)
(-6.89761e-05 0.000315141 0)
(-6.89762e-05 0.000315141 0)
(-6.89764e-05 0.000315141 0)
(-6.89768e-05 0.000315141 0)
(-6.89774e-05 0.000315141 0)
(-6.89784e-05 0.000315141 0)
(-6.89798e-05 0.000315141 0)
(-6.89819e-05 0.000315141 0)
(-6.89847e-05 0.000315141 0)
(-6.89885e-05 0.000315139 0)
(-6.89932e-05 0.000315136 0)
(-6.8999e-05 0.00031513 0)
(-6.9006e-05 0.00031512 0)
(-6.90144e-05 0.000315103 0)
(-6.90242e-05 0.000315076 0)
(-6.90357e-05 0.000315037 0)
(-6.90487e-05 0.00031498 0)
(-6.90633e-05 0.0003149 0)
(-6.90795e-05 0.000314791 0)
(-6.90969e-05 0.000314648 0)
(-6.91154e-05 0.000314466 0)
(-6.91345e-05 0.00031424 0)
(-6.9154e-05 0.000313968 0)
(-6.91735e-05 0.000313649 0)
(-6.91926e-05 0.000313286 0)
(-6.9211e-05 0.000312883 0)
(-6.92285e-05 0.000312446 0)
(-6.92447e-05 0.000311984 0)
(-6.92595e-05 0.00031151 0)
(-6.92728e-05 0.000311038 0)
(-6.92846e-05 0.000310586 0)
(-6.92954e-05 0.000310173 0)
(-6.93053e-05 0.000309819 0)
(-6.93142e-05 0.000309539 0)
(-6.93221e-05 0.000309342 0)
(-6.93283e-05 0.000309226 0)
(-6.93325e-05 0.000309173 0)
(-6.93349e-05 0.000309159 0)
(-6.93383e-05 0.000309162 0)
(-6.93428e-05 0.000309193 0)
(-6.93512e-05 0.0003093 0)
(-6.93649e-05 0.000309537 0)
(-6.93842e-05 0.000309943 0)
(-6.94082e-05 0.000310521 0)
(-6.94348e-05 0.000311225 0)
(-6.94606e-05 0.000311964 0)
(-6.9482e-05 0.000312633 0)
(-6.94964e-05 0.000313139 0)
(-6.95034e-05 0.000313439 0)
(-6.95052e-05 0.00031355 0)
(-3.19796e-05 -0.000125835 0)
(-3.24765e-05 -0.000130391 0)
(-3.21219e-05 -0.000130513 0)
(-3.20275e-05 -0.00013066 0)
(-3.19892e-05 -0.000130755 0)
(-3.19714e-05 -0.000130807 0)
(-3.19627e-05 -0.00013083 0)
(-3.19588e-05 -0.000130838 0)
(-3.19568e-05 -0.000130839 0)
(-3.19555e-05 -0.000130835 0)
(-3.19537e-05 -0.000130823 0)
(-3.19517e-05 -0.000130792 0)
(-3.195e-05 -0.000130737 0)
(-3.19487e-05 -0.000130649 0)
(-3.19476e-05 -0.000130526 0)
(-3.19466e-05 -0.000130367 0)
(-3.19454e-05 -0.000130174 0)
(-3.19441e-05 -0.000129953 0)
(-3.19426e-05 -0.00012971 0)
(-3.19412e-05 -0.000129453 0)
(-3.19399e-05 -0.00012919 0)
(-3.19388e-05 -0.000128929 0)
(-3.19379e-05 -0.000128674 0)
(-3.19372e-05 -0.000128432 0)
(-3.19365e-05 -0.000128205 0)
(-3.19356e-05 -0.000127997 0)
(-3.19343e-05 -0.00012781 0)
(-3.19327e-05 -0.000127643 0)
(-3.19307e-05 -0.000127497 0)
(-3.19282e-05 -0.000127371 0)
(-3.19255e-05 -0.000127264 0)
(-3.19225e-05 -0.000127175 0)
(-3.19193e-05 -0.000127102 0)
(-3.1916e-05 -0.000127043 0)
(-3.19125e-05 -0.000126996 0)
(-3.19091e-05 -0.000126959 0)
(-3.19059e-05 -0.00012693 0)
(-3.19028e-05 -0.000126909 0)
(-3.19e-05 -0.000126893 0)
(-3.18976e-05 -0.000126881 0)
(-3.18956e-05 -0.000126872 0)
(-3.1894e-05 -0.000126867 0)
(-3.18928e-05 -0.000126863 0)
(-3.18919e-05 -0.00012686 0)
(-3.18913e-05 -0.000126859 0)
(-3.18909e-05 -0.000126858 0)
(-3.18907e-05 -0.000126857 0)
(-3.18906e-05 -0.000126857 0)
(-3.18906e-05 -0.000126857 0)
(-3.18906e-05 -0.000126857 0)
(-3.18905e-05 -0.000126857 0)
(-3.18906e-05 -0.000126857 0)
(-3.18906e-05 -0.000126857 0)
(-3.18907e-05 -0.000126857 0)
(-3.18909e-05 -0.000126858 0)
(-3.18913e-05 -0.000126859 0)
(-3.18919e-05 -0.000126862 0)
(-3.18928e-05 -0.000126865 0)
(-3.1894e-05 -0.00012687 0)
(-3.18956e-05 -0.000126877 0)
(-3.18976e-05 -0.000126887 0)
(-3.18999e-05 -0.000126901 0)
(-3.19026e-05 -0.00012692 0)
(-3.19056e-05 -0.000126945 0)
(-3.19087e-05 -0.000126977 0)
(-3.1912e-05 -0.000127018 0)
(-3.19153e-05 -0.000127069 0)
(-3.19185e-05 -0.000127133 0)
(-3.19216e-05 -0.000127211 0)
(-3.19245e-05 -0.000127306 0)
(-3.19272e-05 -0.000127417 0)
(-3.19296e-05 -0.000127548 0)
(-3.19316e-05 -0.000127699 0)
(-3.19332e-05 -0.00012787 0)
(-3.19344e-05 -0.000128061 0)
(-3.19354e-05 -0.000128271 0)
(-3.19361e-05 -0.000128498 0)
(-3.19369e-05 -0.00012874 0)
(-3.19378e-05 -0.000128992 0)
(-3.1939e-05 -0.00012925 0)
(-3.19404e-05 -0.000129507 0)
(-3.19419e-05 -0.000129755 0)
(-3.19434e-05 -0.000129987 0)
(-3.19447e-05 -0.000130196 0)
(-3.19458e-05 -0.000130374 0)
(-3.1947e-05 -0.000130517 0)
(-3.19482e-05 -0.000130625 0)
(-3.19497e-05 -0.000130699 0)
(-3.19516e-05 -0.000130744 0)
(-3.19537e-05 -0.000130766 0)
(-3.19559e-05 -0.000130775 0)
(-3.19582e-05 -0.000130777 0)
(-3.1961e-05 -0.000130773 0)
(-3.19671e-05 -0.00013076 0)
(-3.19796e-05 -0.000130728 0)
(-3.20033e-05 -0.000130668 0)
(-3.20487e-05 -0.000130577 0)
(-3.21428e-05 -0.00013046 0)
(-3.23934e-05 -0.000130382 0)
(-3.1947e-05 -0.000127116 0)
(-0.0403052 0.377139 0)
(-0.0445536 0.380672 0)
(-0.0444735 0.380857 0)
(-0.0444983 0.380896 0)
(-0.0444914 0.380922 0)
(-0.0444821 0.380945 0)
(-0.0444834 0.380969 0)
(-0.0444793 0.380996 0)
(-0.0444755 0.381027 0)
(-0.0444717 0.381062 0)
(-0.0444674 0.381102 0)
(-0.0444628 0.381146 0)
(-0.0444577 0.381195 0)
(-0.0444523 0.381247 0)
(-0.0444468 0.381303 0)
(-0.0444413 0.381362 0)
(-0.044436 0.381421 0)
(-0.0444309 0.381481 0)
(-0.044426 0.381541 0)
(-0.0444213 0.381599 0)
(-0.0444167 0.381654 0)
(-0.0444123 0.381705 0)
(-0.0444081 0.381752 0)
(-0.0444039 0.381793 0)
(-0.0443999 0.381829 0)
(-0.044396 0.38186 0)
(-0.0443922 0.381885 0)
(-0.0443885 0.381905 0)
(-0.0443849 0.381922 0)
(-0.0443813 0.381934 0)
(-0.0443777 0.381944 0)
(-0.0443742 0.381951 0)
(-0.0443707 0.381956 0)
(-0.0443673 0.38196 0)
(-0.044364 0.381962 0)
(-0.0443608 0.381963 0)
(-0.0443578 0.381963 0)
(-0.0443551 0.381962 0)
(-0.0443525 0.381961 0)
(-0.0443502 0.38196 0)
(-0.0443481 0.381958 0)
(-0.0443462 0.381957 0)
(-0.0443446 0.381955 0)
(-0.0443431 0.381954 0)
(-0.044342 0.381952 0)
(-0.0443411 0.381951 0)
(-0.0443403 0.38195 0)
(-0.0443398 0.381949 0)
(-0.0443395 0.381949 0)
(-0.0443392 0.381948 0)
(-0.0443391 0.381948 0)
(-0.0443393 0.381947 0)
(-0.0443396 0.381947 0)
(-0.0443402 0.381946 0)
(-0.044341 0.381946 0)
(-0.044342 0.381945 0)
(-0.0443434 0.381945 0)
(-0.0443453 0.381944 0)
(-0.0443477 0.381943 0)
(-0.0443507 0.381942 0)
(-0.0443545 0.381942 0)
(-0.0443593 0.381942 0)
(-0.044365 0.381943 0)
(-0.0443718 0.381944 0)
(-0.0443795 0.381948 0)
(-0.0443882 0.381952 0)
(-0.0443979 0.381959 0)
(-0.0444084 0.381966 0)
(-0.0444197 0.381975 0)
(-0.0444317 0.381984 0)
(-0.0444444 0.381994 0)
(-0.0444578 0.382002 0)
(-0.0444718 0.382009 0)
(-0.0444865 0.382013 0)
(-0.0445018 0.382012 0)
(-0.0445174 0.382007 0)
(-0.0445328 0.381994 0)
(-0.0445479 0.381974 0)
(-0.0445624 0.381944 0)
(-0.0445764 0.381902 0)
(-0.0445902 0.381847 0)
(-0.0446037 0.381777 0)
(-0.0446168 0.381691 0)
(-0.0446299 0.38159 0)
(-0.0446425 0.381475 0)
(-0.0446551 0.381349 0)
(-0.0446674 0.381214 0)
(-0.0446795 0.381074 0)
(-0.0446912 0.380931 0)
(-0.0447011 0.380787 0)
(-0.044703 0.380645 0)
(-0.0446777 0.380508 0)
(-0.0445941 0.380388 0)
(-0.0444479 0.380303 0)
(-0.0442624 0.380254 0)
(-0.0440724 0.380238 0)
(-0.0439218 0.380249 0)
(-0.0438329 0.38028 0)
(-0.0438069 0.380335 0)
(-0.0432935 0.380181 0)
(-0.00717501 2.68393 0)
(-0.00469825 2.68606 0)
(-0.00465286 2.68602 0)
(-0.00462452 2.68602 0)
(-0.00460688 2.68601 0)
(-0.00458871 2.68601 0)
(-0.00457061 2.68601 0)
(-0.0045526 2.68601 0)
(-0.0045348 2.68602 0)
(-0.00451774 2.68603 0)
(-0.00450196 2.68605 0)
(-0.00448767 2.68608 0)
(-0.00447472 2.68611 0)
(-0.00446285 2.68615 0)
(-0.00445185 2.68619 0)
(-0.0044416 2.68624 0)
(-0.00443206 2.68629 0)
(-0.0044233 2.68634 0)
(-0.00441541 2.6864 0)
(-0.00440853 2.68646 0)
(-0.00440271 2.68652 0)
(-0.00439798 2.68657 0)
(-0.00439431 2.68663 0)
(-0.00439158 2.68668 0)
(-0.00438967 2.68672 0)
(-0.00438842 2.68677 0)
(-0.00438766 2.6868 0)
(-0.00438726 2.68684 0)
(-0.00438709 2.68687 0)
(-0.00438709 2.68689 0)
(-0.00438721 2.68691 0)
(-0.00438746 2.68693 0)
(-0.0043878 2.68694 0)
(-0.00438819 2.68696 0)
(-0.00438858 2.68697 0)
(-0.00438894 2.68697 0)
(-0.0043892 2.68698 0)
(-0.00438932 2.68698 0)
(-0.00438929 2.68699 0)
(-0.00438912 2.68699 0)
(-0.00438883 2.68699 0)
(-0.0043884 2.68699 0)
(-0.00438781 2.68699 0)
(-0.00438711 2.68699 0)
(-0.00438625 2.68699 0)
(-0.00438526 2.68699 0)
(-0.00438421 2.68699 0)
(-0.00438317 2.68698 0)
(-0.0043822 2.68698 0)
(-0.00438138 2.68698 0)
(-0.00438068 2.68698 0)
(-0.00438028 2.68698 0)
(-0.00438044 2.68698 0)
(-0.00438059 2.68698 0)
(-0.0043809 2.68698 0)
(-0.00438134 2.68698 0)
(-0.00438194 2.68697 0)
(-0.0043827 2.68697 0)
(-0.00438362 2.68697 0)
(-0.00438472 2.68697 0)
(-0.00438598 2.68696 0)
(-0.00438741 2.68696 0)
(-0.00438902 2.68696 0)
(-0.00439082 2.68695 0)
(-0.00439284 2.68695 0)
(-0.00439512 2.68694 0)
(-0.00439769 2.68694 0)
(-0.00440064 2.68693 0)
(-0.00440407 2.68693 0)
(-0.0044081 2.68692 0)
(-0.00441287 2.68692 0)
(-0.00441845 2.68692 0)
(-0.00442489 2.68692 0)
(-0.00443221 2.68691 0)
(-0.00444044 2.68691 0)
(-0.00444965 2.68691 0)
(-0.00445989 2.6869 0)
(-0.00447123 2.6869 0)
(-0.00448369 2.68689 0)
(-0.00449724 2.68688 0)
(-0.00451171 2.68687 0)
(-0.00452685 2.68685 0)
(-0.00454232 2.68684 0)
(-0.00455783 2.68681 0)
(-0.00457314 2.68678 0)
(-0.00458821 2.68675 0)
(-0.00460306 2.68671 0)
(-0.00461784 2.68667 0)
(-0.00463272 2.68663 0)
(-0.00464793 2.68658 0)
(-0.00466363 2.68654 0)
(-0.00468002 2.68649 0)
(-0.00469738 2.68645 0)