/*--------------------------------*- C++ -*----------------------------------*\
| =========                 |                                                 |
| \\      /  F ield         | OpenFOAM: The Open Source CFD Toolbox           |
|  \\    /   O peration     | Version:  2406                                  |
|   \\  /    A nd           | Website:  www.openfoam.com                      |
|    \\/     M anipulation  |                                                 |
\*---------------------------------------------------------------------------*/
FoamFile
{
    version     2.0;
    format      ascii;
    arch        "LSB;label=32;scalar=64";
    class       volScalarField;
    location    "0.06";
    object      Ma;
}
// * * * * * * * * * * * * * * * * * * * * * * * * * * * * * * * * * * * * * //

dimensions      [0 0 0 0 0 0 0];

internalField   nonuniform List<scalar> 
13988
(
2.55707e-14
3.89194e-14
5.58874e-14
5.0567e-14
3.78146e-14
3.00009e-14
2.73676e-14
2.20365e-14
2.29648e-14
2.36501e-14
4.21578e-14
4.04767e-14
3.56341e-14
4.09876e-14
4.41302e-14
3.89883e-14
4.22363e-14
5.66498e-14
6.51552e-14
7.29694e-14
7.19675e-14
7.12324e-14
5.3383e-14
4.91845e-14
4.93808e-14
4.54752e-14
5.30619e-14
3.76011e-14
3.18374e-14
4.7007e-14
5.65223e-14
6.71134e-14
6.36783e-14
8.56801e-14
1.02936e-13
1.29244e-13
1.29532e-13
1.27391e-13
1.08198e-13
8.64535e-14
5.39054e-14
3.17294e-14
2.66079e-14
2.53971e-14
3.31089e-14
2.22621e-14
2.27516e-14
2.2185e-14
2.09015e-14
2.61383e-14
5.18991e-14
6.75255e-14
7.65659e-14
5.72521e-14
4.16246e-14
4.99435e-14
2.57728e-14
3.38131e-14
4.31851e-14
3.62242e-14
3.95167e-14
4.27325e-14
4.81623e-14
4.11397e-14
3.77449e-14
3.68601e-14
3.8708e-14
3.60534e-14
3.86434e-14
4.09493e-14
3.46497e-14
3.65964e-14
3.53656e-14
3.70472e-14
3.55341e-14
4.88408e-14
4.32963e-14
4.92349e-14
4.38834e-14
5.65142e-14
5.8693e-14
7.35219e-14
7.25276e-14
8.41639e-14
8.07249e-14
6.32115e-14
4.19432e-14
3.76643e-14
5.05782e-14
5.85247e-14
5.80239e-14
6.66813e-14
6.75225e-14
5.63427e-14
5.04232e-14
4.92324e-14
4.4075e-14
4.50936e-14
4.56375e-14
4.84257e-14
3.80487e-14
4.2896e-14
2.95717e-14
3.5242e-14
3.90646e-14
3.7162e-14
4.12136e-14
3.99256e-14
3.55537e-14
2.59769e-14
2.83465e-14
3.2072e-14
3.70875e-14
3.13869e-14
3.60529e-14
4.15935e-14
5.54739e-14
6.35913e-14
7.03946e-14
7.64062e-14
7.17515e-14
7.32271e-14
7.00184e-14
6.49652e-14
5.83116e-14
5.18478e-14
4.96187e-14
4.50004e-14
4.63833e-14
3.95714e-14
4.84749e-14
6.37881e-14
7.12684e-14
9.06469e-14
1.1205e-13
1.24877e-13
1.34873e-13
1.35532e-13
1.21354e-13
9.87695e-14
7.556e-14
5.56457e-14
4.03187e-14
2.94457e-14
3.25495e-14
4.34812e-14
3.59505e-14
3.83124e-14
2.70524e-14
2.95085e-14
2.74934e-14
4.65605e-14
5.87758e-14
6.75929e-14
6.00682e-14
4.63858e-14
3.56958e-14
3.29887e-14
4.78537e-14
4.39138e-14
4.99347e-14
5.39797e-14
4.54227e-14
5.22054e-14
4.68988e-14
5.05257e-14
4.20273e-14
3.82768e-14
2.97482e-14
3.69101e-14
4.33796e-14
4.0031e-14
4.44044e-14
4.58337e-14
4.70864e-14
3.34714e-14
4.23621e-14
5.66526e-14
6.68292e-14
5.95859e-14
6.39529e-14
6.28733e-14
6.52464e-14
6.55659e-14
6.66777e-14
6.82597e-14
5.61909e-14
5.10493e-14
5.57032e-14
5.70895e-14
5.21789e-14
5.68599e-14
6.731e-14
7.38454e-14
6.71663e-14
5.63628e-14
5.88714e-14
5.31676e-14
5.85685e-14
4.44089e-14
5.09138e-14
5.51933e-14
4.53593e-14
4.46025e-14
5.11252e-14
5.17177e-14
4.48277e-14
4.176e-14
4.26872e-14
4.04397e-14
3.57434e-14
3.95608e-14
4.78085e-14
4.79852e-14
5.11199e-14
5.65999e-14
6.88221e-14
7.67264e-14
7.38217e-14
7.46394e-14
7.43731e-14
7.77163e-14
7.54439e-14
7.02238e-14
7.09477e-14
6.7138e-14
6.61963e-14
6.03633e-14
5.35715e-14
4.8997e-14
5.64889e-14
6.16958e-14
8.45238e-14
1.06453e-13
1.25073e-13
1.35822e-13
1.44164e-13
1.31855e-13
1.1356e-13
8.94036e-14
7.53631e-14
5.11915e-14
5.08755e-14
4.75037e-14
4.5181e-14
4.97404e-14
4.95367e-14
4.81123e-14
4.42934e-14
3.68562e-14
4.37866e-14
4.91714e-14
6.40123e-14
7.27851e-14
6.21094e-14
4.85144e-14
4.37419e-14
4.8891e-14
6.12202e-14
6.07883e-14
6.41645e-14
6.83332e-14
5.96928e-14
5.78955e-14
5.93849e-14
5.93752e-14
5.65916e-14
5.12686e-14
4.89982e-14
5.17955e-14
4.93396e-14
5.95148e-14
6.30589e-14
6.01087e-14
4.96763e-14
4.89588e-14
5.66978e-14
6.61632e-14
7.15775e-14
7.33205e-14
7.24945e-14
7.29488e-14
6.92717e-14
6.87508e-14
6.66735e-14
6.4028e-14
6.3962e-14
6.09154e-14
5.84907e-14
5.8967e-14
5.69776e-14
6.31864e-14
7.55893e-14
8.36252e-14
7.94507e-14
6.82941e-14
6.18209e-14
6.4792e-14
5.93389e-14
5.84982e-14
6.38791e-14
4.50593e-14
4.85959e-14
4.74438e-14
4.22922e-14
4.17886e-14
3.77679e-14
4.38836e-14
4.45495e-14
3.98894e-14
4.49273e-14
4.43437e-14
4.12888e-14
4.51535e-14
4.68488e-14
5.87611e-14
6.95536e-14
7.02647e-14
6.63032e-14
6.70214e-14
6.38808e-14
6.61603e-14
6.31247e-14
7.1471e-14
6.63732e-14
6.75696e-14
6.24691e-14
4.85835e-14
3.67645e-14
5.62193e-14
6.26372e-14
8.96076e-14
1.14897e-13
1.27499e-13
1.32971e-13
1.31095e-13
1.14679e-13
1.00433e-13
7.84263e-14
6.06868e-14
4.47138e-14
5.10065e-14
5.03198e-14
5.03743e-14
4.91699e-14
4.79253e-14
3.76604e-14
4.11659e-14
3.42184e-14
4.30018e-14
5.16378e-14
5.89996e-14
5.98357e-14
4.97728e-14
4.30114e-14
4.48088e-14
5.0845e-14
6.43622e-14
6.52389e-14
6.50029e-14
6.37371e-14
6.2186e-14
5.2473e-14
6.4861e-14
6.4161e-14
6.29088e-14
5.82804e-14
5.99313e-14
5.61136e-14
5.78363e-14
6.83263e-14
6.41323e-14
6.1398e-14
4.82527e-14
5.39454e-14
5.95512e-14
6.56627e-14
7.14105e-14
7.52719e-14
6.71275e-14
6.88892e-14
6.75964e-14
6.89825e-14
6.28532e-14
6.59967e-14
6.48427e-14
6.11536e-14
5.54215e-14
6.63295e-14
6.95904e-14
7.20973e-14
8.09743e-14
8.13299e-14
7.79471e-14
7.49525e-14
5.93753e-14
5.74248e-14
4.91498e-14
6.22418e-14
3.27791e-14
3.5009e-14
3.23872e-14
2.82363e-14
3.13372e-14
3.70273e-14
3.67397e-14
3.39854e-14
3.23639e-14
3.27354e-14
2.96956e-14
2.63674e-14
2.91605e-14
3.09031e-14
3.67135e-14
4.7561e-14
5.4344e-14
5.01341e-14
4.49063e-14
3.87561e-14
4.15067e-14
4.75878e-14
4.97679e-14
4.65369e-14
4.94394e-14
4.99529e-14
3.60336e-14
2.60455e-14
3.99698e-14
6.25057e-14
8.40271e-14
1.09818e-13
1.16507e-13
1.21601e-13
1.22913e-13
1.10683e-13
8.25283e-14
6.00496e-14
4.02406e-14
3.75546e-14
3.2919e-14
3.66997e-14
3.55595e-14
3.16052e-14
3.20081e-14
2.75072e-14
2.98875e-14
2.8184e-14
2.60731e-14
3.83418e-14
4.37547e-14
4.21119e-14
3.95612e-14
3.59404e-14
3.69246e-14
5.16757e-14
5.31722e-14
5.05166e-14
4.9335e-14
4.79088e-14
5.35051e-14
5.58812e-14
5.91304e-14
6.49038e-14
6.46013e-14
6.35665e-14
5.64391e-14
5.02568e-14
5.77527e-14
5.39231e-14
4.86559e-14
4.55633e-14
4.61757e-14
4.88141e-14
5.25922e-14
5.23904e-14
5.28826e-14
5.43058e-14
5.355e-14
5.34687e-14
6.11714e-14
6.65515e-14
6.4652e-14
6.08e-14
4.94241e-14
5.02354e-14
5.9005e-14
7.07383e-14
7.9524e-14
7.94115e-14
7.7322e-14
7.73657e-14
6.97294e-14
6.64503e-14
6.03111e-14
4.66468e-14
4.21894e-14
5.32752e-14
1.61864e-14
1.7566e-14
1.71436e-14
2.20643e-14
2.61667e-14
3.82298e-14
3.33146e-14
2.33769e-14
1.96334e-14
1.92116e-14
2.26028e-14
1.87854e-14
2.14743e-14
2.27154e-14
2.35961e-14
3.00106e-14
3.39785e-14
3.62915e-14
3.06214e-14
2.5007e-14
2.78959e-14
2.8501e-14
2.70418e-14
2.4212e-14
2.76233e-14
3.22162e-14
2.77382e-14
2.13352e-14
2.7944e-14
5.34077e-14
7.83871e-14
1.01875e-13
1.06158e-13
1.0946e-13
1.11671e-13
1.00275e-13
7.28879e-14
4.38643e-14
3.26065e-14
2.54446e-14
2.16345e-14
1.91872e-14
1.42078e-14
9.03823e-15
1.31794e-14
1.70928e-14
1.5886e-14
1.33779e-14
1.69012e-14
2.96579e-14
3.51481e-14
3.90201e-14
3.84219e-14
2.62193e-14
2.55255e-14
3.46048e-14
3.65089e-14
4.43953e-14
4.61171e-14
4.549e-14
4.62357e-14
5.82243e-14
5.30396e-14
5.68744e-14
5.50832e-14
5.2415e-14
4.404e-14
4.33553e-14
4.96058e-14
4.35261e-14
3.7311e-14
3.54968e-14
4.32729e-14
3.40274e-14
3.72265e-14
4.06378e-14
3.88326e-14
4.03965e-14
4.07784e-14
4.45059e-14
5.3499e-14
6.23692e-14
6.83822e-14
5.44113e-14
3.9796e-14
4.16385e-14
5.35502e-14
7.19396e-14
8.29606e-14
7.96846e-14
8.14536e-14
7.09933e-14
6.27969e-14
6.06587e-14
6.27618e-14
4.87231e-14
3.41987e-14
5.04451e-14
1.13422e-14
1.41681e-14
1.56186e-14
2.76683e-14
3.49532e-14
5.13541e-14
3.84008e-14
2.76902e-14
2.04461e-14
2.18687e-14
1.75404e-14
1.2567e-14
1.44141e-14
2.09301e-14
2.20471e-14
2.09482e-14
2.08893e-14
2.48763e-14
3.0601e-14
3.30102e-14
3.13045e-14
2.86534e-14
2.19938e-14
1.86965e-14
1.57441e-14
2.2159e-14
2.71355e-14
2.28447e-14
2.95253e-14
4.89421e-14
7.79367e-14
1.01984e-13
9.40881e-14
9.25651e-14
1.0294e-13
8.49017e-14
5.80145e-14
3.56204e-14
3.01886e-14
2.83675e-14
2.21129e-14
1.52298e-14
1.57187e-14
1.0873e-14
1.16046e-14
1.61807e-14
1.59277e-14
1.46451e-14
1.92555e-14
3.36992e-14
3.46566e-14
4.2079e-14
3.80227e-14
2.53448e-14
2.65422e-14
2.34505e-14
3.05933e-14
4.15896e-14
4.36737e-14
4.65057e-14
4.85566e-14
5.03658e-14
5.45458e-14
5.37488e-14
5.28668e-14
4.94647e-14
4.88795e-14
4.63262e-14
4.52719e-14
4.13847e-14
3.83146e-14
3.47663e-14
3.61004e-14
3.46884e-14
3.433e-14
3.61858e-14
3.49871e-14
3.8773e-14
4.25733e-14
4.46306e-14
5.07413e-14
5.5991e-14
6.67057e-14
5.08666e-14
4.8084e-14
4.59178e-14
5.11732e-14
6.87183e-14
8.06327e-14
7.94234e-14
8.35262e-14
7.44271e-14
6.21584e-14
6.34554e-14
4.88208e-14
4.43458e-14
3.73463e-14
4.57774e-14
3.38602e-14
3.62939e-14
3.61588e-14
4.0722e-14
4.70207e-14
5.23663e-14
5.13947e-14
4.30844e-14
3.53515e-14
2.75065e-14
2.05264e-14
2.40602e-14
2.61971e-14
3.9148e-14
4.03862e-14
3.686e-14
4.0509e-14
4.19638e-14
4.76935e-14
5.31097e-14
5.05068e-14
4.39163e-14
3.98258e-14
3.7144e-14
3.82881e-14
3.03037e-14
3.74872e-14
4.00336e-14
4.76917e-14
5.45299e-14
7.06829e-14
8.23757e-14
8.06977e-14
7.59108e-14
7.6164e-14
6.53369e-14
5.25872e-14
4.75948e-14
3.86466e-14
4.29544e-14
3.59147e-14
2.98397e-14
3.13542e-14
3.32902e-14
3.19667e-14
3.2814e-14
3.68078e-14
3.33942e-14
3.1235e-14
3.50015e-14
4.12773e-14
4.74579e-14
4.62533e-14
4.20515e-14
4.05388e-14
3.83156e-14
3.39668e-14
3.52327e-14
4.23447e-14
4.90226e-14
5.56444e-14
5.22893e-14
6.0814e-14
6.87246e-14
6.38004e-14
6.39172e-14
6.63927e-14
5.55122e-14
5.52096e-14
5.46781e-14
5.50162e-14
5.11489e-14
4.7386e-14
4.93594e-14
4.51056e-14
4.69099e-14
5.03968e-14
5.41206e-14
5.51391e-14
6.27754e-14
5.64722e-14
5.41936e-14
5.33531e-14
5.56276e-14
5.77312e-14
5.77041e-14
5.94376e-14
6.69356e-14
6.87872e-14
6.96471e-14
6.84462e-14
7.12577e-14
7.27339e-14
6.71987e-14
4.10357e-14
4.25318e-14
4.41018e-14
5.00023e-14
5.41505e-14
5.27983e-14
5.45572e-14
4.54863e-14
6.0072e-14
5.76838e-14
6.22614e-14
6.12418e-14
5.56252e-14
4.64365e-14
4.53676e-14
4.71342e-14
4.98062e-14
5.1213e-14
5.78324e-14
5.67655e-14
5.94689e-14
5.61253e-14
6.18924e-14
5.75657e-14
6.20035e-14
5.89357e-14
5.94257e-14
5.59091e-14
5.89032e-14
5.51078e-14
6.36177e-14
6.03112e-14
6.96817e-14
6.72099e-14
7.37498e-14
6.81989e-14
7.65913e-14
7.8045e-14
7.34969e-14
6.72793e-14
6.18506e-14
6.14648e-14
5.49109e-14
5.28974e-14
5.76223e-14
4.96383e-14
5.60463e-14
5.66673e-14
5.86033e-14
5.40022e-14
5.44007e-14
4.88054e-14
5.57791e-14
5.30252e-14
6.20679e-14
6.17549e-14
6.2675e-14
5.82497e-14
5.63346e-14
4.44901e-14
5.32552e-14
5.28641e-14
5.98919e-14
6.4564e-14
6.50703e-14
6.4608e-14
7.21291e-14
7.55622e-14
7.80235e-14
8.00509e-14
7.83484e-14
6.90466e-14
6.28331e-14
6.66239e-14
6.24474e-14
6.79337e-14
6.20319e-14
6.35822e-14
5.94923e-14
6.48044e-14
6.66672e-14
7.04527e-14
6.77096e-14
6.9872e-14
6.55974e-14
7.12405e-14
6.95699e-14
7.17541e-14
6.98708e-14
7.18462e-14
7.27071e-14
7.80885e-14
7.84492e-14
7.71075e-14
7.77099e-14
7.80176e-14
7.72653e-14
6.89931e-14
5.60841e-14
5.56368e-14
5.87537e-14
6.09358e-14
4.6485e-14
4.4844e-14
4.81366e-14
4.7606e-14
5.56623e-14
5.82392e-14
6.29005e-14
6.23841e-14
5.82799e-14
5.04655e-14
4.6524e-14
5.14842e-14
5.0462e-14
4.73877e-14
5.02801e-14
5.3422e-14
5.01667e-14
5.2322e-14
5.40127e-14
4.96712e-14
5.28662e-14
5.88247e-14
5.8323e-14
5.82256e-14
5.75618e-14
6.51048e-14
6.86953e-14
6.58918e-14
6.3079e-14
6.07595e-14
6.34923e-14
6.47975e-14
6.30137e-14
6.83968e-14
6.5713e-14
6.40365e-14
6.14949e-14
5.80846e-14
5.41614e-14
5.196e-14
5.2991e-14
5.34777e-14
5.48399e-14
5.99394e-14
5.63296e-14
6.00813e-14
5.51886e-14
5.2325e-14
5.21451e-14
5.46709e-14
5.97876e-14
6.49182e-14
6.44508e-14
5.35763e-14
3.99458e-14
4.46384e-14
5.64259e-14
6.344e-14
6.21732e-14
6.1748e-14
6.14408e-14
6.44447e-14
6.70999e-14
6.78547e-14
7.08625e-14
6.67211e-14
6.68345e-14
6.89037e-14
7.13532e-14
6.52043e-14
5.99595e-14
6.48973e-14
6.22102e-14
6.28445e-14
6.38084e-14
6.42791e-14
6.53017e-14
6.87962e-14
7.08194e-14
6.36596e-14
7.02052e-14
6.9565e-14
7.23879e-14
7.23725e-14
7.193e-14
7.44791e-14
7.66777e-14
7.36731e-14
7.23491e-14
6.59433e-14
6.29454e-14
6.10529e-14
6.45626e-14
5.71573e-14
5.72853e-14
5.09612e-14
5.5351e-14
5.50485e-14
3.45635e-14
3.92649e-14
3.77527e-14
3.95328e-14
4.04545e-14
5.04667e-14
4.78156e-14
4.37454e-14
4.35045e-14
3.41283e-14
2.91985e-14
3.05951e-14
2.56612e-14
2.89221e-14
2.514e-14
2.64401e-14
2.25786e-14
3.33632e-14
2.66996e-14
3.22772e-14
3.06347e-14
4.38813e-14
4.17558e-14
4.43356e-14
4.31301e-14
4.49206e-14
4.61929e-14
4.24251e-14
3.23967e-14
3.77837e-14
3.61854e-14
4.2995e-14
3.7438e-14
4.25949e-14
4.29515e-14
4.41542e-14
4.10384e-14
4.1835e-14
3.64743e-14
4.09962e-14
3.66715e-14
4.68679e-14
4.46161e-14
4.6055e-14
4.09115e-14
4.60246e-14
4.16813e-14
5.05601e-14
4.53272e-14
4.93814e-14
4.994e-14
5.87216e-14
5.47734e-14
4.00382e-14
3.24373e-14
3.97579e-14
3.82976e-14
4.51358e-14
4.3108e-14
4.2874e-14
4.51049e-14
5.05011e-14
4.79009e-14
5.71552e-14
5.30887e-14
4.58341e-14
4.56131e-14
5.82077e-14
6.42018e-14
5.89651e-14
5.29487e-14
5.45595e-14
5.97042e-14
5.7634e-14
5.38383e-14
5.12482e-14
5.24606e-14
5.17275e-14
5.14586e-14
4.46548e-14
5.21941e-14
5.14145e-14
5.3937e-14
5.1487e-14
5.13772e-14
4.77905e-14
5.19067e-14
4.88036e-14
4.26169e-14
3.51349e-14
3.5319e-14
3.88756e-14
4.00643e-14
3.73973e-14
3.8781e-14
3.29126e-14
3.6027e-14
3.2619e-14
4.17052e-14
3.49353e-14
3.49079e-14
2.88965e-14
3.23357e-14
2.94889e-14
2.85528e-14
3.16267e-14
4.05596e-14
3.57355e-14
3.09011e-14
2.90096e-14
2.51899e-14
2.17298e-14
1.47911e-14
8.1877e-15
1.58218e-14
1.97193e-14
1.23986e-14
1.35681e-14
1.39511e-14
2.0595e-14
2.16748e-14
2.28967e-14
2.79746e-14
2.52358e-14
3.02032e-14
3.44125e-14
2.22247e-14
2.10569e-14
2.35894e-14
2.94075e-14
3.31765e-14
3.23167e-14
2.9595e-14
2.51081e-14
2.77841e-14
2.42192e-14
2.79153e-14
2.9456e-14
3.89372e-14
4.43721e-14
4.35322e-14
3.79223e-14
4.08932e-14
4.29995e-14
4.70293e-14
5.10102e-14
5.93981e-14
5.53621e-14
5.64981e-14
5.50804e-14
4.69992e-14
3.51452e-14
2.94724e-14
2.97352e-14
4.05912e-14
4.00589e-14
4.26961e-14
4.10177e-14
4.13631e-14
4.1969e-14
4.52409e-14
4.31865e-14
4.0237e-14
4.03992e-14
3.92486e-14
4.86577e-14
4.82014e-14
4.81002e-14
4.47082e-14
4.73352e-14
4.13287e-14
4.13126e-14
3.28554e-14
3.6742e-14
3.76612e-14
3.59621e-14
2.78142e-14
3.0183e-14
3.27622e-14
2.80721e-14
2.91448e-14
2.49109e-14
2.32323e-14
2.39877e-14
2.55522e-14
2.23889e-14
2.21879e-14
2.80283e-14
2.74713e-14
2.796e-14
2.09993e-14
2.06269e-14
2.50371e-14
2.51229e-14
2.91511e-14
2.94731e-14
3.10654e-14
3.57323e-14
2.43274e-14
1.17425e-14
9.22466e-15
5.32292e-15
1.33231e-14
2.49548e-14
3.43926e-14
3.09153e-14
3.08023e-14
3.17147e-14
2.74046e-14
2.03977e-14
1.44644e-14
1.471e-14
1.43404e-14
1.13591e-14
1.39446e-15
3.55045e-15
4.50201e-15
7.57539e-15
1.42681e-14
6.77522e-15
1.27153e-14
1.11677e-14
1.58208e-14
2.67491e-14
1.98885e-14
2.00646e-14
2.17415e-14
3.25396e-14
3.91746e-14
4.74895e-14
5.15328e-14
4.63223e-14
2.71949e-14
1.39821e-14
2.08008e-14
2.31238e-14
2.75052e-14
3.08673e-14
3.35999e-14
2.98419e-14
3.15367e-14
4.12081e-14
5.45634e-14
5.15245e-14
5.94404e-14
5.67422e-14
5.74357e-14
5.57678e-14
4.69592e-14
3.94978e-14
2.80468e-14
3.47942e-14
3.26613e-14
3.17134e-14
3.49993e-14
2.88033e-14
2.739e-14
2.99895e-14
3.3679e-14
2.52008e-14
2.47575e-14
3.07448e-14
2.47671e-14
2.93749e-14
3.12411e-14
3.4161e-14
3.04645e-14
2.66145e-14
1.91523e-14
1.66315e-14
1.14766e-14
1.01687e-14
9.52407e-15
6.84223e-15
7.16363e-15
6.27267e-15
7.37315e-15
1.15216e-14
1.68755e-14
1.03794e-14
4.96837e-15
9.49105e-15
1.09106e-14
8.91364e-15
7.75503e-15
1.65145e-14
2.60429e-14
2.66385e-14
2.26814e-14
1.3677e-14
7.23255e-15
1.11494e-14
1.0139e-14
1.40893e-14
1.45728e-14
2.579e-14
1.80345e-14
1.56734e-14
1.11511e-14
1.09846e-14
2.02432e-14
1.80733e-14
2.21243e-14
3.05645e-14
3.81304e-14
3.81874e-14
2.71568e-14
1.72442e-14
1.54636e-14
1.39084e-14
1.17255e-14
1.63129e-14
1.02477e-14
9.61779e-15
1.35205e-14
1.33396e-14
1.71412e-14
1.47278e-14
1.09956e-14
1.30225e-14
1.67042e-14
2.13366e-14
1.89574e-14
2.12276e-14
3.25788e-14
4.38841e-14
6.19419e-14
7.28418e-14
8.50059e-14
7.85575e-14
5.02507e-14
1.49537e-14
1.48541e-14
2.32255e-14
2.69308e-14
2.53909e-14
2.59271e-14
2.96727e-14
2.93863e-14
3.50956e-14
4.85286e-14
5.05296e-14
5.30545e-14
5.8592e-14
6.41463e-14
6.65731e-14
5.54799e-14
4.08784e-14
2.70141e-14
2.80395e-14
3.45732e-14
3.89063e-14
2.71342e-14
1.91364e-14
2.31861e-14
2.07419e-14
1.933e-14
1.89195e-14
2.36471e-14
2.42878e-14
2.80058e-14
1.94894e-14
2.16676e-14
2.65793e-14
2.7328e-14
2.20733e-14
2.55378e-14
2.45008e-14
2.15217e-14
1.69909e-14
1.58949e-14
1.52604e-14
1.06657e-14
8.6577e-15
7.19373e-15
4.92463e-15
1.2057e-14
4.82763e-15
3.19223e-15
7.40002e-15
1.59548e-14
6.08976e-15
1.49802e-14
1.91804e-14
2.86983e-14
3.50027e-14
3.32852e-14
2.68935e-14
1.96255e-14
1.75781e-14
1.62893e-14
2.68647e-14
2.95252e-14
2.80944e-14
2.64062e-14
1.84205e-14
1.46719e-14
9.65793e-15
1.22739e-14
1.74677e-14
1.96442e-14
2.78566e-14
3.77715e-14
3.69864e-14
2.71812e-14
2.1376e-14
2.29315e-14
1.90987e-14
1.99658e-14
1.72812e-14
2.12043e-14
2.11643e-14
2.55235e-14
2.53039e-14
3.51218e-14
3.42274e-14
3.45392e-14
3.25595e-14
2.67684e-14
2.6405e-14
3.64733e-14
3.55469e-14
4.83537e-14
5.70095e-14
7.77698e-14
8.87887e-14
9.66384e-14
8.67263e-14
6.11989e-14
3.85826e-14
2.79807e-14
3.82239e-14
4.92541e-14
3.99553e-14
3.74503e-14
3.7423e-14
3.72726e-14
3.94003e-14
5.04198e-14
5.4533e-14
5.86113e-14
6.5731e-14
6.74658e-14
6.53653e-14
6.3725e-14
5.20889e-14
4.51058e-14
4.05509e-14
4.59329e-14
4.3797e-14
3.73626e-14
3.47467e-14
3.59426e-14
3.31654e-14
3.25324e-14
3.77927e-14
4.77135e-14
4.20939e-14
4.76141e-14
3.94723e-14
3.8193e-14
4.17733e-14
4.3557e-14
3.77572e-14
3.56062e-14
4.86711e-14
4.62795e-14
4.17187e-14
3.30758e-14
3.67463e-14
2.84871e-14
3.01466e-14
2.47955e-14
3.02645e-14
2.78875e-14
2.51268e-14
2.39375e-14
2.90333e-14
2.69083e-14
2.23735e-14
2.12367e-14
2.57213e-14
3.33804e-14
3.78358e-14
3.7413e-14
3.19831e-14
2.29058e-14
1.61796e-14
1.41352e-14
2.8786e-14
3.87218e-14
3.86008e-14
3.44732e-14
2.82161e-14
2.31204e-14
2.38386e-14
2.39195e-14
1.99834e-14
2.04385e-14
2.70555e-14
3.03673e-14
2.78164e-14
2.94617e-14
2.35876e-14
3.0836e-14
3.81588e-14
3.52954e-14
3.49089e-14
3.65938e-14
3.53473e-14
4.14366e-14
4.06942e-14
4.02969e-14
4.06621e-14
4.17133e-14
4.1142e-14
4.77043e-14
4.38666e-14
4.94405e-14
5.44555e-14
6.53024e-14
7.02513e-14
7.92583e-14
9.7556e-14
1.10925e-13
9.87135e-14
6.7484e-14
4.68044e-14
4.66412e-14
5.67732e-14
6.41664e-14
5.91793e-14
5.09804e-14
5.07005e-14
4.92362e-14
5.31518e-14
5.50037e-14
6.52056e-14
7.00232e-14
6.86492e-14
7.46286e-14
7.04922e-14
6.38007e-14
5.7523e-14
5.88189e-14
5.73251e-14
5.53833e-14
4.88854e-14
4.83421e-14
4.56122e-14
4.58631e-14
4.14324e-14
4.24696e-14
4.09933e-14
3.99413e-14
4.17451e-14
4.40408e-14
4.35113e-14
4.5224e-14
4.05004e-14
4.70916e-14
5.599e-14
5.01721e-14
5.50978e-14
5.34341e-14
5.64811e-14
5.03951e-14
5.13924e-14
4.80133e-14
5.23335e-14
5.0017e-14
4.60854e-14
4.05209e-14
3.8576e-14
4.01885e-14
4.01203e-14
3.31187e-14
3.59392e-14
4.25736e-14
4.49175e-14
4.63487e-14
4.79526e-14
4.94684e-14
4.19123e-14
3.22382e-14
2.46761e-14
2.05866e-14
3.09082e-14
1.22722e-14
1.41596e-14
1.34919e-14
1.30597e-14
9.66036e-15
8.83763e-15
7.26712e-15
3.59446e-15
9.15233e-15
1.00429e-14
1.35773e-14
1.40548e-14
1.23735e-14
8.13878e-15
2.36408e-14
2.7067e-14
1.53808e-14
1.63697e-14
1.98315e-14
1.92365e-14
1.9464e-14
2.22934e-14
2.18898e-14
2.24169e-14
1.85694e-14
2.28198e-14
3.33709e-14
4.28629e-14
4.05875e-14
4.48054e-14
5.50303e-14
7.38707e-14
9.23682e-14
1.05374e-13
1.05968e-13
9.28782e-14
6.22591e-14
3.81881e-14
3.3925e-14
3.94407e-14
4.2243e-14
4.31677e-14
3.88429e-14
3.8229e-14
3.80354e-14
4.09825e-14
3.94263e-14
4.26302e-14
4.55288e-14
4.66694e-14
4.74058e-14
4.89799e-14
4.17008e-14
3.60567e-14
4.03243e-14
3.73358e-14
3.11916e-14
2.9789e-14
2.78323e-14
2.7123e-14
2.51615e-14
1.94196e-14
1.70876e-14
1.20735e-14
8.79951e-15
1.51581e-14
1.31179e-14
1.40573e-14
1.64264e-14
1.25059e-14
2.00319e-14
2.93935e-14
3.52144e-14
3.1022e-14
3.17873e-14
3.0217e-14
2.78367e-14
2.64946e-14
3.0048e-14
2.80865e-14
2.74989e-14
2.05057e-14
1.72663e-14
1.40645e-14
1.59183e-14
9.90999e-15
8.87378e-15
8.99113e-15
1.83114e-14
2.56785e-14
3.46541e-14
3.77928e-14
4.26022e-14
4.00621e-14
3.22473e-14
2.27431e-14
2.55377e-14
2.8978e-14
1.559e-14
1.93649e-14
2.24597e-14
1.95495e-14
2.54283e-14
2.30318e-14
2.49058e-14
2.01912e-14
1.79652e-14
1.59736e-14
1.82056e-14
1.81259e-14
2.26199e-14
1.799e-14
1.16602e-14
1.13541e-14
1.54546e-14
2.25174e-14
1.76554e-14
5.38355e-15
1.65032e-14
1.9845e-14
2.44811e-14
2.37297e-14
1.53238e-14
7.00641e-15
2.1608e-14
3.42031e-14
3.66698e-14
4.15421e-14
5.774e-14
8.40174e-14
1.15668e-13
1.29521e-13
1.22252e-13
9.37643e-14
5.35317e-14
2.14478e-14
8.7737e-16
1.19032e-14
1.54436e-14
1.83449e-14
2.38248e-14
3.21834e-14
3.28422e-14
3.51264e-14
3.20945e-14
2.71668e-14
2.95113e-14
3.02917e-14
3.40636e-14
3.41356e-14
2.91869e-14
2.78972e-14
2.81541e-14
2.71752e-14
2.47655e-14
2.5124e-14
2.74347e-14
2.09391e-14
1.81162e-14
1.58312e-14
1.75296e-14
1.50737e-14
1.94853e-14
1.88523e-14
2.48017e-14
2.18872e-14
1.27415e-14
1.79367e-14
1.78081e-14
1.61837e-14
1.88209e-14
3.05575e-14
2.9874e-14
2.48823e-14
1.99343e-14
2.18813e-14
1.97515e-14
1.99365e-14
1.66881e-14
1.27268e-14
1.28662e-14
1.6012e-14
1.72524e-14
2.70682e-14
3.10338e-14
3.00457e-14
2.91911e-14
3.47474e-14
3.86392e-14
4.0705e-14
4.18916e-14
4.86402e-14
5.24758e-14
4.87112e-14
4.65473e-14
4.40303e-14
2.70563e-14
2.78752e-14
3.10522e-14
3.02537e-14
3.34937e-14
3.5363e-14
3.26569e-14
2.96577e-14
2.56888e-14
2.21729e-14
2.62821e-14
2.90099e-14
3.16728e-14
3.77729e-14
2.99005e-14
2.91625e-14
2.61989e-14
3.14816e-14
2.59505e-14
1.13122e-14
1.49279e-14
2.20347e-14
3.32636e-14
3.24624e-14
2.38484e-14
2.52185e-14
3.12795e-14
3.90981e-14
4.51241e-14
5.65938e-14
7.31034e-14
9.5508e-14
1.25724e-13
1.45959e-13
1.32641e-13
9.28065e-14
4.62445e-14
2.38602e-14
2.18165e-14
2.07381e-14
1.92775e-14
1.83326e-14
3.37296e-14
4.30486e-14
4.15763e-14
3.98375e-14
3.82829e-14
3.55754e-14
4.15208e-14
4.49962e-14
3.88851e-14
3.3665e-14
3.24754e-14
3.65227e-14
4.26757e-14
4.09887e-14
3.54535e-14
2.81753e-14
3.05033e-14
3.09342e-14
2.77335e-14
2.73085e-14
2.74218e-14
2.57905e-14
2.97672e-14
2.86482e-14
3.2251e-14
3.25261e-14
2.41926e-14
2.61857e-14
1.93442e-14
2.31705e-14
2.12414e-14
3.2232e-14
3.35009e-14
3.13386e-14
3.05791e-14
2.86237e-14
2.69892e-14
2.52716e-14
2.27724e-14
2.44465e-14
2.03028e-14
2.01231e-14
3.19533e-14
4.2491e-14
5.14794e-14
4.83446e-14
4.51776e-14
4.34619e-14
4.32444e-14
4.48818e-14
4.76612e-14
5.39717e-14
5.95819e-14
6.32715e-14
6.55861e-14
6.20942e-14
2.36125e-14
2.54564e-14
2.42039e-14
2.81609e-14
2.5929e-14
2.01428e-14
1.31271e-14
9.99627e-15
1.15525e-14
1.61569e-14
1.52519e-14
1.2114e-14
9.26138e-15
2.39943e-14
2.78832e-14
2.1912e-14
2.04656e-14
2.57297e-14
3.33386e-14
2.7104e-14
1.47515e-14
2.9437e-14
4.07013e-14
4.20943e-14
2.9561e-14
1.69379e-14
1.74453e-14
3.72162e-14
5.35835e-14
5.51915e-14
7.09379e-14
9.23478e-14
1.26121e-13
1.43885e-13
1.29178e-13
8.51495e-14
3.22601e-14
6.30883e-15
1.57428e-14
2.56539e-14
3.13671e-14
2.83591e-14
5.2515e-14
5.07089e-14
4.67153e-14
4.48625e-14
3.8824e-14
3.82722e-14
3.58909e-14
3.73856e-14
3.61094e-14
3.37645e-14
3.21861e-14
3.05079e-14
3.21426e-14
3.95095e-14
3.89934e-14
3.15833e-14
2.33483e-14
2.58789e-14
2.35666e-14
2.05425e-14
2.06084e-14
2.13768e-14
2.34751e-14
2.57933e-14
2.52688e-14
2.63509e-14
2.88513e-14
2.40264e-14
2.05251e-14
1.69656e-14
2.29143e-14
3.33968e-14
2.56504e-14
2.11866e-14
2.00031e-14
1.67138e-14
2.25603e-14
2.14897e-14
2.08446e-14
2.21837e-14
1.96397e-14
2.41453e-14
2.76179e-14
2.5421e-14
3.26374e-14
3.55382e-14
3.38948e-14
3.74955e-14
3.86845e-14
4.41611e-14
4.91935e-14
5.48383e-14
5.84124e-14
6.34154e-14
6.31587e-14
6.47878e-14
1.37511e-14
1.20497e-14
1.96942e-14
1.75505e-14
1.96997e-14
1.95843e-14
2.28689e-14
2.42146e-14
2.33026e-14
1.99582e-14
2.194e-14
2.92137e-14
3.23886e-14
2.56015e-14
2.27612e-14
2.63677e-14
2.45131e-14
2.99677e-14
2.81678e-14
1.75827e-14
2.48313e-14
2.45217e-14
2.62642e-14
2.84337e-14
3.0027e-14
2.66363e-14
1.77326e-14
2.7366e-14
3.04148e-14
3.64674e-14
5.5005e-14
6.49285e-14
8.49065e-14
9.76835e-14
8.74921e-14
6.77544e-14
3.75402e-14
3.83122e-14
4.90334e-14
5.02278e-14
5.00179e-14
4.67034e-14
5.707e-14
5.18159e-14
3.94683e-14
3.40756e-14
3.1716e-14
2.73942e-14
3.26749e-14
3.31618e-14
2.77662e-14
2.01558e-14
2.46124e-14
2.60144e-14
2.17532e-14
2.88783e-14
3.803e-14
5.10577e-14
5.11946e-14
4.78581e-14
5.15556e-14
4.45733e-14
3.45704e-14
2.82183e-14
1.71303e-14
1.09275e-14
1.24267e-14
6.63407e-15
1.05669e-14
7.00279e-15
7.49214e-15
1.76839e-14
1.77107e-14
3.08076e-14
2.89348e-14
2.1955e-14
1.9118e-14
2.03379e-14
1.73324e-14
1.66467e-14
1.23593e-14
9.62457e-15
5.07182e-15
1.09198e-14
1.11609e-14
1.40459e-14
1.822e-14
2.14459e-14
2.2174e-14
2.70055e-14
2.92846e-14
3.62272e-14
4.31166e-14
4.35036e-14
5.02697e-14
5.6494e-14
5.40175e-14
5.54034e-14
4.31538e-14
4.91715e-14
5.3555e-14
5.32953e-14
5.29561e-14
4.48999e-14
4.23964e-14
4.19144e-14
4.22085e-14
4.7438e-14
4.73356e-14
5.19224e-14
4.5669e-14
5.48995e-14
5.71453e-14
6.04032e-14
5.78556e-14
6.45265e-14
5.6307e-14
5.01581e-14
4.23105e-14
4.53901e-14
4.71706e-14
5.41643e-14
5.36909e-14
5.02919e-14
4.20205e-14
4.75933e-14
4.64467e-14
4.83352e-14
5.86831e-14
6.57216e-14
6.84941e-14
7.81737e-14
7.78543e-14
7.81663e-14
6.97621e-14
6.29656e-14
6.92146e-14
6.40956e-14
5.93239e-14
7.20633e-14
6.6878e-14
6.75721e-14
6.30883e-14
5.93537e-14
5.86295e-14
6.03076e-14
5.78527e-14
5.62242e-14
4.62501e-14
4.48003e-14
4.61165e-14
5.45964e-14
5.44435e-14
6.63409e-14
7.24194e-14
7.63049e-14
6.48795e-14
6.76693e-14
5.82353e-14
5.30374e-14
5.02744e-14
4.95553e-14
4.20322e-14
4.48331e-14
4.02633e-14
4.55842e-14
4.66895e-14
4.78538e-14
5.48495e-14
5.86964e-14
5.44875e-14
5.68984e-14
6.39584e-14
5.50445e-14
5.33114e-14
5.24488e-14
5.39763e-14
5.07683e-14
5.05826e-14
4.844e-14
5.01666e-14
5.41117e-14
5.14317e-14
5.21296e-14
5.77565e-14
6.60532e-14
6.77957e-14
6.7973e-14
6.68263e-14
6.1129e-14
6.35387e-14
6.79448e-14
7.08077e-14
7.10086e-14
6.50606e-14
6.42953e-14
5.54722e-14
5.43428e-14
4.39948e-14
5.08078e-14
5.3756e-14
6.08819e-14
5.04226e-14
4.64363e-14
5.01402e-14
5.2385e-14
4.89409e-14
4.79996e-14
4.68905e-14
5.77057e-14
6.31209e-14
6.28492e-14
6.08901e-14
5.51673e-14
4.32595e-14
4.90511e-14
4.30671e-14
4.58222e-14
4.39838e-14
4.55059e-14
4.04681e-14
4.35006e-14
4.9157e-14
4.93346e-14
4.24059e-14
4.67957e-14
5.20415e-14
6.07274e-14
6.73936e-14
7.19792e-14
7.44332e-14
7.44081e-14
7.20482e-14
6.72793e-14
6.48266e-14
6.99511e-14
6.61498e-14
7.46575e-14
8.07665e-14
7.95588e-14
8.10356e-14
8.06511e-14
7.78767e-14
7.1111e-14
6.73679e-14
6.46824e-14
5.49148e-14
5.77554e-14
6.69233e-14
6.58005e-14
6.78689e-14
6.81109e-14
6.32245e-14
6.09972e-14
5.63479e-14
5.98753e-14
4.83319e-14
4.61605e-14
4.8227e-14
5.79123e-14
5.72197e-14
5.43445e-14
5.98897e-14
6.2387e-14
6.05004e-14
6.34888e-14
6.22904e-14
5.21857e-14
5.29026e-14
5.55438e-14
6.49808e-14
6.86205e-14
7.08081e-14
7.37068e-14
7.41752e-14
7.33645e-14
6.79323e-14
5.47706e-14
5.2622e-14
4.88131e-14
5.45626e-14
6.17841e-14
6.78939e-14
6.6073e-14
6.43298e-14
6.05896e-14
6.00129e-14
5.46671e-14
5.78794e-14
6.10803e-14
6.0845e-14
5.80819e-14
6.15556e-14
6.07404e-14
2.87735e-14
2.24558e-14
1.66749e-14
1.8717e-14
2.3321e-14
2.95324e-14
3.20343e-14
2.9562e-14
2.75451e-14
2.41965e-14
2.46456e-14
2.52047e-14
3.11312e-14
3.14464e-14
3.59337e-14
4.06184e-14
3.68246e-14
3.09589e-14
3.14935e-14
3.0325e-14
3.31315e-14
3.22336e-14
3.09179e-14
2.52385e-14
2.77755e-14
3.49875e-14
3.68961e-14
3.18836e-14
2.81735e-14
3.15814e-14
3.72513e-14
3.52096e-14
3.96445e-14
4.08688e-14
4.35681e-14
4.20117e-14
4.0641e-14
4.2369e-14
4.19477e-14
4.76996e-14
4.91839e-14
5.56323e-14
5.9516e-14
5.89245e-14
6.30604e-14
6.13744e-14
6.36013e-14
5.57341e-14
4.96083e-14
4.51853e-14
4.73515e-14
4.79452e-14
5.10493e-14
4.81653e-14
5.23981e-14
4.84184e-14
4.19614e-14
3.7135e-14
3.37689e-14
3.35221e-14
2.84775e-14
2.87862e-14
2.69759e-14
3.45812e-14
4.11995e-14
3.75486e-14
3.83097e-14
3.74066e-14
3.85106e-14
3.92019e-14
3.39059e-14
2.88096e-14
2.95004e-14
3.52458e-14
3.66842e-14
4.41676e-14
4.29823e-14
4.36404e-14
4.27455e-14
4.45854e-14
4.10911e-14
3.41287e-14
2.65989e-14
2.71074e-14
3.04056e-14
3.55197e-14
3.70846e-14
3.4466e-14
2.9607e-14
2.7551e-14
2.66179e-14
2.30342e-14
3.0727e-14
2.89613e-14
2.73855e-14
2.57243e-14
3.18052e-14
3.63647e-14
1.01639e-14
9.76261e-15
1.52298e-14
1.52998e-14
7.90672e-15
1.44686e-14
1.41946e-14
9.83234e-15
5.7886e-15
7.84202e-15
1.24454e-14
1.58129e-14
1.54945e-14
2.10747e-14
2.84022e-14
2.34131e-14
1.81699e-14
1.58636e-14
1.05997e-14
9.33597e-15
1.08167e-14
1.36455e-14
1.88488e-14
1.92311e-14
2.16988e-14
1.37682e-14
9.61127e-15
8.29726e-15
1.0747e-14
7.84726e-15
7.77886e-15
1.07468e-14
1.12188e-14
9.01977e-15
5.52888e-15
8.06207e-15
1.22268e-14
1.91919e-14
2.46469e-14
2.88939e-14
3.09209e-14
3.12577e-14
3.15045e-14
2.34913e-14
2.90027e-14
3.01803e-14
2.83092e-14
3.28489e-14
3.40808e-14
3.05518e-14
3.27394e-14
3.07529e-14
3.22027e-14
2.71707e-14
2.69019e-14
2.14447e-14
1.78832e-14
1.76853e-14
1.95461e-14
1.87358e-14
1.96651e-14
2.29969e-14
2.62344e-14
2.91265e-14
3.3631e-14
3.9511e-14
4.07611e-14
3.79382e-14
3.51058e-14
3.7047e-14
3.57858e-14
3.86309e-14
3.26581e-14
3.12712e-14
2.3334e-14
1.82678e-14
1.86635e-14
2.0265e-14
2.1714e-14
2.12648e-14
2.57398e-14
2.08025e-14
9.19974e-15
8.05343e-15
8.75096e-15
1.16817e-14
1.23638e-14
1.17631e-14