/*--------------------------------*- C++ -*----------------------------------*\
| =========                 |                                                 |
| \\      /  F ield         | OpenFOAM: The Open Source CFD Toolbox           |
|  \\    /   O peration     | Version:  2406                                  |
|   \\  /    A nd           | Website:  www.openfoam.com                      |
|    \\/     M anipulation  |                                                 |
\*---------------------------------------------------------------------------*/
FoamFile
{
    version     2.0;
    format      ascii;
    arch        "LSB;label=32;scalar=64";
    class       volScalarField;
    location    "0.01";
    object      Ma;
}
// * * * * * * * * * * * * * * * * * * * * * * * * * * * * * * * * * * * * * //

dimensions      [0 0 0 0 0 0 0];

internalField   nonuniform List<scalar> 
14020
(
2.16637e-14
1.83759e-14
1.63622e-14
1.61088e-14
1.72209e-14
2.384e-14
2.78522e-14
2.4061e-14
2.19689e-14
1.83205e-14
2.28423e-14
2.71405e-14
2.7936e-14
2.90909e-14
3.21883e-14
2.85522e-14
1.92107e-14
1.47863e-14
1.59901e-14
1.69634e-14
1.71509e-14
1.8077e-14
2.09656e-14
2.76769e-14
2.65383e-14
2.89089e-14
3.16937e-14
3.65396e-14
3.36065e-14
3.48561e-14
2.98579e-14
2.44451e-14
2.35985e-14
2.307e-14
2.23128e-14
2.39605e-14
2.01005e-14
2.16936e-14
1.86024e-14
1.63985e-14
1.83961e-14
1.93934e-14
1.8403e-14
1.44254e-14
1.00618e-14
1.23336e-14
1.37896e-14
1.30329e-14
1.1579e-14
1.31826e-14
1.06757e-14
8.56366e-15
1.20036e-14
1.91941e-14
2.10517e-14
1.83124e-14
1.61458e-14
1.7204e-14
1.66619e-14
1.61456e-14
1.23108e-14
1.39884e-14
1.74799e-14
1.16248e-14
1.2459e-14
1.38828e-14
1.66335e-14
1.92839e-14
2.60991e-14
3.14647e-14
3.49308e-14
3.52972e-14
3.33641e-14
3.24047e-14
4.12583e-14
5.21921e-14
4.24431e-14
3.11426e-14
2.58011e-14
2.90833e-14
3.09256e-14
3.01294e-14
2.68308e-14
2.28327e-14
2.13462e-14
2.11973e-14
2.22031e-14
2.25786e-14
2.15801e-14
1.49313e-14
9.43997e-15
9.58116e-15
1.09302e-14
1.75338e-14
1.77783e-14
2.08236e-14
2.14602e-14
2.13943e-14
2.5308e-14
2.37089e-14
1.51103e-14
8.78407e-15
7.10874e-15
1.29489e-14
1.36991e-14
1.25421e-14
1.84546e-14
2.35306e-14
2.38699e-14
2.5372e-14
2.29663e-14
2.41315e-14
2.23557e-14
2.54228e-14
3.03266e-14
3.16814e-14
3.34026e-14
3.07179e-14
2.61302e-14
2.44243e-14
2.21207e-14
1.52537e-14
1.50904e-14
1.96631e-14
2.41674e-14
2.43086e-14
2.04698e-14
2.91749e-14
3.63707e-14
3.23513e-14
2.46094e-14
1.7579e-14
1.89713e-14
2.57374e-14
2.97393e-14
3.5701e-14
3.87553e-14
3.29261e-14
2.77125e-14
2.7469e-14
2.81637e-14
2.90564e-14
2.95698e-14
2.57759e-14
2.1807e-14
2.76984e-14
3.79548e-14
2.95117e-14
2.25857e-14
2.07876e-14
1.96201e-14
5.50282e-15
9.99588e-15
1.10576e-14
1.26768e-14
1.15103e-14
1.55744e-14
1.86077e-14
1.7868e-14
1.50494e-14
1.35119e-14
1.55104e-14
1.89184e-14
1.86318e-14
2.09992e-14
2.48132e-14
3.19064e-14
3.50834e-14
3.3533e-14
2.98978e-14
3.48895e-14
3.8123e-14
3.06528e-14
2.49937e-14
2.50806e-14
2.31533e-14
2.12305e-14
1.92972e-14
1.94952e-14
2.06492e-14
2.16346e-14
1.65676e-14
1.36641e-14
1.88828e-14
2.21906e-14
2.04874e-14
1.48085e-14
1.31334e-14
1.83e-14
1.9029e-14
2.54361e-14
2.62052e-14
2.60413e-14
2.5285e-14
2.3935e-14
2.0238e-14
1.47356e-14
1.65548e-14
2.44027e-14
3.08689e-14
3.32042e-14
3.20091e-14
2.91004e-14
2.85398e-14
2.31456e-14
2.0309e-14
2.6252e-14
3.71695e-14
4.59359e-14
5.16894e-14
4.26215e-14
3.68492e-14
2.63169e-14
1.55783e-14
1.95384e-14
2.41351e-14
2.71523e-14
2.52928e-14
2.54236e-14
2.38781e-14
1.89912e-14
1.88591e-14
2.49733e-14
2.21672e-14
2.08212e-14
1.35007e-14
1.43506e-14
1.92688e-14
2.64976e-14
2.74204e-14
2.0426e-14
2.155e-14
1.70646e-14
1.60987e-14
1.70416e-14
1.46388e-14
1.80767e-14
2.28393e-14
2.40312e-14
2.36039e-14
2.01689e-14
2.2475e-14
2.52386e-14
2.47917e-14
2.86198e-14
2.98228e-14
2.8318e-14
2.3252e-14
1.6735e-14
1.37734e-14
1.41115e-14
1.62261e-14
1.67487e-14
1.90893e-14
2.16201e-14
2.22635e-14
2.49279e-14
2.46702e-14
2.69163e-14
2.53175e-14
2.30143e-14
2.14872e-14
2.12957e-14
2.15304e-14
2.54884e-14
2.22455e-14
2.23898e-14
1.9729e-14
2.17973e-14
1.86822e-14
1.70536e-14
1.7292e-14
1.92869e-14
1.71457e-14
1.40835e-14
9.3393e-15
1.16379e-14
1.25355e-14
1.3365e-14
1.23886e-14
1.16988e-14
8.32798e-15
8.11084e-15
9.84859e-15
8.97515e-15
9.34565e-15
1.04509e-14
1.23816e-14
1.3582e-14
1.58385e-14
1.49659e-14
1.24606e-14
1.336e-14
1.23693e-14
1.01301e-14
1.28945e-14
1.17673e-14
1.7036e-14
2.08503e-14
2.74571e-14
2.96037e-14
3.34615e-14
3.48615e-14
3.05399e-14
3.11044e-14
3.38422e-14
3.83704e-14
3.40088e-14
2.95115e-14
2.58308e-14
2.7558e-14
2.98364e-14
2.65113e-14
2.64635e-14
2.36291e-14
2.12942e-14
2.26148e-14
2.11915e-14
2.39162e-14
2.39387e-14
1.69161e-14
1.1474e-14
9.44763e-15
1.18551e-14
1.60371e-14
1.66999e-14
2.04026e-14
1.99367e-14
1.98054e-14
2.21258e-14
1.85831e-14
1.2128e-14
1.19258e-14
9.2707e-15
8.84276e-15
1.16207e-14
1.15257e-14
1.58042e-14
2.1655e-14
2.3426e-14
2.40921e-14
2.2672e-14
2.36129e-14
2.28834e-14
2.40384e-14
2.79014e-14
3.04472e-14
3.14155e-14
2.7831e-14
2.51334e-14
2.53218e-14
2.2197e-14
1.61443e-14
1.93932e-14
2.21764e-14
2.53124e-14
2.29464e-14
1.8271e-14
2.59758e-14
2.94546e-14
2.845e-14
2.34436e-14
1.63505e-14
1.99426e-14
2.86985e-14
3.23034e-14
3.51955e-14
3.31626e-14
2.88627e-14
2.6985e-14
2.58481e-14
2.76836e-14
2.67101e-14
2.86127e-14
2.30903e-14
1.89066e-14
2.27343e-14
2.8338e-14
2.43052e-14
2.07238e-14
2.01309e-14
1.69378e-14
6.84868e-15
9.01717e-15
1.4621e-14
1.59793e-14
1.18447e-14
1.28999e-14
1.62292e-14
1.5673e-14
1.34225e-14
1.4425e-14
1.5656e-14
1.73322e-14
1.89347e-14
1.80872e-14
2.5384e-14
3.437e-14
3.39543e-14
3.18863e-14
2.66185e-14
3.00448e-14
3.13038e-14
2.62716e-14
2.41729e-14
2.37016e-14
2.06852e-14
1.88477e-14
1.71678e-14
1.7496e-14
1.91328e-14
1.69721e-14
1.35719e-14
1.53817e-14
1.87147e-14
1.96555e-14
1.69302e-14
1.13423e-14
1.22224e-14
1.49381e-14
1.876e-14
2.44516e-14
2.44739e-14
2.45627e-14
2.38065e-14
2.37875e-14
2.09483e-14
1.87539e-14
1.78838e-14
2.33385e-14
2.91086e-14
3.18031e-14
3.41479e-14
3.0153e-14
2.66239e-14
2.439e-14
2.01852e-14
2.33673e-14
3.23581e-14
3.90154e-14
3.92227e-14
3.89069e-14
3.60337e-14
2.70512e-14
2.11664e-14
2.2251e-14
2.67164e-14
2.7776e-14
2.64121e-14
2.68199e-14
2.39123e-14
1.9107e-14
1.85767e-14
1.83667e-14
1.31225e-14
1.2731e-14
1.3839e-14
1.57892e-14
2.05561e-14
2.61181e-14
2.74394e-14
2.2498e-14
1.67499e-14
1.57969e-14
1.67483e-14
2.21739e-14
2.29491e-14
1.61578e-14
1.66665e-14
2.00791e-14
2.04782e-14
2.25425e-14
2.43273e-14
2.45265e-14
2.43264e-14
2.94838e-14
2.56521e-14
2.36912e-14
2.40354e-14
1.85123e-14
1.26959e-14
1.26945e-14
1.28176e-14
1.36559e-14
1.50107e-14
1.70482e-14
1.86784e-14
1.91423e-14
1.72682e-14
1.76491e-14
1.54162e-14
1.49268e-14
1.70965e-14
1.73871e-14
1.8338e-14
2.21707e-14
2.1063e-14
1.98173e-14
1.75144e-14
2.18066e-14
1.95321e-14
1.81698e-14
1.36518e-14
1.40969e-14
1.26786e-14
1.0926e-14
1.07162e-14
1.16702e-14
1.31432e-14
1.28505e-14
1.08706e-14
1.07267e-14
9.62156e-15
8.50381e-15
6.76265e-15
7.72616e-15
8.65218e-15
9.81955e-15
9.6373e-15
1.28122e-14
1.27494e-14
1.2262e-14
1.40084e-14
1.47147e-14
1.39652e-14
1.44226e-14
1.37073e-14
1.31474e-14
1.86804e-14
2.05321e-14
2.42893e-14
2.9249e-14
3.4045e-14
3.367e-14
2.75872e-14
2.6269e-14
2.47696e-14
2.31476e-14
2.37861e-14
2.30593e-14
2.31913e-14
2.40181e-14
2.39929e-14
2.05963e-14
2.128e-14
2.44343e-14
2.29899e-14
2.5179e-14
2.4812e-14
2.58209e-14
2.89104e-14
1.96374e-14
1.38135e-14
1.0865e-14
1.21967e-14
1.48415e-14
1.86219e-14
2.02241e-14
1.92549e-14
1.9385e-14
2.08231e-14
1.77856e-14
1.38646e-14
1.56528e-14
1.11155e-14
5.73884e-15
8.1539e-15
1.07229e-14
1.41895e-14
1.70137e-14
2.08983e-14
2.25433e-14
2.04834e-14
1.94537e-14
2.35984e-14
2.20433e-14
2.2739e-14
2.4825e-14
2.67122e-14
2.31375e-14
2.34222e-14
2.86937e-14
2.30815e-14
1.92965e-14
2.30573e-14
2.26715e-14
2.24829e-14
1.9765e-14
1.72268e-14
1.92145e-14
1.97341e-14
2.12925e-14
1.96327e-14
1.94528e-14
1.90275e-14
2.51352e-14
2.84364e-14
2.86818e-14
2.62904e-14
2.43171e-14
2.26878e-14
2.18867e-14
2.08349e-14
2.06427e-14
2.07396e-14
1.76894e-14
1.51737e-14
1.48662e-14
2.10812e-14
2.37009e-14
1.68571e-14
1.86391e-14
1.60514e-14
8.74366e-15
8.14025e-15
1.52685e-14
1.43875e-14
1.05006e-14
1.00242e-14
1.59049e-14
1.33751e-14
1.36629e-14
1.55588e-14
1.64038e-14
1.72649e-14
2.07492e-14
2.08528e-14
2.72381e-14
3.12309e-14
2.92343e-14
2.70072e-14
2.36308e-14
2.39046e-14
2.2534e-14
2.09262e-14
2.3289e-14
1.9847e-14
1.67711e-14
1.62948e-14
1.4412e-14
1.36876e-14
1.39588e-14
1.22026e-14
1.44757e-14
1.69284e-14
1.68017e-14
1.78566e-14
1.17256e-14
6.24033e-15
8.27368e-15
9.66889e-15
1.34558e-14
1.83518e-14
1.91262e-14
1.81418e-14
1.79726e-14
1.91598e-14
1.76849e-14
1.92076e-14
2.21257e-14
2.41747e-14
2.67666e-14
2.87763e-14
3.29512e-14
3.25383e-14
2.52036e-14
2.45639e-14
2.03011e-14
1.90893e-14
2.1783e-14
2.54362e-14
3.08993e-14
3.41062e-14
3.10195e-14
2.72841e-14
2.29726e-14
2.40102e-14
2.50162e-14
2.30665e-14
2.1713e-14
2.09324e-14
1.93474e-14
1.59302e-14
1.21157e-14
8.50841e-15
6.48761e-15
4.95152e-15
1.09714e-14
1.87478e-14
2.60062e-14
2.64993e-14
2.82842e-14
2.60696e-14
1.27701e-14
1.47835e-14
1.64997e-14
1.75719e-14
1.9325e-14
1.76417e-14
1.56588e-14
1.72539e-14
1.84618e-14
2.17164e-14
2.34075e-14
2.42266e-14
2.36587e-14
2.61828e-14
2.3887e-14
2.25497e-14
2.27999e-14
1.74668e-14
1.36302e-14
1.01059e-14
1.10504e-14
1.19331e-14
1.11542e-14
1.51073e-14
1.43898e-14
1.52441e-14
1.80688e-14
1.5787e-14
1.34352e-14
1.39859e-14
1.62388e-14
1.3603e-14
1.55829e-14
1.71767e-14
1.732e-14
1.9067e-14
1.69545e-14
2.05149e-14
1.83411e-14
1.44952e-14
1.02094e-14
8.92825e-15
1.06289e-14
9.28113e-15
9.90791e-15
1.26575e-14
1.46421e-14
1.59062e-14
1.41692e-14
1.2453e-14
1.26077e-14
1.15102e-14
1.03368e-14
1.52103e-14
1.80566e-14
1.7446e-14
1.48805e-14
1.36249e-14
1.02653e-14
1.04559e-14
1.32602e-14
1.4807e-14
1.76833e-14
1.82106e-14
1.78315e-14
1.94479e-14
1.98609e-14
2.12988e-14
2.5391e-14
3.16444e-14
3.3271e-14
3.01218e-14
2.38468e-14
2.26542e-14
1.99121e-14
1.62213e-14
1.6931e-14
1.86224e-14
1.82636e-14
1.82252e-14
1.73702e-14
1.76268e-14
1.74698e-14
1.97063e-14
2.16542e-14
2.32465e-14
2.37628e-14
2.45621e-14
2.49881e-14
2.22716e-14
1.666e-14
1.38101e-14
1.71875e-14
1.73533e-14
1.88315e-14
1.87881e-14
1.78296e-14
1.90152e-14
2.02406e-14
1.74143e-14
1.7442e-14
1.66428e-14
1.09211e-14
6.68434e-15
9.99144e-15
1.03255e-14
1.50113e-14
1.78197e-14
1.87952e-14
2.09124e-14
1.99231e-14
1.77065e-14
2.02291e-14
2.08787e-14
2.05255e-14
2.04533e-14
2.15747e-14
2.0492e-14
2.24328e-14
2.36251e-14
1.98032e-14
1.99077e-14
2.0721e-14
1.95887e-14
1.95608e-14
1.71949e-14
1.47956e-14
1.28666e-14
1.57766e-14
1.39702e-14
1.60562e-14
1.56187e-14
1.5102e-14
1.80436e-14
1.82296e-14
1.75313e-14
1.79121e-14
1.79935e-14
1.67688e-14
1.50095e-14
1.38497e-14
1.57451e-14
1.77666e-14
1.70219e-14
1.60502e-14
1.59351e-14
1.84347e-14
2.14856e-14
2.04805e-14
2.11579e-14
1.94288e-14
1.30611e-14
7.28423e-15
9.88913e-15
1.21421e-14
1.16739e-14
1.60063e-14
1.62135e-14
1.22926e-14
1.35093e-14
1.25585e-14
1.44261e-14
1.8658e-14
1.89335e-14
2.26004e-14
2.60997e-14
2.54611e-14
2.35507e-14
2.31712e-14
2.06071e-14
2.06178e-14
1.81579e-14
1.78764e-14
1.80754e-14
1.55312e-14
1.51231e-14
1.42932e-14
1.43277e-14
1.42743e-14
1.11417e-14
1.53502e-14
1.81167e-14
1.58986e-14
1.63972e-14
1.42997e-14
9.21132e-15
7.30628e-15
6.19989e-15
3.71313e-15
8.10589e-15
1.17794e-14
1.45628e-14
1.42394e-14
1.4153e-14
1.51577e-14
1.71289e-14
1.68125e-14
2.20372e-14
2.68097e-14
2.89494e-14
2.87721e-14
2.81323e-14
2.91373e-14
2.61157e-14
2.49656e-14
2.38097e-14
2.17887e-14
2.03907e-14
2.50658e-14
2.83552e-14
2.56786e-14
2.57127e-14
2.52186e-14
2.19074e-14
2.18691e-14
2.10265e-14
1.90628e-14
1.59298e-14
1.55709e-14
1.49907e-14
1.15502e-14
9.0695e-15
8.06586e-15
5.06821e-15
4.85181e-15
1.13949e-14
1.64865e-14
2.27111e-14
2.62667e-14
2.60787e-14
2.73048e-14
1.12563e-14
1.13929e-14
1.36461e-14
1.36283e-14
1.53634e-14
1.64338e-14
1.55723e-14
1.56199e-14
1.6076e-14
2.0226e-14
2.5694e-14
2.66983e-14
2.43669e-14
2.38506e-14
2.18553e-14
2.25782e-14
2.31402e-14
1.62815e-14
1.3048e-14
1.01652e-14
7.07888e-15
8.61083e-15
7.79359e-15
8.94648e-15
7.255e-15
1.11651e-14
1.50401e-14
1.39343e-14
1.12361e-14
1.33329e-14
1.41998e-14
1.12413e-14
1.39086e-14
1.54283e-14
1.60297e-14
1.65748e-14
1.75892e-14
1.79298e-14
1.82056e-14
1.31175e-14
1.28131e-14
1.20568e-14
1.15084e-14
9.59253e-15
9.54816e-15
1.20727e-14
1.39202e-14
1.62957e-14
1.59168e-14
1.59971e-14
1.31346e-14
1.06151e-14
1.23117e-14
1.87651e-14
2.10424e-14
1.79934e-14
1.79046e-14
1.37858e-14
1.03703e-14
8.71346e-15
1.20749e-14
1.60517e-14
1.9112e-14
2.02464e-14
1.96119e-14
2.15468e-14
2.13047e-14
2.33637e-14
2.54252e-14
2.67673e-14
3.01385e-14
2.87521e-14
2.3901e-14
1.95432e-14
1.553e-14
1.25053e-14
1.27434e-14
1.27156e-14
1.46594e-14
1.36135e-14
1.32759e-14
1.53104e-14
1.72476e-14
1.83146e-14
1.91496e-14
2.15253e-14
2.12383e-14
2.11499e-14
2.10004e-14
2.13817e-14
2.19256e-14
1.91774e-14
1.9969e-14
1.85448e-14
1.70167e-14
1.51563e-14
1.74198e-14
1.98216e-14
1.88659e-14
1.94668e-14
1.7872e-14
1.43871e-14
1.06657e-14
8.22847e-15
1.01785e-14
1.06609e-14
1.47236e-14
1.95897e-14
2.07943e-14
2.02703e-14
1.8554e-14
1.89736e-14
1.80356e-14
1.74015e-14
1.86625e-14
1.79598e-14
1.67213e-14
1.86761e-14
1.64673e-14
1.81782e-14
2.02817e-14
1.92446e-14
2.03106e-14
1.9237e-14
1.7724e-14
1.47215e-14
1.28812e-14
1.0336e-14
7.31794e-15
8.0809e-15
9.76595e-15
9.10375e-15
6.71816e-15
5.28637e-15
5.07825e-15
4.42685e-15
7.15897e-15
8.86755e-15
9.36734e-15
1.09304e-14
9.97325e-15
9.67608e-15
1.21946e-14
1.45473e-14
1.58703e-14
1.71272e-14
1.89728e-14
1.86135e-14
2.02014e-14
2.08808e-14
1.9051e-14
1.61696e-14
1.12777e-14
1.32357e-14
1.67941e-14
2.10511e-14
2.07388e-14
1.72994e-14
1.2761e-14
1.28779e-14
1.31266e-14
1.31845e-14
1.3786e-14
1.28216e-14
1.62713e-14
2.08229e-14
2.11817e-14
1.92337e-14
1.92719e-14
1.87717e-14
1.81529e-14
1.48268e-14
1.32262e-14
1.33327e-14
1.11559e-14
1.15365e-14
1.03797e-14
1.22767e-14
1.25506e-14
1.32501e-14
1.73346e-14
1.61639e-14
1.62081e-14
1.67836e-14
1.29838e-14
1.19981e-14
1.19533e-14
8.85097e-15
8.0292e-15
9.90786e-15
1.04523e-14
1.16766e-14
1.43218e-14
1.54362e-14
1.45786e-14
1.83294e-14
1.90157e-14
2.11959e-14
2.73271e-14
2.90266e-14
2.9203e-14
2.82427e-14
2.61038e-14
2.46885e-14
2.33268e-14
2.44538e-14
2.19288e-14
2.14777e-14
2.36623e-14
2.17386e-14
2.23041e-14
2.3537e-14
2.09579e-14
1.79798e-14
1.82175e-14
1.71507e-14
1.51481e-14
1.24077e-14
1.21758e-14
1.23915e-14
9.08435e-15
4.33997e-15
4.11456e-15
4.68497e-15
9.11473e-15
8.51108e-15
1.26224e-14
1.92432e-14
2.49122e-14
2.4353e-14
2.24202e-14
1.11723e-14
1.0379e-14
1.09313e-14
1.18119e-14
1.22681e-14
1.43148e-14
1.62046e-14
1.52347e-14
1.54699e-14
2.07984e-14
2.70745e-14
2.76023e-14
2.55409e-14
2.68397e-14
2.1682e-14
2.06878e-14
2.33027e-14
1.73154e-14
1.15507e-14
1.25442e-14
9.66858e-15
7.50136e-15
8.04747e-15
7.65373e-15
7.98663e-15
1.41865e-14
2.10472e-14
1.65476e-14
1.3564e-14
1.40065e-14
1.34567e-14
1.21057e-14
1.42804e-14
1.24838e-14
1.4708e-14
1.49056e-14
1.60325e-14
1.73029e-14
1.82863e-14
1.75796e-14
1.89168e-14
1.59918e-14
1.08969e-14
9.49827e-15
9.22978e-15
1.1287e-14
1.31557e-14
1.44784e-14
1.46114e-14
1.45064e-14
1.4208e-14
9.72111e-15
7.0731e-15
1.35147e-14
1.79738e-14
2.06554e-14
1.81404e-14
1.43236e-14
9.01653e-15
8.31656e-15
1.33184e-14
1.72413e-14
1.74314e-14
1.79581e-14
1.6229e-14
1.96504e-14
1.98482e-14
2.16022e-14
2.20592e-14
2.31745e-14
2.8477e-14
2.67049e-14
2.15979e-14
1.63168e-14
1.26647e-14
1.04452e-14
7.00946e-15
7.12201e-15
1.08271e-14
1.18311e-14
1.50166e-14
1.59491e-14
1.56288e-14
2.0087e-14
2.27611e-14
1.87973e-14
2.00573e-14
2.05819e-14
2.03526e-14
2.04477e-14
1.97595e-14
1.90902e-14
1.59339e-14
1.76134e-14
1.62188e-14
1.53379e-14
1.84046e-14
1.79512e-14
1.86562e-14
1.8584e-14
1.49459e-14
1.33021e-14
1.13097e-14
9.73168e-15
8.01635e-15
1.19802e-14
1.35894e-14
1.86938e-14
2.13457e-14
1.9634e-14
1.82534e-14
1.82949e-14
2.09922e-14
1.70325e-14
1.73163e-14
1.64807e-14
1.73325e-14
2.05464e-14
1.62519e-14
2.0518e-14
2.02883e-14
1.96677e-14
1.95001e-14
2.19639e-14
2.33399e-14
2.07619e-14
1.4071e-14
1.1381e-14
1.27561e-14
9.38073e-15
8.51661e-15
5.95268e-15
1.03842e-14
1.25202e-14
1.38042e-14
1.1726e-14
5.79184e-15
1.00938e-14
1.33548e-14
1.12363e-14
1.2818e-14
1.40839e-14
1.31489e-14
1.5691e-14
1.46975e-14
1.59533e-14
1.81692e-14
1.47314e-14
1.67569e-14
1.84532e-14
1.80433e-14
1.59355e-14
1.3512e-14
1.30535e-14
1.92863e-14
2.63667e-14
2.20221e-14
1.704e-14
1.28226e-14
1.22281e-14
1.35594e-14
1.09578e-14
9.38489e-15
1.14344e-14
1.72688e-14
1.66022e-14
1.74235e-14
1.81321e-14
2.00892e-14
1.83969e-14
1.61554e-14
1.42919e-14
1.31094e-14
1.12454e-14
1.09987e-14
1.1217e-14
9.74428e-15
1.17498e-14
1.1477e-14
1.36223e-14
1.55358e-14
1.41579e-14
1.53602e-14
1.55051e-14
1.40395e-14
1.49901e-14
1.2545e-14
1.00625e-14
1.14167e-14
9.82282e-15
9.15821e-15
9.95526e-15
1.37571e-14
1.83355e-14
1.74548e-14
1.65522e-14
2.12446e-14
2.18197e-14
2.65704e-14
3.09848e-14
3.06936e-14
2.89905e-14
2.46706e-14
2.41057e-14
2.25555e-14
2.12573e-14
2.10917e-14
2.10227e-14
2.02707e-14
1.90147e-14
2.00319e-14
1.87526e-14
1.70511e-14
1.76033e-14
1.52076e-14
1.35716e-14
1.42961e-14
1.18497e-14
1.11208e-14
1.10022e-14
5.48497e-15
3.56102e-15
5.44723e-15
5.79823e-15
6.18577e-15
4.72448e-15
9.58391e-15
1.91832e-14
2.51661e-14
2.16697e-14
2.1376e-14
1.01272e-14
1.10445e-14
1.03348e-14
1.2192e-14
1.25473e-14
1.3174e-14
1.499e-14
1.67886e-14
1.82322e-14
2.17908e-14
2.56457e-14
2.54089e-14
2.51614e-14
2.41779e-14
2.20624e-14
2.19462e-14
2.10679e-14
1.7995e-14
1.39098e-14
1.2282e-14
1.23876e-14
9.97409e-15
9.21619e-15
1.22647e-14
1.31526e-14
1.65324e-14
2.07089e-14
1.70335e-14
1.50772e-14
1.45617e-14
1.34394e-14
1.22689e-14
1.30797e-14
1.07494e-14
1.26738e-14
1.30156e-14
1.53177e-14
1.75581e-14
1.93835e-14
1.77131e-14
1.7228e-14
1.45847e-14
1.1387e-14
8.22921e-15
7.519e-15
8.96779e-15
1.17005e-14
1.49528e-14
1.40326e-14
1.2698e-14
1.46698e-14
1.30751e-14
9.04812e-15
1.34378e-14
1.81661e-14
1.99609e-14
1.80499e-14
1.65123e-14
1.55004e-14
1.45204e-14
1.58218e-14
1.62165e-14
1.54201e-14
1.59922e-14
1.62021e-14
1.9274e-14
1.95375e-14
2.05269e-14
2.07409e-14
2.3731e-14
2.51182e-14
2.20571e-14
1.7197e-14
1.32972e-14
8.16861e-15
6.67137e-15
6.46681e-15
6.16578e-15
8.65005e-15
1.2214e-14
1.48492e-14
1.64684e-14
1.74476e-14
1.80731e-14
2.01801e-14
1.95158e-14
1.90057e-14
1.89789e-14
1.79251e-14
1.72275e-14
1.37968e-14
1.41269e-14
1.3272e-14
1.28163e-14
1.26912e-14
1.50794e-14
1.54884e-14
1.71316e-14
1.74824e-14
1.61308e-14
1.49987e-14
1.38055e-14
1.12069e-14
9.89137e-15
7.4895e-15
1.03062e-14
1.43517e-14
1.7308e-14
1.82276e-14
1.78944e-14
1.73123e-14
1.47133e-14
1.72282e-14
1.54608e-14
1.3552e-14
1.60688e-14
1.68241e-14
1.81712e-14
1.70213e-14
1.97935e-14
1.93256e-14
2.02844e-14
2.11062e-14
2.11301e-14
1.98764e-14
1.82274e-14
1.32559e-14
1.14376e-14
1.14143e-14
8.27887e-15
8.78574e-15
9.31133e-15
8.72874e-15
1.12408e-14
1.15058e-14
8.92052e-15
6.16163e-15
8.20067e-15
1.15926e-14
1.21843e-14
1.25828e-14
1.46396e-14
1.41716e-14
1.83756e-14
1.82434e-14
1.55011e-14
1.52845e-14
1.61074e-14
1.60004e-14
1.58369e-14
1.5568e-14
1.41123e-14
1.09192e-14
1.32463e-14
1.86759e-14
2.03903e-14
1.86219e-14
1.31654e-14
1.01127e-14
1.20406e-14
1.15384e-14
9.20715e-15
1.02511e-14
1.21543e-14
1.39275e-14
1.41304e-14
1.54819e-14
1.87768e-14
2.16684e-14
1.97977e-14
1.90605e-14
1.59281e-14
1.56748e-14
1.34358e-14
1.26486e-14
1.11959e-14
1.0941e-14
1.12141e-14
1.09716e-14
1.30989e-14
1.51623e-14
1.45576e-14
1.42385e-14
1.27242e-14
1.45638e-14
1.78496e-14
1.58906e-14
1.47277e-14
1.05804e-14
8.70608e-15
9.74479e-15
9.4071e-15
1.43759e-14
1.7702e-14
1.99087e-14
1.96107e-14
2.05761e-14
2.2732e-14
2.584e-14
2.78921e-14
2.93628e-14
3.0075e-14
2.48101e-14
2.104e-14
1.7049e-14
1.62392e-14
1.75803e-14
1.73377e-14
1.59815e-14
1.7371e-14
1.70216e-14
1.75777e-14
1.65233e-14
1.70627e-14
1.34245e-14
1.44898e-14
1.46165e-14
1.26858e-14
1.05086e-14
8.07255e-15
4.2136e-15
3.17148e-15
7.91464e-15
6.42453e-15
6.9012e-15
7.8307e-15
1.12144e-14
1.82256e-14
2.06957e-14
1.8602e-14
1.93405e-14
4.60808e-15
7.84454e-15
7.35827e-15
1.09716e-14
1.47134e-14
1.32526e-14
1.53793e-14
1.78347e-14
1.79002e-14
2.25114e-14
2.55237e-14
2.15598e-14
2.15533e-14
1.96167e-14
1.99573e-14
2.35457e-14
2.21837e-14
1.80358e-14
1.49684e-14
1.28856e-14
1.09495e-14
8.39603e-15
5.41413e-15
1.23476e-14
1.2541e-14
1.51546e-14
1.68863e-14
1.37346e-14
1.24998e-14
1.38949e-14
1.15732e-14
9.69496e-15
9.64296e-15
5.75303e-15
6.41063e-15
8.81454e-15
1.27571e-14
1.3894e-14
1.57939e-14
1.34203e-14
1.12101e-14
8.43491e-15
9.10684e-15
8.46269e-15
5.59471e-15
6.11472e-15
7.38866e-15
9.58312e-15
1.09574e-14
9.56928e-15
1.12057e-14
1.18217e-14
1.06339e-14
1.38591e-14
1.80435e-14
1.66776e-14
1.66023e-14
1.62662e-14
1.79825e-14
1.88583e-14
1.61193e-14
1.23195e-14
1.28039e-14
1.29302e-14
1.34761e-14
1.71912e-14
1.5425e-14
1.57083e-14
1.67687e-14
1.78945e-14
2.04139e-14
1.73575e-14
1.27326e-14
1.18827e-14
6.95209e-15
5.94832e-15
8.13204e-15
4.62675e-15
9.22517e-15
1.18303e-14
1.41529e-14
1.3693e-14
1.49059e-14
1.61391e-14
1.58212e-14
1.57664e-14
1.80387e-14
1.56288e-14
1.14879e-14
1.31277e-14
1.00937e-14
6.31639e-15
9.08155e-15
9.22847e-15
8.4577e-15
1.25751e-14
1.41975e-14
1.43991e-14
1.45736e-14
1.32142e-14
1.35981e-14
9.74729e-15
9.67551e-15
1.00334e-14
7.16532e-15
6.59674e-15
1.12188e-14
1.39326e-14
1.50728e-14
1.68132e-14
1.67205e-14
1.21384e-14
1.26997e-14
9.80193e-15
8.27161e-15
9.55113e-15
8.27123e-15
1.36595e-14
1.34835e-14
1.50235e-14
1.77107e-14
1.764e-14
1.80899e-14
1.68595e-14
1.59196e-14
1.45923e-14
1.17497e-14
1.02437e-14
1.01086e-14
7.8234e-15
5.88228e-15
1.31026e-14
9.11278e-15
6.86724e-15
6.58042e-15
3.8992e-15
6.33566e-15
6.57283e-15
6.75944e-15
9.40559e-15
8.37499e-15
1.01924e-14
1.25706e-14
1.21049e-14
1.38309e-14
1.26354e-14
1.15485e-14
1.30029e-14
1.27739e-14
1.2516e-14
1.27947e-14
1.33599e-14
8.16451e-15
1.09438e-14
1.33231e-14
1.46031e-14
1.33389e-14
9.93287e-15
7.39758e-15
9.64409e-15
6.15621e-15
9.23473e-15
1.02586e-14
8.88062e-15
1.26392e-14
1.20088e-14
1.14323e-14
1.63082e-14
1.8586e-14
1.68597e-14
1.63906e-14
1.72506e-14
1.98148e-14
1.40144e-14
1.18238e-14
1.07117e-14
8.87156e-15
1.02382e-14
9.74088e-15
1.04246e-14
1.37475e-14
1.23705e-14
1.12341e-14
1.22966e-14
1.61664e-14
1.62129e-14
2.0097e-14
2.12414e-14
1.58553e-14
1.21542e-14
1.27012e-14
1.24867e-14
1.38891e-14
1.8545e-14
1.94814e-14
2.03958e-14
2.19375e-14
2.15089e-14
2.50575e-14
2.48855e-14
2.44629e-14
2.71523e-14
2.29341e-14
1.87338e-14
1.25005e-14
9.05604e-15
1.10914e-14
8.62327e-15
1.29903e-14
1.46859e-14
1.2932e-14
1.33713e-14
1.37097e-14
1.35168e-14
1.08717e-14
1.29396e-14
1.44109e-14
1.11528e-14
8.55372e-15
9.93175e-15
2.59065e-15
1.3681e-15
6.2726e-15
9.70444e-15
1.10032e-14
1.11742e-14
1.29817e-14
2.03451e-14
2.21046e-14
1.73644e-14
1.62908e-14
1.75139e-15
4.31326e-15
8.41021e-15
8.25899e-15
1.10643e-14
1.17924e-14
1.3922e-14
1.86283e-14
1.63783e-14
1.99391e-14
2.5787e-14
1.98e-14
1.93402e-14
1.93725e-14
1.69471e-14
2.29592e-14
2.0579e-14
1.36653e-14
1.44227e-14
1.33906e-14
1.21389e-14
1.06489e-14
7.72181e-15
1.49625e-14
1.50902e-14
1.58168e-14
2.048e-14
1.26684e-14
1.23913e-14
1.35769e-14
9.29668e-15
8.82294e-15
8.40398e-15
4.53019e-15
3.98534e-15
3.56652e-15
1.01619e-14
1.0334e-14
1.21731e-14
1.27862e-14
7.13734e-15
4.25943e-15
4.01608e-15
8.25979e-15
6.42868e-15
6.20511e-15
1.06683e-14
8.49459e-15
7.85196e-15
9.51553e-15
7.97736e-15
1.04798e-14
8.44534e-15
1.30607e-14
1.5673e-14
1.6967e-14
1.6545e-14
1.67862e-14
1.68374e-14
1.68556e-14
1.243e-14
1.25945e-14
1.3389e-14
1.16055e-14
1.22291e-14
1.62859e-14
1.24126e-14
1.43323e-14
1.56513e-14
1.67049e-14
2.06402e-14
1.49335e-14
1.09607e-14
1.41142e-14
8.09106e-15
6.0048e-15
5.78017e-15
6.15345e-15
8.8823e-15
9.63062e-15
1.37556e-14
1.02188e-14
1.62715e-14
1.78767e-14
1.52365e-14
1.37765e-14
1.37126e-14
1.58106e-14
1.03282e-14
1.01465e-14
1.15254e-14
5.40905e-15
6.00855e-15
8.85098e-15
1.14131e-14
1.22972e-14
1.34071e-14
1.51703e-14
1.43343e-14
1.50628e-14
1.74194e-14
1.04541e-14
8.82647e-15
9.51557e-15
4.79139e-15
3.65101e-15
5.38926e-15
9.73016e-15
1.242e-14
1.3489e-14
1.50884e-14
1.08395e-14
8.57429e-15
4.49681e-15
2.38395e-15
4.7796e-15
5.16619e-15
1.28449e-14
1.08484e-14
1.37079e-14
1.85327e-14
1.4934e-14
1.59532e-14
1.59934e-14
1.67651e-14
1.26702e-14
9.77277e-15
1.36582e-14
1.21499e-14
6.02374e-15
5.33009e-15
7.64311e-15
6.16923e-15
3.92236e-15
8.12435e-15
4.05895e-15
4.17332e-15
9.57653e-15
7.30868e-15
6.96624e-15
7.27104e-15
6.07155e-15
1.03975e-14
8.86467e-15
8.57087e-15
9.29733e-15
5.90128e-15
5.70706e-15
8.76201e-15
8.43792e-15
6.74015e-15
9.05954e-15
4.6697e-15
3.55325e-15
3.40489e-15
7.42093e-15
7.52362e-15
2.74952e-15
3.70524e-15
5.05605e-15
6.61348e-15
1.14911e-14
8.21574e-15
9.3727e-15
1.34616e-14
1.1365e-14
1.09709e-14
1.56237e-14
1.99446e-14
1.6166e-14
1.46788e-14
1.83167e-14
1.69104e-14
1.11854e-14
1.11127e-14
8.26212e-15
6.80514e-15
7.56145e-15
6.15014e-15
7.45394e-15
1.15383e-14
7.12227e-15
7.87566e-15
1.01483e-14
1.18687e-14
1.74093e-14
1.99304e-14
2.10203e-14
1.50012e-14
1.01129e-14
1.00588e-14
1.08902e-14
9.87398e-15
1.73514e-14
1.99164e-14
2.09196e-14
2.35862e-14
1.82297e-14
2.34332e-14
2.60622e-14
2.24717e-14
2.3345e-14
1.87888e-14
1.51714e-14
1.2214e-14
2.07123e-15
6.81449e-15
5.8445e-15
1.23854e-14
1.10313e-14
1.08635e-14
1.29594e-14
1.60377e-14
1.33144e-14
7.65919e-15
1.28521e-14
1.30428e-14
7.83896e-15
9.19972e-15
5.23715e-15
3.20471e-15
4.71434e-15
6.84656e-15
1.04685e-14
1.21677e-14
9.71378e-15
1.25847e-14
1.63199e-14
1.97857e-14
1.55573e-14
1.30597e-14
1.09859e-14
2.08954e-14
1.42554e-14
3.06189e-15
1.10965e-14
7.17171e-15
1.17119e-14
1.52691e-14
9.95974e-15
2.71444e-14
2.77412e-14
1.48947e-14
1.6407e-14
7.79478e-15
2.1746e-14
1.67314e-14
1.54328e-14
9.4547e-15
3.96557e-15
3.54129e-15
3.61175e-15
1.22071e-14
1.21576e-14
9.9849e-15
8.29582e-15
6.5041e-15
1.44918e-14
1.63821e-14
2.37398e-14
2.6485e-14
4.78558e-14
4.62202e-14
4.23309e-14
4.06828e-14
1.38902e-14
1.01236e-14
1.10543e-14
1.42214e-14
2.38959e-14
1.81561e-14
2.02812e-14
4.04118e-14
4.11458e-14
4.21421e-14
4.87178e-14
4.97482e-14
4.58983e-14
4.92706e-14
5.61866e-14
4.51236e-14
4.14799e-14
3.05657e-14
2.91509e-14
3.71849e-14
4.22858e-14
4.09771e-14
4.12998e-14
3.23115e-14
4.12814e-14
3.54982e-14
3.29685e-14
3.12817e-14
2.2884e-14
2.40666e-14
3.56833e-14
3.61389e-14
3.0896e-14
2.32517e-14
1.62529e-14
2.78214e-14
2.62648e-14
2.20181e-14
1.44479e-14
7.92902e-15
1.55166e-14
2.08521e-14
1.41158e-14
2.65222e-14
2.90314e-14
3.01188e-14
2.18049e-14
2.41145e-14
2.62596e-14
2.51346e-14
2.94619e-14
4.1073e-14
3.14245e-14
2.29459e-14
2.28236e-14
2.49746e-14
3.31994e-14
4.89938e-14
4.04657e-14
2.79316e-14
1.3715e-14
1.25652e-14
2.21613e-14
1.67819e-14
1.79897e-14
1.4025e-14
1.84031e-14
1.83244e-14
3.27785e-14
3.12826e-14
1.26484e-14
8.62836e-15
1.07544e-14
1.9993e-14
2.57724e-14
9.06715e-15
2.47658e-14
2.37736e-14
9.73364e-15
1.58855e-14
2.31119e-14
1.61976e-14
2.29707e-14
1.95989e-14
1.60256e-14
1.90118e-14
6.83716e-15
9.15307e-15
5.92119e-15
6.34469e-15
3.92644e-15
1.98486e-14
1.25383e-14
3.06124e-14
4.28611e-14
3.85395e-14
3.81427e-14
5.61521e-14
6.45552e-14
5.30805e-14
5.87195e-14
3.29565e-14
1.28629e-14
8.88812e-15
1.00305e-14
1.5982e-14
1.98724e-14
3.33895e-14
5.40668e-14
5.19072e-14
5.80857e-14
6.37577e-14
7.37672e-14
7.12419e-14
6.7933e-14
5.48967e-14
5.51257e-14
4.25984e-14
4.2432e-14
3.60881e-14
3.35214e-14
2.85794e-14
2.65639e-14
2.68036e-14
2.26333e-14
2.66507e-14
2.5977e-14
3.67195e-14
4.30339e-14
2.82013e-14
2.54689e-14
3.37973e-14
5.15659e-14
4.20876e-14
3.24756e-14
3.74669e-14
4.64052e-14
3.13579e-14
1.79587e-14
1.30543e-14
2.31957e-14
2.21554e-14
2.20338e-14
3.25498e-14
4.30437e-14
4.22467e-14
4.64604e-14
3.07807e-14
2.79299e-14
3.42966e-14
3.02266e-14
4.10454e-14
4.88971e-14
4.27664e-14
2.72813e-14
2.291e-14
1.94157e-14
2.67166e-14
3.69069e-14
3.67312e-14
3.34035e-14
1.48799e-14
1.07661e-14
1.68288e-14
1.71523e-14
1.76713e-14
1.71659e-14
1.84122e-14
2.32507e-14
2.60776e-14
2.23916e-14
1.53506e-14
1.89789e-14
2.84124e-14
2.31043e-14
1.23573e-14
1.73868e-14
1.76062e-14
1.12612e-14
1.70393e-14
1.62259e-14
1.79135e-14
1.72742e-14
1.68823e-14
2.35318e-14
2.70612e-14
1.56556e-14
1.36287e-14
4.25826e-15
1.0408e-14
1.46958e-14
3.07119e-14
1.34493e-14
1.64853e-14
2.68765e-14
3.03126e-14
3.6655e-14
4.41678e-14
5.0134e-14
5.00183e-14
4.44193e-14
2.56331e-14
1.41442e-14
1.81854e-14
1.42542e-14
1.86902e-14
2.3619e-14
3.54501e-14
3.68273e-14
2.80702e-14
3.537e-14
4.97518e-14
5.97571e-14
5.69743e-14
5.03005e-14
4.31261e-14
3.22322e-14
2.29218e-14
2.28468e-14
2.07815e-14
1.85588e-14
2.11915e-14
1.29904e-14
1.01821e-14
1.45808e-14
1.26779e-14
1.35613e-14
2.05856e-14
2.76769e-14
2.39995e-14
2.25005e-14
3.08713e-14
3.88058e-14
3.67852e-14
3.9306e-14
3.98407e-14
3.6687e-14
2.71521e-14
1.62651e-14
1.27039e-14
1.672e-14
2.58856e-14
2.25317e-14
2.80403e-14
3.16838e-14
3.73615e-14
3.71299e-14
2.84702e-14
2.58819e-14
3.18081e-14
2.64625e-14
2.68288e-14
2.71181e-14
2.98566e-14
1.99119e-14
1.62801e-14
1.69196e-14
8.74432e-15
2.54937e-15
1.3097e-14
1.95063e-14
2.03992e-14
1.96606e-14
1.62555e-14
1.86668e-14
1.74096e-14
1.70984e-14
1.36083e-14
1.51608e-14
1.57676e-14
1.2659e-14
1.29838e-14
1.90069e-14
1.52145e-14
1.98288e-14
1.5264e-14
1.99926e-14
2.31832e-14
1.64311e-14
5.84481e-15
8.48674e-15
1.17979e-14
1.64682e-14
2.66849e-14
2.31225e-14
1.73083e-14
8.89111e-15
1.66076e-14
2.4698e-14
2.60349e-14
2.80229e-14
2.99673e-14
2.11434e-14
1.87927e-14
1.27668e-14
1.31029e-14
1.41997e-14
1.23276e-14
1.75657e-14
2.06621e-14
9.03491e-15
1.08716e-14
1.58617e-14
3.41765e-14
3.75467e-14
3.93897e-14
3.29708e-14
2.03073e-14
1.25025e-14
1.50137e-14
1.05863e-14
1.47298e-14
1.35832e-14
1.83662e-14
1.07473e-14
1.69136e-14
1.616e-14
1.94794e-14
5.08913e-15
7.9264e-15
1.02422e-14
1.22831e-14
1.35551e-14
1.11165e-14
1.37949e-14
1.73928e-14
1.2139e-14
1.03335e-14
9.95892e-15
7.45089e-15
6.52273e-15
1.30937e-14
1.44134e-14
1.52809e-14
1.57232e-14
2.03612e-14