/*--------------------------------*- C++ -*----------------------------------*\
| =========                 |                                                 |
| \\      /  F ield         | OpenFOAM: The Open Source CFD Toolbox           |
|  \\    /   O peration     | Version:  2406                                  |
|   \\  /    A nd           | Website:  www.openfoam.com                      |
|    \\/     M anipulation  |                                                 |
\*---------------------------------------------------------------------------*/
FoamFile
{
    version     2.0;
    format      ascii;
    arch        "LSB;label=32;scalar=64";
    class       volVectorField;
    location    "0.01";
    object      U;
}
// * * * * * * * * * * * * * * * * * * * * * * * * * * * * * * * * * * * * * //

dimensions      [0 1 -1 0 0 0 0];

internalField   nonuniform List<vector> 
14020
(
(-7.70602e-13 -7.34721e-12 -9.23692e-13)
(-1.72591e-13 -6.24974e-12 -8.89931e-13)
(-2.33895e-12 -5.07998e-12 -5.85074e-13)
(-2.8828e-12 -4.7173e-12 -2.89642e-13)
(-2.0935e-12 -5.33879e-12 -1.46277e-12)
(-2.55946e-12 -5.90706e-12 -5.06757e-12)
(-1.02793e-12 -5.25293e-12 -7.93534e-12)
(-2.25905e-12 -3.77652e-12 -7.00068e-12)
(-3.31159e-12 -3.76107e-12 -5.64703e-12)
(-3.00074e-12 -2.10294e-12 -5.11998e-12)
(-5.7127e-12 -1.72796e-12 -5.09931e-12)
(-6.75483e-12 -2.41148e-12 -5.96271e-12)
(-5.51908e-12 -3.20778e-12 -7.17086e-12)
(-5.58483e-12 -4.78029e-12 -6.77558e-12)
(-5.80293e-12 -5.13195e-12 -7.89661e-12)
(-4.9456e-12 -5.80069e-12 -6.17861e-12)
(-2.41382e-12 -3.4771e-12 -5.06658e-12)
(-2.01596e-12 -4.74207e-13 -4.64035e-12)
(-3.01506e-12 5.07946e-14 -4.59396e-12)
(-2.70774e-12 -1.39613e-12 -4.97034e-12)
(-9.29414e-14 -1.67583e-12 -5.65013e-12)
(3.64289e-13 -1.43317e-13 -6.20008e-12)
(-5.1642e-13 -5.17389e-13 -7.16794e-12)
(-4.57706e-13 -4.81925e-13 -9.48832e-12)
(1.1631e-12 -6.64946e-13 -9.02131e-12)
(3.34108e-12 -7.69921e-13 -9.32456e-12)
(2.91611e-12 1.86209e-13 -1.04927e-11)
(1.83997e-12 -4.60865e-13 -1.24133e-11)
(2.41172e-12 -9.50093e-13 -1.12547e-11)
(2.94516e-12 -9.3893e-13 -1.15731e-11)
(3.76045e-12 -1.35588e-12 -9.45041e-12)
(3.09609e-12 -9.3966e-13 -7.75284e-12)
(1.68811e-12 -1.8256e-12 -7.71939e-12)
(4.85246e-13 -2.40266e-12 -7.53991e-12)
(-2.44824e-12 -3.14315e-12 -6.55185e-12)
(-3.34479e-12 -5.30136e-12 -5.33971e-12)
(-3.82721e-12 -5.04049e-12 -2.76837e-12)
(-5.35109e-12 -5.12761e-12 -8.09371e-13)
(-3.92542e-12 -4.95743e-12 9.40769e-13)
(-1.84071e-12 -4.56325e-12 2.74742e-12)
(-7.79603e-15 -5.05782e-12 3.79305e-12)
(7.0687e-13 -5.04505e-12 4.2974e-12)
(1.59045e-12 -5.44611e-12 2.7945e-12)
(2.16804e-12 -4.29834e-12 1.18346e-12)
(1.94633e-13 -3.24744e-12 1.17187e-12)
(-1.98083e-12 -3.19768e-12 1.95368e-12)
(-3.13749e-12 -1.98827e-12 2.94294e-12)
(-3.48597e-12 -1.89128e-12 2.08135e-12)
(-3.53131e-12 -6.59004e-13 1.71181e-12)
(-4.22761e-12 -8.56935e-13 1.38466e-12)
(-3.43137e-12 -1.23587e-12 3.98499e-13)
(-1.12156e-12 -2.68082e-12 -4.65491e-13)
(1.49106e-12 -2.79096e-12 -2.64662e-12)
(1.07966e-12 -1.9948e-12 -6.19408e-12)
(-2.46455e-13 -1.75256e-12 -7.01491e-12)
(-5.35205e-13 -2.90584e-12 -5.55659e-12)
(4.90363e-13 -3.81645e-12 -3.99786e-12)
(4.93814e-13 -3.92178e-12 -4.39686e-12)
(-1.33344e-13 -4.53369e-12 -3.49517e-12)
(4.43847e-14 -4.97749e-12 -2.45158e-12)
(1.28558e-12 -3.95613e-12 -7.71913e-13)
(3.28409e-12 -2.89711e-12 1.98288e-12)
(3.34142e-12 -2.20906e-12 4.47679e-12)
(2.18557e-12 -1.65951e-12 2.90339e-12)
(1.60271e-12 -3.37206e-12 2.09609e-12)
(4.59655e-13 -4.58141e-12 1.24974e-12)
(6.40135e-13 -5.55473e-12 1.18821e-12)
(2.63873e-12 -5.78225e-12 1.87674e-12)
(4.14393e-12 -7.23829e-12 3.29906e-12)
(7.50561e-12 -6.88561e-12 3.6306e-12)
(9.20907e-12 -6.31004e-12 4.41399e-12)
(8.86438e-12 -6.70961e-12 4.85286e-12)
(8.26532e-12 -5.36162e-12 5.86578e-12)
(5.72999e-12 -4.25095e-12 8.5507e-12)
(3.11965e-12 -3.8006e-12 1.32991e-11)
(2.73174e-12 -3.70257e-12 1.73363e-11)
(1.82828e-12 -3.65365e-12 1.40023e-11)
(7.13092e-13 -4.02978e-12 9.88928e-12)
(-1.38965e-12 -3.98734e-12 7.79692e-12)
(-4.49894e-12 -4.59808e-12 7.64952e-12)
(-4.39972e-12 -5.1727e-12 8.17559e-12)
(-3.63084e-12 -4.7965e-12 8.42756e-12)
(-5.62879e-12 -4.38095e-12 5.84351e-12)
(-5.94113e-12 -3.69081e-12 3.55709e-12)
(-5.13924e-12 -4.51035e-12 2.65723e-12)
(-5.82319e-12 -4.24719e-12 1.058e-12)
(-6.04539e-12 -4.47464e-12 -1.28617e-12)
(-6.44096e-12 -4.3229e-12 1.8887e-13)
(-6.24045e-12 -3.36803e-12 2.17133e-12)
(-3.08523e-12 -3.29128e-12 2.44531e-12)
(-8.13047e-13 -2.05141e-12 2.3781e-12)
(-2.41574e-13 -2.69604e-12 1.8748e-12)
(2.69628e-13 -2.90989e-12 2.36002e-12)
(7.70336e-13 -4.19973e-12 4.25188e-12)
(1.89098e-12 -3.68614e-12 4.49064e-12)
(3.48827e-12 -4.41025e-12 4.42658e-12)
(3.60902e-12 -4.89044e-12 4.17742e-12)
(2.60993e-12 -5.49379e-12 4.13099e-12)
(5.60801e-12 -5.31749e-12 3.99002e-12)
(6.75594e-12 -2.92e-12 3.4956e-12)
(4.17482e-12 -4.86729e-13 3.04959e-12)
(2.46489e-12 2.13892e-13 1.72961e-12)
(3.52886e-13 -2.34265e-12 5.96493e-13)
(-1.17379e-12 -4.09784e-12 -1.27795e-12)
(-1.12242e-12 -4.56439e-12 2.66296e-13)
(-2.01741e-12 -3.78045e-12 4.65573e-13)
(-4.68528e-12 -4.27289e-12 1.17783e-13)
(-6.10627e-12 -5.25946e-12 6.67199e-13)
(-5.85777e-12 -5.66388e-12 9.48649e-13)
(-5.69717e-12 -6.53868e-12 9.03634e-13)
(-4.57752e-12 -6.40785e-12 5.2931e-13)
(-4.00022e-12 -7.13979e-12 -1.34071e-12)
(-2.26581e-12 -6.46002e-12 -3.4872e-12)
(-2.58721e-13 -7.45868e-12 -4.54251e-12)
(2.30038e-13 -8.49283e-12 -6.03658e-12)
(4.99063e-13 -9.65196e-12 -5.01339e-12)
(3.59639e-12 -9.87081e-12 -4.62676e-12)
(4.68857e-12 -8.10096e-12 -4.88202e-12)
(3.72157e-12 -6.60749e-12 -4.8095e-12)
(4.92822e-12 -4.97694e-12 -4.62579e-12)
(5.38671e-12 -3.76732e-12 -3.81873e-12)
(3.74044e-12 -3.23489e-12 -1.73922e-12)
(3.45871e-12 -3.66927e-12 -1.2119e-12)
(5.05028e-12 -4.18656e-12 -1.62204e-12)
(6.6933e-12 -3.79092e-12 -3.13199e-12)
(5.68167e-12 -3.42705e-12 -5.07575e-12)
(2.31521e-12 -3.15836e-12 -5.84397e-12)
(1.09896e-12 -4.57953e-12 -8.85146e-12)
(1.14126e-12 -5.35921e-12 -1.12343e-11)
(1.61361e-12 -5.1616e-12 -9.71408e-12)
(2.66192e-12 -3.508e-12 -7.22048e-12)
(2.89238e-12 -1.72222e-12 -5.01649e-12)
(1.68556e-12 -1.60536e-12 -6.09005e-12)
(1.06125e-12 -1.13514e-12 -8.70745e-12)
(-1.50204e-12 -3.84322e-13 -1.01021e-11)
(-1.88967e-12 -1.76953e-12 -1.19929e-11)
(-4.55979e-13 -2.3298e-12 -1.31055e-11)
(-2.55906e-12 -3.08028e-12 -1.05832e-11)
(-3.39575e-12 -4.92697e-12 -7.40921e-12)
(-3.30535e-12 -5.16534e-12 -7.17701e-12)
(-2.98082e-12 -5.51207e-12 -7.37643e-12)
(-1.86053e-12 -4.24294e-12 -8.84585e-12)
(-1.84573e-12 -3.56163e-12 -9.33682e-12)
(-1.07033e-12 -3.50122e-12 -8.06624e-12)
(-8.96455e-13 -1.77466e-12 -7.22573e-12)
(-3.18036e-12 -2.45251e-13 -8.9686e-12)
(-4.45758e-12 9.74503e-13 -1.22196e-11)
(-3.13482e-12 1.09036e-12 -9.58365e-12)
(-1.59642e-12 1.13487e-12 -7.5107e-12)
(-1.84697e-12 1.58813e-12 -6.71585e-12)
(-2.07208e-12 5.67275e-13 -6.39134e-12)
(-1.81729e-12 -2.72985e-13 -4.46385e-13)
(-1.33141e-12 -1.20965e-12 2.92658e-12)
(-1.79604e-12 -1.45162e-12 3.0179e-12)
(-2.78566e-13 -2.68454e-12 3.41985e-12)
(1.06809e-12 -3.17246e-12 2.10759e-12)
(6.58132e-13 -5.17765e-12 1.18602e-12)
(2.64713e-12 -5.80158e-12 4.77322e-13)
(2.89363e-12 -5.40364e-12 3.66608e-13)
(1.74458e-12 -4.86092e-12 2.77381e-13)
(5.2284e-13 -4.60039e-12 3.54662e-13)
(-7.69012e-13 -5.1018e-12 1.33906e-12)
(6.7559e-13 -6.4655e-12 -1.05715e-13)
(2.56548e-12 -5.59051e-12 -1.77871e-12)
(1.99803e-12 -5.80564e-12 -3.79246e-12)
(3.06404e-12 -6.9471e-12 -3.8815e-12)
(5.03072e-12 -8.41572e-12 -4.90926e-12)
(6.22115e-12 -8.34331e-12 -6.08735e-12)
(7.33793e-12 -6.05763e-12 -6.50109e-12)
(6.89521e-12 -3.41843e-12 -6.80749e-12)
(5.92133e-12 -2.91085e-12 -1.00116e-11)
(4.16528e-12 -2.65634e-12 -1.21344e-11)
(1.54106e-12 -3.2822e-12 -9.89055e-12)
(8.62513e-13 -4.91129e-12 -6.99384e-12)
(1.88089e-12 -5.90019e-12 -5.99518e-12)
(1.64859e-12 -5.29897e-12 -5.70232e-12)
(1.31419e-12 -5.10734e-12 -5.042e-12)
(1.60462e-12 -4.43674e-12 -4.66056e-12)
(7.02047e-13 -4.72878e-12 -4.69394e-12)
(1.79112e-12 -4.48974e-12 -5.19548e-12)
(2.59972e-12 -3.55109e-12 -5.99256e-12)
(2.61661e-12 -2.85794e-12 -4.17176e-12)
(3.54556e-12 -2.79545e-12 -1.29057e-12)
(4.8641e-12 -4.24653e-12 6.47417e-13)
(6.77605e-12 -3.21928e-12 1.37087e-12)
(6.65051e-12 -9.86789e-13 2.09031e-12)
(3.94362e-12 4.84835e-13 3.17995e-12)
(1.65257e-13 1.63189e-12 4.20488e-12)
(-2.19921e-12 -6.11009e-13 5.86022e-12)
(-3.54507e-12 -3.18875e-12 4.47553e-12)
(-5.69616e-12 -4.97509e-12 4.38356e-12)
(-4.38557e-12 -6.92406e-12 3.73204e-12)
(-2.17385e-12 -8.05501e-12 3.23793e-12)
(-2.58877e-12 -7.74009e-12 2.98291e-12)
(-3.10496e-12 -6.85352e-12 3.32399e-12)
(-4.48823e-12 -4.68567e-12 2.50468e-12)
(-4.47351e-12 -2.26062e-12 7.22853e-13)
(-5.32564e-12 -1.15129e-12 -1.63705e-12)
(-8.20408e-12 -1.50474e-12 -8.7128e-13)
(-1.02361e-11 -2.6951e-12 -7.07172e-13)
(-1.04233e-11 -4.47799e-12 -1.23115e-12)
(-9.25926e-12 -5.58491e-12 -2.02062e-12)
(-8.31315e-12 -4.69161e-12 -2.98258e-12)
(-7.24132e-12 -5.68988e-12 -3.37458e-12)
(-5.24006e-12 -4.45166e-12 -3.99946e-12)
(-2.11633e-12 -5.00423e-12 -4.38083e-12)
(2.4613e-13 -6.18544e-12 -6.56307e-12)
(-5.02065e-13 -7.65333e-12 -1.02149e-11)
(1.4723e-12 -6.7543e-12 -1.41924e-11)
(3.2866e-12 -5.49763e-12 -1.65688e-11)
(3.72487e-12 -5.18622e-12 -1.31824e-11)
(4.91694e-12 -6.05034e-12 -9.97934e-12)
(4.39214e-12 -3.44715e-12 -7.115e-12)
(3.27899e-12 -3.72799e-12 -2.00312e-12)
(4.08961e-12 -5.32345e-12 -1.49873e-13)
(5.38779e-12 -6.28489e-12 5.18379e-13)
(5.76172e-12 -7.30625e-12 -7.02774e-13)
(4.6655e-12 -6.92346e-12 -2.41938e-12)
(4.23218e-12 -6.53928e-12 -3.95786e-12)
(4.54318e-12 -5.77982e-12 -3.64588e-12)
(3.28902e-12 -4.32275e-12 -3.61835e-12)
(1.64332e-12 -4.1443e-12 -4.70429e-12)
(2.46811e-12 -3.716e-12 -7.33198e-12)
(1.64861e-12 -2.44045e-12 -7.02575e-12)
(-9.26933e-13 -1.89435e-12 -6.83765e-12)
(-2.22713e-12 -1.35241e-12 -3.83897e-12)
(-3.89919e-12 -6.64904e-13 -2.9456e-12)
(-6.01134e-12 -1.4328e-12 -2.37946e-12)
(-8.75187e-12 -2.14486e-12 -1.31466e-12)
(-9.09119e-12 -2.45408e-12 3.58598e-13)
(-6.66933e-12 -1.97892e-12 9.38023e-13)
(-7.13108e-13 -7.29998e-12 -1.02472e-12)
(-1.34137e-12 -5.6799e-12 -5.75774e-13)
(-2.62203e-12 -4.86971e-12 1.41744e-13)
(-1.95363e-12 -5.42444e-12 1.02888e-12)
(-1.19759e-12 -4.76749e-12 1.07059e-12)
(-2.23503e-12 -5.55578e-12 -1.65246e-12)
(-2.08488e-12 -5.2088e-12 -5.48902e-12)
(-2.43998e-12 -3.91628e-12 -6.84943e-12)
(-3.69307e-12 -4.48344e-12 -5.66228e-12)
(-4.18978e-12 -2.93367e-12 -4.67791e-12)
(-5.50403e-12 -2.60524e-12 -4.75147e-12)
(-6.22895e-12 -2.91534e-12 -5.2851e-12)
(-4.84167e-12 -3.78493e-12 -5.90113e-12)
(-5.36523e-12 -4.5037e-12 -6.90436e-12)
(-5.49076e-12 -4.28329e-12 -7.51979e-12)
(-5.45282e-12 -5.24101e-12 -6.12438e-12)
(-5.34041e-12 -3.38406e-12 -4.88697e-12)
(-3.70839e-12 -2.62914e-13 -4.3881e-12)
(-1.97638e-12 2.10599e-13 -4.29591e-12)
(-1.24379e-12 -1.4005e-12 -4.47328e-12)
(-9.70182e-13 -1.51847e-12 -5.27717e-12)
(-3.23529e-13 -8.23521e-14 -5.74624e-12)
(7.48828e-14 -3.69265e-13 -6.54946e-12)
(-4.95955e-13 -5.16001e-14 -7.41329e-12)
(1.16253e-12 -6.52469e-13 -7.53414e-12)
(2.64153e-12 -6.59677e-13 -8.12268e-12)
(2.79814e-12 3.6252e-13 -7.99498e-12)
(3.03836e-12 5.73201e-14 -8.73676e-12)
(2.81263e-12 -1.00274e-12 -8.17228e-12)
(3.18565e-12 -7.92367e-13 -7.19576e-12)
(3.98147e-12 -1.30189e-12 -6.08127e-12)
(3.25943e-12 -9.15613e-13 -6.48838e-12)
(1.56166e-12 -1.60437e-12 -7.05235e-12)
(6.5695e-13 -2.71695e-12 -8.30147e-12)
(-1.56254e-12 -3.04694e-12 -6.83522e-12)
(-3.12806e-12 -4.58753e-12 -5.32694e-12)
(-4.19562e-12 -4.80525e-12 -2.29714e-12)
(-5.56975e-12 -4.89909e-12 1.04452e-12)
(-3.93087e-12 -4.64166e-12 2.05547e-12)
(-1.3189e-12 -4.83802e-12 3.03351e-12)
(3.15071e-13 -4.77129e-12 3.52852e-12)
(9.19475e-13 -5.8293e-12 3.01775e-12)
(1.51124e-12 -5.50135e-12 1.47345e-12)
(1.18258e-12 -4.67184e-12 4.48331e-13)
(4.31871e-14 -2.93318e-12 1.3023e-12)
(-2.32199e-12 -2.63096e-12 1.91903e-12)
(-3.11818e-12 -1.43018e-12 2.60581e-12)
(-3.86253e-12 -1.21763e-12 2.16669e-12)
(-3.70196e-12 -3.30079e-13 2.07678e-12)
(-3.79638e-12 -6.18041e-13 1.17026e-12)
(-2.55752e-12 -1.25316e-12 2.82658e-13)
(-3.31287e-13 -2.74777e-12 -3.31063e-13)
(3.70949e-13 -3.02472e-12 -1.47277e-12)
(-1.0159e-13 -1.58882e-12 -2.64179e-12)
(2.14337e-13 -1.4003e-12 -2.88247e-12)
(7.16573e-13 -2.32465e-12 -2.64238e-12)
(7.50929e-13 -3.48026e-12 -2.33023e-12)
(7.20366e-13 -3.68765e-12 -2.76934e-12)
(2.99832e-13 -4.7976e-12 -2.55356e-12)
(-4.44547e-13 -4.92784e-12 -1.4042e-12)
(8.00719e-13 -4.18729e-12 -4.04073e-13)
(2.57952e-12 -3.40325e-12 1.68659e-12)
(2.44741e-12 -2.08321e-12 2.78219e-12)
(2.1248e-12 -1.95026e-12 1.94976e-12)
(2.46417e-12 -3.22196e-12 1.78435e-12)
(1.09563e-12 -3.7381e-12 1.08629e-12)
(1.35108e-12 -5.65155e-12 7.15154e-13)
(3.56231e-12 -6.00899e-12 1.59581e-12)
(4.70295e-12 -7.46553e-12 3.34469e-12)
(7.06385e-12 -6.47804e-12 3.41197e-12)
(9.31843e-12 -5.80847e-12 3.41574e-12)
(9.19483e-12 -6.30926e-12 4.37997e-12)
(7.53156e-12 -5.24838e-12 5.08772e-12)
(5.63835e-12 -4.72726e-12 7.75414e-12)
(3.26793e-12 -4.21394e-12 1.03358e-11)
(2.5215e-12 -4.46763e-12 1.21477e-11)
(1.59269e-12 -3.69025e-12 1.09747e-11)
(1.29628e-13 -4.63274e-12 9.02118e-12)
(-1.86089e-12 -4.1434e-12 7.62709e-12)
(-3.71341e-12 -4.30334e-12 7.57537e-12)
(-3.81295e-12 -5.3148e-12 7.89635e-12)
(-4.11184e-12 -4.87399e-12 6.50748e-12)
(-6.14984e-12 -4.46425e-12 4.9961e-12)
(-5.81023e-12 -4.5843e-12 3.34179e-12)
(-5.3046e-12 -4.4515e-12 2.36631e-12)
(-6.17941e-12 -4.33145e-12 1.85891e-12)
(-6.05298e-12 -3.71547e-12 1.61104e-12)
(-6.90054e-12 -3.65217e-12 2.56877e-12)
(-6.28782e-12 -3.82957e-12 3.67141e-12)
(-3.58341e-12 -3.38653e-12 3.08009e-12)
(-8.93387e-13 -2.96641e-12 2.43948e-12)
(-2.89688e-13 -2.65233e-12 1.85013e-12)
(3.41806e-13 -2.44747e-12 3.23913e-12)
(7.52474e-13 -3.66598e-12 4.04595e-12)
(1.56051e-12 -3.41246e-12 4.34257e-12)
(3.61099e-12 -4.07695e-12 4.41612e-12)
(3.85842e-12 -3.84263e-12 4.15818e-12)
(3.17646e-12 -4.26096e-12 4.25221e-12)
(4.68682e-12 -4.33555e-12 4.12977e-12)
(4.89959e-12 -2.00604e-12 3.57147e-12)
(3.06169e-12 2.84461e-13 2.81372e-12)
(3.68091e-12 4.18955e-13 1.75294e-12)
(2.40911e-12 -1.92103e-12 8.10235e-13)
(-2.20648e-13 -3.02806e-12 -1.31557e-13)
(-1.46824e-12 -3.63637e-12 7.55017e-13)
(-2.4014e-12 -3.09324e-12 5.95244e-13)
(-4.24832e-12 -3.35877e-12 4.12104e-13)
(-5.72413e-12 -4.7091e-12 6.65452e-13)
(-5.58134e-12 -5.73109e-12 9.03627e-13)
(-5.42047e-12 -6.21165e-12 7.65044e-13)
(-4.85412e-12 -6.02874e-12 8.94379e-13)
(-4.16005e-12 -6.93035e-12 -7.18437e-13)
(-2.37029e-12 -6.82225e-12 -3.11195e-12)
(9.19425e-14 -6.9699e-12 -4.43375e-12)
(9.64573e-13 -7.85623e-12 -5.41225e-12)
(1.44129e-12 -9.05666e-12 -5.0385e-12)
(2.70428e-12 -8.96246e-12 -5.37798e-12)
(3.41061e-12 -7.1417e-12 -5.37066e-12)
(3.36398e-12 -5.67278e-12 -5.57754e-12)
(4.77947e-12 -4.95899e-12 -5.31912e-12)
(4.60437e-12 -4.59997e-12 -3.97886e-12)
(4.14767e-12 -3.65772e-12 -4.4807e-13)
(4.23656e-12 -5.13496e-12 -3.20557e-13)
(5.12616e-12 -5.53648e-12 -1.07387e-12)
(6.50828e-12 -5.19448e-12 -2.51631e-12)
(5.30967e-12 -4.26159e-12 -3.97905e-12)
(3.13791e-12 -3.70492e-12 -3.98171e-12)
(2.35924e-12 -4.73474e-12 -7.19071e-12)
(1.73669e-12 -4.40542e-12 -8.94656e-12)
(1.60813e-12 -5.02608e-12 -8.23086e-12)
(1.65609e-12 -3.58662e-12 -7.0217e-12)
(2.28928e-12 -2.48329e-12 -4.4907e-12)
(1.83508e-12 -2.10006e-12 -6.26047e-12)
(2.44664e-13 -1.58968e-12 -9.73061e-12)
(-1.28853e-12 -8.80001e-13 -1.09913e-11)
(-1.10317e-12 -2.00043e-12 -1.18777e-11)
(-5.14387e-13 -2.64427e-12 -1.10739e-11)
(-1.91118e-12 -2.70109e-12 -9.3509e-12)
(-2.74917e-12 -4.72064e-12 -7.49402e-12)
(-3.29464e-12 -4.85699e-12 -6.66812e-12)
(-3.87156e-12 -5.35601e-12 -6.84381e-12)
(-3.16699e-12 -3.87745e-12 -7.69386e-12)
(-1.67553e-12 -2.8251e-12 -9.26835e-12)
(-1.25471e-12 -2.83014e-12 -7.30652e-12)
(-1.56872e-12 -6.48244e-13 -6.27189e-12)
(-3.48349e-12 -4.96735e-13 -6.97574e-12)
(-4.31941e-12 -2.61379e-13 -8.72454e-12)
(-3.0366e-12 -5.8429e-14 -7.7811e-12)
(-2.32939e-12 1.71343e-13 -6.72813e-12)
(-2.50294e-12 7.05924e-13 -6.41088e-12)
(-1.87693e-12 7.55054e-13 -5.45803e-12)
(-1.29976e-12 -8.23622e-14 -1.96048e-12)
(-1.83295e-12 -1.64697e-12 1.87905e-12)
(-1.5987e-12 -1.68088e-12 4.45718e-12)
(1.95287e-13 -2.98787e-12 4.6034e-12)
(1.63875e-12 -2.82056e-12 2.43486e-12)
(1.67244e-12 -4.06917e-12 5.46304e-13)
(2.6088e-12 -4.9079e-12 -4.62684e-13)
(2.07565e-12 -4.9693e-12 -9.74583e-14)
(1.11117e-12 -4.47694e-12 2.18833e-14)
(6.53226e-13 -4.90638e-12 -2.75603e-13)
(1.94964e-13 -5.35804e-12 4.49651e-13)
(6.76805e-13 -5.91785e-12 -1.6339e-14)
(1.58675e-12 -6.24381e-12 -9.16778e-13)
(2.38956e-12 -5.46445e-12 -1.75148e-12)
(4.72053e-12 -6.46864e-12 -3.46034e-12)
(6.4209e-12 -8.40051e-12 -5.26505e-12)
(5.74926e-12 -8.18195e-12 -6.01367e-12)
(6.06156e-12 -6.23464e-12 -6.66846e-12)
(6.28418e-12 -4.11696e-12 -5.21942e-12)
(6.29132e-12 -2.83525e-12 -7.68067e-12)
(4.30794e-12 -2.53299e-12 -9.52682e-12)
(2.04781e-12 -2.69017e-12 -8.37167e-12)
(1.73425e-12 -4.68325e-12 -6.63866e-12)
(1.5979e-12 -5.79426e-12 -5.49731e-12)
(9.25753e-13 -4.88411e-12 -5.08161e-12)
(9.11702e-13 -4.59057e-12 -4.47779e-12)
(1.61463e-12 -3.78846e-12 -4.22493e-12)
(1.4454e-12 -4.11171e-12 -4.14222e-12)
(1.2037e-12 -4.57159e-12 -4.57006e-12)
(1.70285e-12 -3.07514e-12 -4.65447e-12)
(2.3576e-12 -2.49857e-12 -3.15492e-12)
(4.32711e-12 -2.89194e-12 -9.25289e-13)
(5.24634e-12 -3.64714e-12 7.34483e-13)
(5.6607e-12 -3.37029e-12 1.49195e-12)
(5.26987e-12 -1.56371e-12 1.9068e-12)
(2.95466e-12 5.64101e-13 2.47906e-12)
(1.02966e-12 1.77924e-12 3.66298e-12)
(-4.30926e-13 -4.5074e-13 5.09566e-12)
(-3.14267e-12 -2.94595e-12 4.79692e-12)
(-5.00445e-12 -4.89158e-12 4.65192e-12)
(-3.35865e-12 -6.85994e-12 3.52172e-12)
(-1.91474e-12 -7.68284e-12 2.92636e-12)
(-2.82332e-12 -7.1815e-12 2.71861e-12)
(-3.82556e-12 -6.6001e-12 2.93816e-12)
(-5.13814e-12 -4.44831e-12 2.37488e-12)
(-5.36363e-12 -3.56479e-12 2.4959e-13)
(-5.45314e-12 -1.95866e-12 -2.04947e-12)
(-7.71679e-12 -1.91173e-12 -1.06143e-12)
(-9.39003e-12 -3.25886e-12 -1.13093e-12)
(-9.69735e-12 -4.91632e-12 -1.11687e-12)
(-1.00403e-11 -5.84983e-12 -1.64037e-12)
(-8.9696e-12 -4.57294e-12 -2.45267e-12)
(-7.04473e-12 -5.04984e-12 -2.93048e-12)
(-5.60045e-12 -4.45019e-12 -4.369e-12)
(-2.03498e-12 -4.92877e-12 -4.43699e-12)
(8.22884e-13 -5.33469e-12 -5.94582e-12)
(-1.82659e-14 -6.68588e-12 -8.88595e-12)
(-1.32629e-13 -6.09596e-12 -1.19416e-11)
(2.75964e-12 -5.52027e-12 -1.19836e-11)
(5.23672e-12 -6.47863e-12 -1.04587e-11)
(4.84913e-12 -7.37317e-12 -8.68753e-12)
(3.74655e-12 -5.40723e-12 -6.5689e-12)
(4.0724e-12 -5.51611e-12 -2.42927e-12)
(4.53352e-12 -6.15132e-12 2.88234e-13)
(5.60322e-12 -7.26869e-12 -2.63468e-13)
(5.78325e-12 -7.47072e-12 -1.36425e-12)
(4.35246e-12 -7.32445e-12 -3.13028e-12)
(4.04553e-12 -6.87905e-12 -4.61149e-12)
(3.95008e-12 -6.00878e-12 -3.97788e-12)
(3.26573e-12 -4.77425e-12 -3.10787e-12)
(2.13855e-12 -4.74948e-12 -3.69137e-12)
(1.93425e-12 -3.67998e-12 -4.74946e-12)
(1.28848e-12 -2.37924e-12 -3.60788e-12)
(-6.20354e-13 -1.81179e-12 -3.9338e-12)
(-2.90923e-12 -1.45666e-12 -3.46899e-12)
(-4.42432e-12 -1.57435e-12 -2.7185e-12)
(-5.95797e-12 -1.72234e-12 -3.38259e-12)
(-8.45879e-12 -2.15187e-12 -2.09392e-12)
(-9.04374e-12 -2.54591e-12 -8.08069e-13)
(-7.35141e-12 -2.38902e-12 -1.7184e-13)
(-9.0269e-13 -5.68353e-12 -1.35225e-13)
(-1.83917e-12 -5.10768e-12 3.2894e-14)
(-1.82424e-12 -5.37706e-12 9.42612e-13)
(-2.47112e-12 -6.22744e-12 3.63079e-12)
(-2.21618e-12 -5.00199e-12 5.68064e-12)
(-1.74949e-12 -4.86953e-12 2.0152e-12)
(-1.48633e-12 -4.33413e-12 -3.43694e-12)
(-1.84974e-12 -4.24854e-12 -5.11321e-12)
(-3.37993e-12 -3.91978e-12 -4.76859e-12)
(-4.98372e-12 -4.13358e-12 -4.25356e-12)
(-6.26103e-12 -3.33475e-12 -4.42442e-12)
(-6.09513e-12 -3.68385e-12 -4.50828e-12)
(-5.15274e-12 -3.81216e-12 -5.36733e-12)
(-6.38586e-12 -3.2919e-12 -7.14507e-12)
(-5.59108e-12 -3.12436e-12 -6.05762e-12)
(-5.56612e-12 -3.36355e-12 -4.89837e-12)
(-6.59968e-12 -3.07494e-12 -3.90105e-12)
(-4.70853e-12 -2.40491e-12 -3.53853e-12)
(-1.67599e-12 -2.26519e-12 -3.33118e-12)
(-9.08958e-13 -2.67009e-12 -3.32822e-12)
(-1.64742e-12 -2.08076e-12 -3.51569e-12)
(-7.00775e-13 -1.67106e-12 -4.32912e-12)
(1.34553e-13 -8.89416e-13 -5.07959e-12)
(5.17091e-13 -1.44161e-12 -5.65514e-12)
(1.83781e-12 -2.06654e-12 -5.79281e-12)
(2.25122e-12 -1.52136e-12 -5.99118e-12)
(2.62704e-12 -1.62253e-12 -5.06794e-12)
(3.95922e-12 -1.7957e-12 -4.2295e-12)
(3.68517e-12 -1.86519e-12 -3.31804e-12)
(3.47993e-12 -1.94423e-12 -3.22875e-12)
(4.39107e-12 -1.88897e-12 -3.41632e-12)
(3.37609e-12 -1.84397e-12 -4.57233e-12)
(1.96543e-12 -1.3343e-12 -5.83725e-12)
(1.27493e-12 -2.50461e-12 -7.08202e-12)
(-1.88988e-12 -2.3836e-12 -6.56843e-12)
(-3.14407e-12 -3.30002e-12 -5.06038e-12)
(-3.61873e-12 -4.08621e-12 -2.5371e-12)
(-5.76748e-12 -4.77537e-12 3.06627e-13)
(-3.80199e-12 -4.36496e-12 3.39846e-12)
(-1.15594e-12 -5.03894e-12 3.50207e-12)
(7.44208e-13 -3.66541e-12 2.83239e-12)
(1.20533e-12 -4.59452e-12 9.52752e-13)
(1.06366e-12 -4.14891e-12 -8.00048e-13)
(6.36221e-13 -3.69896e-12 1.09115e-13)
(-9.44051e-13 -3.11611e-12 1.72087e-12)
(-2.80156e-12 -2.317e-12 1.69346e-12)
(-3.78682e-12 -1.84027e-12 1.63567e-12)
(-3.5819e-12 -1.84578e-12 1.8073e-12)
(-3.06523e-12 -1.60892e-12 1.40439e-12)
(-3.15126e-12 -1.73182e-12 8.12242e-13)
(-1.80644e-12 -2.71931e-12 5.25003e-13)
(-1.06402e-13 -2.88303e-12 4.6641e-13)
(-4.89877e-13 -2.2151e-12 5.047e-13)
(-8.78391e-13 -2.07544e-12 1.40396e-12)
(2.18084e-13 -2.41101e-12 1.72652e-12)
(1.56757e-12 -2.31014e-12 1.89581e-12)
(2.11598e-12 -2.54221e-12 -1.7069e-13)
(2.08194e-12 -3.78451e-12 -8.54494e-13)
(1.0611e-12 -4.05193e-12 -1.28587e-12)
(1.17119e-14 -4.1559e-12 -6.9734e-13)
(9.38247e-13 -4.71443e-12 2.64865e-13)
(1.51061e-12 -4.32348e-12 2.14432e-12)
(1.70335e-12 -3.33811e-12 2.99822e-12)
(2.34171e-12 -3.27611e-12 2.88976e-12)
(1.74058e-12 -3.69086e-12 2.35347e-12)
(2.24831e-12 -3.87012e-12 6.18283e-13)
(2.84041e-12 -5.68158e-12 -9.30318e-13)
(4.12265e-12 -5.64916e-12 9.38101e-13)
(4.62841e-12 -5.99658e-12 3.50673e-12)
(6.69178e-12 -5.85133e-12 4.6927e-12)
(9.41602e-12 -5.61312e-12 4.08929e-12)
(9.48785e-12 -4.88968e-12 4.46808e-12)
(7.51672e-12 -3.69163e-12 4.44467e-12)
(5.6345e-12 -3.14573e-12 6.3132e-12)
(3.3373e-12 -2.49569e-12 7.42263e-12)
(1.55425e-12 -2.97632e-12 7.21165e-12)
(1.03405e-12 -2.73185e-12 7.63474e-12)
(2.14812e-13 -3.30344e-12 7.20009e-12)
(-2.29489e-12 -3.3881e-12 6.83925e-12)
(-3.53115e-12 -3.82832e-12 6.40359e-12)
(-3.40593e-12 -4.00335e-12 6.35304e-12)
(-3.66968e-12 -3.70876e-12 4.78324e-12)
(-5.11869e-12 -3.88878e-12 3.48696e-12)
(-5.98834e-12 -4.74446e-12 3.48465e-12)
(-6.0647e-12 -4.25431e-12 2.74641e-12)
(-7.19254e-12 -4.14206e-12 2.44687e-12)
(-6.82531e-12 -4.21696e-12 2.88825e-12)
(-5.84361e-12 -4.11662e-12 5.25816e-12)
(-5.87628e-12 -4.7535e-12 6.44882e-12)
(-3.68677e-12 -4.05274e-12 3.9405e-12)
(-1.35608e-12 -3.63581e-12 2.73457e-12)
(-1.27022e-12 -2.54795e-12 2.41592e-12)
(-3.35321e-14 -2.88699e-12 3.03867e-12)
(9.70637e-13 -3.07688e-12 3.9504e-12)
(1.7313e-12 -4.26591e-12 4.44529e-12)
(3.09753e-12 -4.38062e-12 4.41838e-12)
(3.48375e-12 -3.61163e-12 4.3136e-12)
(3.64559e-12 -3.31805e-12 4.48121e-12)
(4.46083e-12 -3.56977e-12 4.30911e-12)
(3.84094e-12 -2.4074e-12 4.10019e-12)
(3.02385e-12 -2.05534e-12 3.05528e-12)
(4.42729e-12 -1.96117e-12 2.343e-12)
(3.14245e-12 -1.81937e-12 1.18627e-12)
(-1.34185e-13 -1.90919e-12 4.761e-13)
(-9.01876e-13 -2.51449e-12 8.46337e-13)
(-2.29179e-12 -2.86167e-12 3.71842e-13)
(-3.93759e-12 -2.86975e-12 -1.98564e-13)
(-4.32435e-12 -3.93515e-12 4.60466e-14)
(-5.28916e-12 -4.85855e-12 1.00704e-14)
(-5.95634e-12 -4.95392e-12 -3.89498e-14)
(-4.82046e-12 -5.09769e-12 5.74574e-13)
(-3.28681e-12 -5.79771e-12 -5.28873e-13)
(-2.88303e-12 -7.06236e-12 -2.75358e-12)
(-6.52578e-13 -6.40988e-12 -3.98444e-12)
(1.31645e-12 -6.34211e-12 -4.37173e-12)
(1.62207e-12 -6.51485e-12 -5.26415e-12)
(2.20524e-12 -6.06963e-12 -6.52454e-12)
(2.4187e-12 -5.29018e-12 -5.42133e-12)
(3.6622e-12 -4.82244e-12 -5.3033e-12)
(5.78198e-12 -4.9281e-12 -6.28665e-12)
(4.73558e-12 -5.03701e-12 -3.88896e-12)
(4.61736e-12 -4.61764e-12 -1.15525e-12)
(5.90323e-12 -5.24817e-12 -6.3064e-13)
(5.29313e-12 -5.6558e-12 -8.36974e-13)
(5.12185e-12 -5.44788e-12 -1.94606e-12)
(4.07477e-12 -4.14141e-12 -3.51897e-12)
(2.49371e-12 -4.17029e-12 -3.38222e-12)
(1.08659e-12 -3.90971e-12 -5.20938e-12)
(1.8349e-12 -3.09434e-12 -5.74912e-12)
(2.54254e-12 -3.08628e-12 -6.12828e-12)
(2.06065e-12 -2.86267e-12 -5.75167e-12)
(2.30685e-12 -2.95058e-12 -5.5376e-12)
(1.2374e-12 -1.84431e-12 -6.15034e-12)
(-3.62771e-13 -1.71002e-12 -8.45935e-12)
(-1.52901e-12 -2.22762e-12 -9.39165e-12)
(-1.07194e-12 -2.81846e-12 -9.38433e-12)
(-1.27249e-12 -3.25151e-12 -8.33312e-12)
(-2.43042e-12 -2.99409e-12 -7.41392e-12)
(-2.22353e-12 -3.45144e-12 -6.62846e-12)
(-2.89519e-12 -3.4329e-12 -6.03397e-12)
(-3.56414e-12 -4.02705e-12 -4.7274e-12)
(-4.23005e-12 -4.15325e-12 -3.89669e-12)
(-2.70966e-12 -3.60285e-12 -5.52069e-12)
(-2.33939e-12 -2.23677e-12 -5.14598e-12)
(-2.18128e-12 -1.06446e-12 -4.61536e-12)
(-1.57661e-12 -1.27465e-12 -4.68948e-12)
(-3.2434e-12 -1.75932e-12 -6.23481e-12)
(-3.61667e-12 -1.78084e-12 -7.07756e-12)
(-3.05639e-12 -1.85928e-12 -4.55657e-12)
(-3.2933e-12 -1.75401e-12 -5.20664e-12)
(-2.5382e-12 -1.21915e-12 -4.74348e-12)
(-2.94127e-13 -1.4531e-12 -2.61368e-12)
(-8.44679e-13 -2.53312e-12 8.34194e-13)
(-1.01094e-12 -2.97182e-12 4.20474e-12)
(-6.44476e-14 -3.15607e-12 3.80562e-12)
(2.60259e-13 -3.00205e-12 1.98558e-12)
(1.65794e-12 -3.01879e-12 -7.68569e-14)
(3.79222e-12 -3.9106e-12 -4.50616e-13)
(2.38738e-12 -3.91285e-12 -3.43893e-13)
(1.64763e-12 -4.39686e-12 -1.17238e-14)
(1.61172e-12 -5.09561e-12 -1.66537e-13)
(-8.72135e-14 -5.63335e-12 1.94817e-13)
(1.05846e-12 -5.83815e-12 2.23769e-15)
(1.88432e-12 -6.85962e-12 -4.9261e-13)
(1.78541e-12 -6.78708e-12 -1.45077e-12)
(5.54757e-12 -7.03451e-12 -2.71364e-12)
(7.1649e-12 -6.66694e-12 -4.40593e-12)
(5.86428e-12 -6.16592e-12 -5.34126e-12)
(5.35297e-12 -5.06397e-12 -5.64324e-12)
(4.7281e-12 -4.14091e-12 -5.14292e-12)
(4.85491e-12 -3.21213e-12 -5.79663e-12)
(3.89147e-12 -2.41142e-12 -6.24604e-12)
(2.65524e-12 -2.43668e-12 -6.22344e-12)
(2.88251e-12 -3.33907e-12 -6.67828e-12)
(1.50048e-12 -4.20716e-12 -5.15465e-12)
(1.4683e-13 -4.08228e-12 -4.06605e-12)
(3.02939e-13 -4.35868e-12 -3.50276e-12)
(1.12733e-12 -3.58174e-12 -3.22975e-12)
(1.93375e-12 -3.11295e-12 -2.9491e-12)
(1.04738e-12 -3.15478e-12 -3.45874e-12)
(1.08233e-12 -2.91655e-12 -2.81221e-12)
(3.13729e-12 -3.26638e-12 -2.0583e-12)
(4.50661e-12 -3.66995e-12 -2.59952e-13)
(5.13435e-12 -2.60318e-12 4.50135e-13)
(5.47205e-12 -2.72258e-12 5.50539e-13)
(3.403e-12 -1.90346e-12 1.01714e-12)
(1.30276e-12 -7.12414e-13 1.54741e-12)
(1.60264e-12 -2.7811e-13 2.33215e-12)
(7.96942e-13 -1.02464e-12 3.05881e-12)
(-1.76262e-12 -2.33337e-12 3.58226e-12)
(-3.64803e-12 -3.99231e-12 3.24493e-12)
(-2.89879e-12 -5.34896e-12 2.48794e-12)
(-2.08946e-12 -5.29701e-12 2.5391e-12)
(-2.83323e-12 -4.99049e-12 2.28414e-12)
(-4.08815e-12 -4.71334e-12 2.10418e-12)
(-4.49063e-12 -3.67569e-12 1.80597e-12)
(-5.32954e-12 -3.87419e-12 3.99181e-13)
(-7.00588e-12 -2.8581e-12 -7.5299e-13)
(-7.95617e-12 -2.33524e-12 -5.1831e-13)
(-8.74967e-12 -2.81192e-12 -3.90873e-13)
(-9.35864e-12 -3.09208e-12 -8.09113e-13)
(-1.05995e-11 -3.85099e-12 -1.02799e-12)
(-9.94242e-12 -4.83982e-12 -1.6634e-12)
(-6.78405e-12 -4.87817e-12 -2.28096e-12)
(-4.82794e-12 -5.46615e-12 -4.25149e-12)
(-2.14015e-12 -5.4516e-12 -3.79142e-12)
(5.93791e-13 -5.13655e-12 -4.03743e-12)
(7.76524e-13 -5.04305e-12 -5.47772e-12)
(8.31734e-13 -6.0256e-12 -6.27807e-12)
(4.88614e-12 -6.41802e-12 -6.90635e-12)
(6.4495e-12 -7.07876e-12 -6.7586e-12)
(5.34286e-12 -6.23162e-12 -6.80163e-12)
(4.31979e-12 -6.50015e-12 -5.19689e-12)
(3.84314e-12 -6.24059e-12 -2.93498e-12)
(4.79438e-12 -6.48193e-12 -1.75633e-12)
(5.15639e-12 -6.5676e-12 -2.04688e-12)
(4.96745e-12 -5.99911e-12 -1.47461e-12)
(4.41283e-12 -5.70949e-12 -1.89991e-12)
(3.60531e-12 -5.69086e-12 -2.52298e-12)
(3.40127e-12 -5.14382e-12 -2.48633e-12)
(2.83534e-12 -4.4261e-12 -1.53045e-12)
(1.2026e-12 -3.85231e-12 -1.02471e-12)
(1.07335e-12 -2.71488e-12 -1.65268e-13)
(8.25466e-13 -1.9617e-12 6.64284e-13)
(-1.77563e-13 -1.22637e-12 -1.16625e-12)
(-2.34936e-12 -8.52809e-13 -2.82306e-12)
(-5.08496e-12 -1.73189e-12 -3.55744e-12)
(-6.63124e-12 -1.70848e-12 -5.74322e-12)
(-8.30621e-12 -2.03609e-12 -3.12984e-12)
(-9.22484e-12 -2.87795e-12 -1.05043e-12)
(-8.29896e-12 -3.22219e-12 -1.00575e-12)
(-6.33971e-13 -4.30866e-12 5.41801e-13)
(-1.05043e-12 -4.95587e-12 3.84833e-13)
(-1.41552e-12 -5.41282e-12 9.22245e-13)
(-2.00657e-12 -5.33443e-12 1.99626e-12)
(-2.40971e-12 -5.5528e-12 2.73251e-12)
(-2.43846e-12 -5.37313e-12 1.39324e-12)
(-2.18208e-12 -4.51881e-12 -1.94373e-12)
(-2.61415e-12 -3.81026e-12 -3.71585e-12)
(-4.09554e-12 -2.72e-12 -4.01036e-12)
(-5.17647e-12 -3.30381e-12 -4.24114e-12)
(-6.00493e-12 -2.90237e-12 -4.49758e-12)
(-6.06163e-12 -3.34198e-12 -4.62677e-12)
(-5.96982e-12 -2.92035e-12 -4.68406e-12)
(-6.7157e-12 -3.01528e-12 -5.17425e-12)
(-6.12054e-12 -3.62775e-12 -4.09485e-12)
(-6.18173e-12 -3.07783e-12 -3.51689e-12)
(-6.26806e-12 -3.26784e-12 -3.38049e-12)
(-4.24058e-12 -3.5607e-12 -2.31765e-12)
(-2.14059e-12 -3.86321e-12 -1.56056e-12)
(-1.83722e-12 -2.56402e-12 -1.45345e-12)
(-2.0123e-12 -2.82199e-12 -1.55207e-12)
(-1.5648e-12 -2.82481e-12 -2.52779e-12)
(-6.5685e-14 -1.69931e-12 -3.43543e-12)
(1.08061e-12 -2.60739e-12 -4.35761e-12)
(1.77404e-12 -2.67718e-12 -3.76047e-12)
(2.98602e-12 -2.17957e-12 -3.71195e-12)
(3.94382e-12 -3.52997e-12 -3.24723e-12)
(3.9437e-12 -3.64973e-12 -7.49756e-13)
(3.8212e-12 -2.56037e-12 4.01718e-13)
(3.91757e-12 -2.64958e-12 -8.56996e-13)
(4.27272e-12 -2.87994e-12 -2.14332e-12)
(2.77371e-12 -1.92196e-12 -3.23525e-12)
(1.768e-12 -2.28847e-12 -4.50735e-12)
(8.41411e-13 -1.7317e-12 -5.58022e-12)
(-1.58533e-12 -2.22701e-12 -5.2874e-12)
(-2.38175e-12 -3.9865e-12 -4.62301e-12)
(-2.92929e-12 -4.14251e-12 -2.8651e-12)
(-5.00013e-12 -4.81875e-12 -1.21827e-12)