/*--------------------------------*- C++ -*----------------------------------*\
| =========                 |                                                 |
| \\      /  F ield         | OpenFOAM: The Open Source CFD Toolbox           |
|  \\    /   O peration     | Version:  2406                                  |
|   \\  /    A nd           | Website:  www.openfoam.com                      |
|    \\/     M anipulation  |                                                 |
\*---------------------------------------------------------------------------*/
FoamFile
{
    version     2.0;
    format      ascii;
    arch        "LSB;label=32;scalar=64";
    class       volScalarField;
    location    "0.095";
    object      Ma;
}
// * * * * * * * * * * * * * * * * * * * * * * * * * * * * * * * * * * * * * //

dimensions      [0 0 0 0 0 0 0];

internalField   nonuniform List<scalar> 
13948
(
0.154319
0.106179
0.0662151
0.0385369
0.0231192
0.0154276
0.0112929
0.00883244
0.00710245
0.00576734
0.00474119
0.00397773
0.00344589
0.00307656
0.00276091
0.00242248
0.0020878
0.00170021
0.00124291
0.000759955
0.000358014
0.000175988
0.000166564
0.000188973
0.000235761
0.000328677
0.000467485
0.000624891
0.000786648
0.000951034
0.00109575
0.00115827
0.00113298
0.00104729
0.000856608
0.000524892
0.000132852
0.000123689
0.000181866
0.000180121
0.000172927
0.000171146
0.00019116
0.000254166
0.000380279
0.00054089
0.000629471
0.000629047
0.000592444
0.000498721
0.000336691
0.000154092
3.65913e-05
3.11574e-06
6.29015e-08
2.04243e-10
9.40789e-14
3.46516e-14
2.41723e-14
4.71032e-14
5.81453e-14
5.63536e-14
1.27211e-13
1.27184e-13
9.71365e-14
7.59371e-14
6.61136e-14
6.37762e-14
6.0799e-14
4.64853e-14
4.5338e-14
3.3683e-14
2.27351e-14
2.73622e-14
6.36351e-14
1.23936e-13
1.41704e-13
1.69782e-13
2.24781e-13
2.03876e-13
1.98935e-13
1.82397e-13
1.90833e-13
1.98789e-13
1.70348e-13
1.53969e-13
1.21442e-13
9.70681e-14
5.56644e-14
7.96217e-14
1.26502e-13
1.35274e-13
9.98535e-14
6.13913e-14
1.19025e-13
1.99076e-13
2.63308e-13
2.82539e-13
3.14934e-13
0.126087
0.130179
0.101481
0.0648472
0.0381667
0.0230241
0.0153951
0.0112605
0.00879917
0.00707989
0.00575681
0.00473811
0.00397915
0.00345327
0.00308516
0.00276832
0.00242774
0.00208998
0.00169715
0.00123361
0.000748832
0.00035048
0.000158671
0.000141887
0.000161527
0.000210405
0.000311706
0.000459079
0.000622424
0.000788785
0.000955742
0.00110036
0.00116216
0.00113565
0.00104875
0.000855157
0.000521176
0.000129228
0.000123706
0.00018116
0.000179312
0.000171786
0.000169661
0.000189817
0.000254089
0.000382231
0.000543209
0.000630854
0.000629614
0.000592813
0.000498109
0.000335294
0.000152827
3.60945e-05
3.0524e-06
6.1123e-08
1.96678e-10
8.42606e-14
3.84578e-14
2.65513e-14
4.65056e-14
5.6068e-14
5.92725e-14
1.05419e-13
1.12504e-13
9.18034e-14
6.00477e-14
6.61545e-14
5.46392e-14
6.28511e-14
5.12369e-14
4.05696e-14
3.73842e-14
2.7046e-14
2.99996e-14
6.12775e-14
1.10322e-13
1.37022e-13
1.5411e-13
1.95034e-13
1.9516e-13
2.01398e-13
1.77796e-13
1.82641e-13
1.81999e-13
1.73421e-13
1.43465e-13
1.03326e-13
9.10294e-14
5.30956e-14
7.57702e-14
1.18849e-13
1.20984e-13
8.99045e-14
6.28344e-14
1.19672e-13
1.83729e-13
2.5075e-13
2.80895e-13
3.08341e-13
0.244363
0.235285
0.219112
0.197041
0.169621
0.13917
0.109245
0.0838527
0.0732526
0.0732688
0.0867546
0.0822825
0.0592737
0.0370058
0.0228472
0.0153754
0.0112247
0.00875209
0.00704098
0.00573072
0.00472268
0.00396706
0.00343667
0.00306103
0.00273761
0.00239401
0.00205485
0.00166314
0.00120682
0.000734058
0.000345155
0.00016085
0.000139789
0.00015846
0.000212771
0.000320493
0.000470333
0.000632476
0.000795825
0.000959181
0.00109715
0.00115268
0.00112224
0.00103278
0.000837118
0.000505037
0.000119296
0.000126979
0.000182836
0.000181288
0.000174297
0.000172975
0.000194273
0.000259557
0.000387123
0.00054553
0.000629135
0.000625741
0.000587801
0.000492064
0.000329694
0.000149361
3.49696e-05
2.92158e-06
5.76022e-08
1.8197e-10
7.46767e-14
3.20469e-14
3.20796e-14
4.66999e-14
4.87909e-14
5.85114e-14
9.15124e-14
1.05487e-13
9.09478e-14
5.14965e-14
5.5347e-14
5.0029e-14
5.13898e-14
4.19611e-14
3.33114e-14
2.90018e-14
2.31856e-14
3.55986e-14
6.24874e-14
9.14254e-14
1.21241e-13
1.28512e-13
1.49676e-13
1.56788e-13
1.68283e-13
1.54109e-13
1.5528e-13
1.47081e-13
1.43578e-13
1.22194e-13
9.34036e-14
7.84347e-14
4.98515e-14
6.2933e-14
9.48528e-14
1.02826e-13
8.10146e-14
6.89159e-14
1.06164e-13
1.60219e-13
2.35716e-13
2.70231e-13
3.04214e-13
0.246813
0.225603
0.208067
0.19261
0.179994
0.169916
0.162121
0.155427
0.149912
0.148451
0.15059
0.155099
0.161968
0.169756
0.177736
0.185619
0.192153
0.196136
0.196423
0.19288
0.186921
0.177792
0.16679
0.155235
0.144276
0.134949
0.127801
0.12254
0.119066
0.117538
0.116503
0.114645
0.111181
0.107017
0.0999641
0.0914749
0.0805431
0.0684212
0.0577079
0.0514315
0.0506451
0.0575396
0.0603312
0.0681528
0.0648407
0.0502018
0.0340082
0.0220162
0.0150514
0.0109896
0.00855513
0.00688665
0.00561661
0.00463972
0.00390404
0.00338495
0.00301192
0.00268873
0.00234768
0.00201173
0.00162309
0.0011734
0.000711639
0.000338207
0.000162162
0.000138133
0.000155719
0.000214841
0.000327592
0.000478275
0.000638813
0.000800146
0.000958941
0.00109043
0.00114084
0.00110716
0.00101614
0.000818628
0.000487553
0.000107538
0.000131466
0.000185286
0.000183742
0.000177087
0.000176436
0.00019824
0.000264094
0.00039139
0.000547044
0.000626879
0.000621612
0.00058283
0.00048608
0.00032383
0.000145439
3.36064e-05
2.75583e-06
5.30448e-08
1.62847e-10
8.00763e-14
4.35887e-14
4.23484e-14
4.76788e-14
5.31938e-14
5.57248e-14
7.27819e-14
9.04553e-14
8.75646e-14
5.64671e-14
4.18273e-14
5.23581e-14
4.84933e-14
4.20204e-14
3.23097e-14
1.98988e-14
7.22063e-15
1.99818e-14
5.54312e-14
7.32744e-14
9.5954e-14
1.07012e-13
1.12937e-13
1.26032e-13
1.27457e-13
1.19202e-13
1.20619e-13
1.21152e-13
1.13504e-13
9.31243e-14
8.11727e-14
6.1348e-14
3.85009e-14
4.46855e-14
7.58663e-14
8.01927e-14
7.57006e-14
6.93121e-14
8.54053e-14
1.31645e-13
2.0686e-13
2.54966e-13
2.82746e-13
0.249781
0.215798
0.186543
0.16178
0.140971
0.123322
0.108281
0.0965176
0.0864327
0.0783915
0.0720574
0.0673849
0.0646512
0.063993
0.0657489
0.0691336
0.0736514
0.0784818
0.0834335
0.0873221
0.0891017
0.0887797
0.086688
0.0833486
0.0786578
0.0730795
0.067409
0.0625855
0.0582059
0.0548382
0.0525725
0.051521
0.0504085
0.0490898
0.047182
0.045933
0.0440087
0.043055
0.041645
0.0409264
0.0415664
0.0443744
0.0454467
0.049098
0.0511066
0.054374
0.0503412
0.0408998
0.0299312
0.020563
0.0144465
0.0106298
0.00828116
0.00666275
0.00543956
0.00450335
0.00380093
0.00330248
0.00293961
0.00262141
0.00228785
0.00195917
0.00157731
0.0011362
0.000684856
0.000326947
0.000162786
0.000138672
0.00015716
0.000220059
0.000336021
0.00048651
0.000644371
0.000801435
0.000955763
0.00108096
0.00112622
0.00108956
0.00099729
0.000798129
0.000467963
9.41988e-05
0.000136661
0.000187821
0.000186055
0.000179681
0.000179692
0.000201906
0.000268414
0.000395637
0.000548397
0.000623829
0.00061672
0.000577145
0.00047942
0.000317237
0.000140911
3.19976e-05
2.5589e-06
4.7677e-08
1.40785e-10
8.11855e-14
6.08747e-14
6.00214e-14
5.72553e-14
6.32553e-14
5.8625e-14
5.88575e-14
6.30507e-14
6.08761e-14
5.21829e-14
3.97058e-14
4.35139e-14
3.37986e-14
3.04989e-14
2.2866e-14
2.24993e-14
2.85084e-14
1.67288e-14
4.43746e-14
5.58898e-14
8.34204e-14
1.01958e-13
1.02652e-13
9.96843e-14
1.04025e-13
9.53694e-14
9.11074e-14
9.77961e-14
9.17311e-14
7.89345e-14
7.77175e-14
5.95649e-14
3.08715e-14
5.07299e-14
7.93902e-14
7.63361e-14
6.75568e-14
6.39871e-14
7.14842e-14
1.06159e-13
1.70509e-13
2.30262e-13
2.74168e-13
0.24193
0.206252
0.175425
0.14891
0.125714
0.105753
0.0883612
0.0731301
0.0608193
0.050847
0.0434686
0.0377217
0.0324892
0.0277738
0.0238645
0.021475
0.0210375
0.0221663
0.024193
0.0270179
0.0300366
0.03238
0.0337712
0.0338023
0.0331816
0.0317832
0.029527
0.0270877
0.0248843
0.0227183
0.0209649
0.0202305
0.0203395
0.0206728
0.0216796
0.0228307
0.0250031
0.0272667
0.0301992
0.0329726
0.035527
0.0372089
0.0390382
0.0397357
0.0414032
0.0429613
0.0442199
0.0404067
0.0334769
0.0256115
0.0185445
0.0134946
0.0100877
0.00790647
0.00637103
0.0052148
0.00433427
0.00367667
0.00320793
0.00286034
0.00254994
0.00222553
0.00190267
0.00152479
0.00109057
0.00065103
0.00031077
0.000160896
0.00013711
0.000158235
0.000225692
0.000345195
0.000495688
0.000651142
0.000805193
0.000956122
0.00107482
0.00111484
0.00107497
0.00098048
0.000777789
0.000446948
7.95682e-05
0.000142174
0.000189952
0.000187796
0.000181573
0.000182106
0.000205081
0.000272985
0.000401043
0.000551141
0.000621976
0.000612986
0.000572299
0.000472864
0.000310093
0.000135759
3.0141e-05
2.33399e-06
4.17102e-08
1.17191e-10
9.26402e-14
7.36848e-14
7.25397e-14
7.25278e-14
6.47308e-14
5.83772e-14
4.74506e-14
3.66809e-14
3.13961e-14
3.07606e-14
1.92606e-14
2.22078e-14
3.06067e-14
2.76866e-14
2.48982e-14
3.95531e-14
5.1931e-14
4.38001e-14
4.35363e-14
4.95766e-14
6.87691e-14
8.56137e-14
8.93476e-14
7.6963e-14
7.59922e-14
6.71128e-14
6.48905e-14
6.51335e-14
6.01945e-14
6.09425e-14
6.00488e-14
5.43248e-14
3.54697e-14
4.811e-14
7.87293e-14
7.34582e-14
6.44413e-14
6.21406e-14
6.76015e-14
9.27998e-14
1.57483e-13
2.15567e-13
2.59502e-13
0.195689
0.166386
0.140683
0.118402
0.0987402
0.0817563
0.0670677
0.0543381
0.0434819
0.0344137
0.0276464
0.0229628
0.0197506
0.0172896
0.0150159
0.0127238
0.0102349
0.00761248
0.00512779
0.00411073
0.00548107
0.00724051
0.00894288
0.010017
0.0108295
0.0111512
0.0109159
0.010716
0.0101853
0.0096008
0.00929178
0.00999604
0.0113579
0.0131356
0.0154398
0.0179384
0.0207929
0.0236842
0.0265724
0.0290617
0.0309984
0.0323069
0.0333439
0.0338682
0.0348874
0.035953
0.0363784
0.0330377
0.0275734
0.0216857
0.0163921
0.0123776
0.00945835
0.00749951
0.00606783
0.00498359
0.00415806
0.0035437
0.00310492
0.00277352
0.00247148
0.00215823
0.0018413
0.00146731
0.0010396
0.000612493
0.00029194
0.000159718
0.000138453
0.000162859
0.000234837
0.000357504
0.000507645
0.000660237
0.000810922
0.00095753
0.00106861
0.0011029
0.00105966
0.000962374
0.000755392
0.000423534
6.34456e-05
0.000148027
0.000191806
0.000189291
0.000183335
0.000184592
0.000208702
0.000278553
0.00040779
0.000554506
0.000619987
0.000609022
0.000567018
0.000465537
0.00030197
0.000129869
2.80404e-05
2.08637e-06
3.54096e-08
9.3567e-11
8.1727e-14
7.77812e-14
7.788e-14
7.66998e-14
6.94171e-14
4.83683e-14
3.06043e-14
3.09268e-14
2.32736e-14
8.73565e-15
1.90338e-14
3.5273e-14
4.2619e-14
3.64845e-14
3.02485e-14
5.45048e-14
6.93465e-14
6.57769e-14
5.79509e-14
6.5576e-14
6.01999e-14
7.68196e-14
8.63335e-14
7.17287e-14
5.82223e-14
5.06404e-14
4.23621e-14
3.88929e-14
3.56297e-14
4.30297e-14
3.90488e-14
3.85581e-14
3.68755e-14
4.53302e-14
6.50729e-14
6.71899e-14
6.43113e-14
5.79888e-14
6.70826e-14
9.31812e-14
1.42752e-13
2.05253e-13
2.66977e-13
0.16055
0.136651
0.115313
0.0966475
0.0801167
0.0658057
0.0535271
0.0430344
0.0341305
0.0266366
0.0206607
0.0162562
0.01336
0.0118426
0.0112595
0.0108041
0.0100779
0.0089945
0.00765723
0.00591319
0.00409121
0.00244904
0.00139877
0.00148132
0.00224279
0.00298679
0.00374237
0.00451076
0.00555213
0.00703603
0.00854553
0.0100648
0.0117072
0.0134974
0.0154633
0.0174983
0.0196448
0.0217664
0.0237769
0.0254746
0.0268159
0.0277372
0.0283912
0.0288521
0.0294827
0.030045
0.029931
0.0271796
0.0229019
0.0183683
0.0143488
0.0111781
0.00877137
0.00706752
0.00575965
0.00475671
0.00398645
0.00341358
0.00300245
0.00268562
0.00239008
0.00208801
0.00177477
0.00140414
0.000983753
0.000571176
0.000273094
0.000159731
0.000141759
0.00016991
0.000247274
0.000373614
0.000523296
0.000673042
0.000820654
0.000962757
0.00106501
0.00109244
0.00104504
0.000943474
0.000730825
0.000397476
4.58427e-05
0.000154376
0.00019377
0.000190875
0.000185231
0.000187395
0.000213028
0.000285306
0.000415931
0.000558847
0.000618612
0.000605452
0.000561588
0.000457444
0.000292792
0.000123226
2.57197e-05
1.82323e-06
2.90686e-08
7.13101e-11
6.40368e-14
6.78939e-14
7.00716e-14
6.50117e-14
6.26568e-14
4.09439e-14
3.25692e-14
4.14471e-14
3.94838e-14
3.2966e-14
3.78864e-14
4.6423e-14
5.10752e-14
5.2857e-14
5.10066e-14
7.30484e-14
8.64877e-14
7.27092e-14
7.7358e-14
7.32696e-14
6.75543e-14
8.47081e-14
9.04726e-14
7.07479e-14
5.79053e-14
4.94637e-14
3.64235e-14
3.21198e-14
2.61187e-14
3.06813e-14
4.25319e-14
4.17305e-14
3.80676e-14
4.45824e-14
5.5806e-14
6.36674e-14
6.41046e-14
5.42744e-14
6.20834e-14
9.79873e-14
1.42978e-13
2.08681e-13
2.53629e-13
0.129767
0.110698
0.0934773
0.0786003
0.0654811
0.0541265
0.044352
0.035936
0.0287573
0.0226556
0.0175409
0.0135008
0.0104748
0.00868519
0.00812438
0.00820758
0.00832777
0.00820537
0.00776075
0.00697403
0.00601517
0.00493867
0.00391818
0.00324275
0.00301558
0.00310438
0.0033271
0.00372495
0.00434955
0.00548178
0.00719241
0.00903962
0.0108499
0.0126234
0.0143968
0.0161423
0.0178549
0.0194522
0.0208558
0.0219831
0.0228938
0.0235228
0.0239932
0.0243514
0.0247198
0.024988
0.0245943
0.0223443
0.0190253
0.015555
0.0125124
0.0100246
0.0080754
0.00662025
0.00544995
0.00453346
0.00381762
0.0032854
0.00289919
0.00259538
0.00230597
0.00201542
0.00170534
0.00133774
0.000925096
0.000529056
0.000255974
0.000161416
0.000147759
0.000180648
0.000264023
0.000393541
0.000541713
0.000687656
0.000831119
0.000967702
0.00106019
0.00108041
0.00102901
0.000922289
0.000703153
0.000368259
2.71482e-05
0.000161258
0.000195868
0.000192594
0.000187327
0.000190603
0.000218072
0.000293141
0.000425252
0.000563538
0.000616915
0.000601572
0.000555533
0.000448304
0.000282436
0.000115827
2.32128e-05
1.55287e-06
2.29787e-08
5.15894e-11
5.893e-14
6.34909e-14
7.01426e-14
6.22113e-14
7.56231e-14
4.91999e-14
3.19225e-14
4.8022e-14
4.60037e-14
4.56959e-14
4.71958e-14
5.34211e-14
5.88682e-14
5.99166e-14
6.40869e-14
7.60982e-14
8.41648e-14
7.68776e-14
7.31189e-14
5.73747e-14
6.2435e-14
7.73398e-14
8.05041e-14
6.98643e-14
5.71167e-14
4.94497e-14
2.99962e-14
3.13033e-14
3.32166e-14
4.11681e-14
4.88777e-14
4.63189e-14
4.26714e-14
4.42744e-14
5.74007e-14
6.83839e-14
5.66569e-14
4.73448e-14
6.51515e-14
9.96598e-14
1.45608e-13
2.02749e-13
2.54813e-13
0.109362
0.0944073
0.0802829
0.0677132
0.0565914
0.0469487
0.038734
0.0317613
0.025876
0.0208865
0.0165265
0.0129289
0.00989687
0.00758437
0.00624903
0.00580115
0.00592336
0.00628825
0.00658141
0.00673786
0.00650033
0.00589948
0.00516832
0.00462002
0.0042786
0.00414004
0.00416087
0.00435753
0.00473664
0.00528496
0.00601394
0.00724343
0.00876345
0.0104117
0.0120479
0.0136102
0.0150684
0.0163356
0.0174113
0.0182246
0.0189611
0.0194586
0.0199003
0.0202297
0.020479
0.0205691
0.0200635
0.0183227
0.0158315
0.013227
0.0109156
0.00895623
0.00739607
0.00616958
0.00514104
0.0043139
0.00365353
0.00316097
0.00279641
0.00250385
0.00222022
0.00193964
0.00163196
0.00126699
0.000862898
0.000486133
0.00024113
0.000164902
0.000155851
0.000194039
0.000283999
0.000416274
0.000562327
0.000704206
0.000843199
0.000973932
0.00105566
0.00106767
0.00101217
0.000898805
0.000672127
0.000335715
1.32919e-05
0.000168632
0.000198246
0.000194599
0.000189684
0.000194158
0.000223782
0.000302066
0.000435803
0.000568682
0.000615207
0.000597643
0.00054889
0.000438025
0.000270819
0.000107687
2.05632e-05
1.28434e-06
1.74029e-08
3.52084e-11
7.63008e-14
7.48535e-14
8.17542e-14
7.10907e-14
7.86161e-14
6.83098e-14
3.72174e-14
5.05774e-14
5.77422e-14
5.74759e-14
5.37062e-14
5.81097e-14
6.42475e-14
6.59859e-14
6.71682e-14
6.94173e-14
6.82371e-14
5.57738e-14
5.55685e-14
3.9082e-14
4.84517e-14
7.37765e-14
8.4131e-14
7.27218e-14
5.25093e-14
3.36432e-14
1.96149e-14
3.22156e-14
3.85541e-14
4.0897e-14
4.43539e-14
4.26725e-14
3.9833e-14
4.84384e-14
6.10614e-14
5.80879e-14
5.08689e-14
4.72992e-14
5.96016e-14
9.89305e-14
1.45247e-13
2.0117e-13
2.47724e-13
0.0900954
0.0783248
0.0675869
0.0578912
0.0494364
0.0419217
0.03523
0.029439
0.0244538
0.0200466
0.016088
0.0126776
0.00973726
0.00727312
0.00527915
0.00387344
0.00344548
0.00391329
0.00464721
0.00529301
0.00566994
0.00571622
0.00549699
0.00524184
0.00504536
0.00498429
0.00497606
0.00505377
0.00511618
0.00529555
0.00563983
0.00609537
0.00689106
0.00802474
0.00932863
0.0106394
0.0118692
0.0129517
0.0138775
0.0145946
0.0152608
0.0156828
0.0161125
0.0164237
0.0166291
0.0166738
0.0162727
0.0149873
0.0131506
0.011239
0.00949494
0.00798031
0.00674726
0.0057214
0.00482873
0.00409023
0.00348882
0.00303669
0.00269231
0.00240986
0.00213246
0.00186053
0.00155409
0.0011913
0.000796633
0.000442393
0.000228057
0.000168853
0.000166227
0.000210786
0.00030744
0.000441608
0.000584703
0.000721915
0.000855726
0.000979702
0.00105019
0.0010526
0.000994136
0.000872248
0.000637225
0.000299652
2.55407e-05
0.000176179
0.000200597
0.000196627
0.000192092
0.000197991
0.00023021
0.000312196
0.000447604
0.000574023
0.000613155
0.000593473
0.000541434
0.000426404
0.000257839
9.88397e-05
1.78249e-05
1.02689e-06
1.25507e-08
2.25085e-11
8.63507e-14
9.01743e-14
1.01591e-13
8.97967e-14
9.63018e-14
8.12322e-14
6.08515e-14
6.40135e-14
7.38777e-14
7.40711e-14
6.59203e-14
7.04605e-14
6.91542e-14
7.07718e-14
6.8465e-14
6.44939e-14
5.29291e-14
3.70698e-14
4.60053e-14
4.67419e-14
5.5287e-14
7.98899e-14
8.92157e-14
8.05223e-14
6.30817e-14
4.61308e-14
3.58255e-14
3.3419e-14
4.56762e-14
5.28239e-14
5.80566e-14
5.39121e-14
5.54236e-14
6.39593e-14
6.55174e-14
5.42008e-14
5.60072e-14
5.44675e-14
6.18196e-14
1.00372e-13
1.48751e-13
2.02678e-13
2.57897e-13
0.0754599
0.0664871
0.0583028
0.0507493
0.0438913
0.03777
0.0321783
0.0272358
0.022931
0.019057
0.0154969
0.01232
0.00951046
0.00703028
0.00484981
0.00297505
0.00176985
0.00192617
0.00281215
0.00370583
0.00434185
0.00480379
0.00497005
0.00505349
0.00505968
0.00516576
0.00522893
0.00532801
0.00533578
0.0053467
0.00541959
0.00561521
0.00598397
0.0065707
0.00734567
0.00823797
0.00916664
0.0100518
0.0108352
0.0114857
0.0120645
0.0124675
0.012867
0.0131657
0.0133663
0.0134314
0.0131713
0.012237
0.010925
0.00956984
0.00827442
0.0071189
0.00614396
0.005288
0.00451969
0.00386554
0.00332337
0.00290961
0.00258431
0.00231146
0.00204157
0.00177653
0.00147007
0.00110957
0.00072611
0.000398739
0.000218248
0.000173761
0.000178286
0.000230793
0.000334266
0.000469667
0.000609147
0.000741235
0.000869299
0.000985366
0.00104412
0.00103636
0.000974261
0.000842503
0.000598158
0.000260087
4.87168e-05
0.000183741
0.000203021
0.000198781
0.000194703
0.000202225
0.000237541
0.000323728
0.000460716
0.000579521
0.000610777
0.000589124
0.000532994
0.000413239
0.000243398
8.93459e-05
1.5063e-05
7.89439e-07
8.55613e-09
1.33524e-11
7.27153e-14
8.1972e-14
1.02279e-13
1.05648e-13
1.03613e-13
7.76726e-14
6.83522e-14
6.35599e-14
7.55556e-14
8.33071e-14
7.78087e-14
8.62418e-14
7.97118e-14
7.92678e-14
6.54528e-14
6.19694e-14
4.88294e-14
4.16582e-14
5.3278e-14
5.03117e-14
5.01984e-14
7.30196e-14
8.52876e-14
8.25001e-14
6.72569e-14
4.32249e-14
5.65986e-14
6.11384e-14
6.21209e-14
7.14652e-14
8.24757e-14
7.62655e-14
7.90034e-14
8.45625e-14
7.24635e-14
5.95128e-14
5.50106e-14
6.32388e-14
6.78111e-14
1.027e-13
1.58924e-13
2.08282e-13
2.68353e-13
0.0628274
0.05602
0.049739
0.0439415
0.0385208
0.0335922
0.0291461
0.0249666
0.0211796
0.0177555
0.0145575
0.0116316
0.00898642
0.00660912
0.00445993
0.00257926
0.00102495
0.000716864
0.00170601
0.00259497
0.00325874
0.00383066
0.00418954
0.00437123
0.00441323
0.00457717
0.00469033
0.0048333
0.00489392
0.00495181
0.00504088
0.00521156
0.00548293
0.00585331
0.00632666
0.00687875
0.00748632
0.00810309
0.00867562
0.00918379
0.00963552
0.00999509
0.0103275
0.0105865
0.0107548
0.0108163
0.0106162
0.00995953
0.00908271
0.00814749
0.00720303
0.00634471
0.00557831
0.0048674
0.00421112
0.0036372
0.0031547
0.00277758
0.00247128
0.00220759
0.00194711
0.00168644
0.00137899
0.00102172
0.000652316
0.000356322
0.00021258
0.000179134
0.00019323
0.000254965
0.0003649
0.000500493
0.00063534
0.000761713
0.0008834
0.000989832
0.00103682
0.00101865
0.00095154
0.000808916
0.000554342
0.000217002
7.39119e-05
0.000191027
0.000205355
0.000200937
0.000197495
0.000206944
0.000245974
0.000336859
0.000475094
0.000584986
0.000607849
0.00058452
0.000523269
0.000398294
0.000227415
7.9305e-05
1.2352e-05
5.79686e-07
5.46555e-09
7.26251e-12
9.02611e-14
9.19315e-14
1.07547e-13
1.00711e-13
9.94696e-14
6.66016e-14
4.88772e-14
5.11444e-14
7.27702e-14
8.13099e-14
8.45421e-14
8.85998e-14
8.68044e-14
7.53247e-14
6.81589e-14
5.42941e-14
3.59532e-14
4.40059e-14
4.42613e-14
5.2326e-14
5.34527e-14
7.71643e-14
8.24529e-14
8.52661e-14
6.32333e-14
3.7136e-14
6.74224e-14
1.00018e-13
8.84855e-14
8.9678e-14
8.68371e-14
8.63122e-14
7.93875e-14
1.02578e-13
9.04209e-14
6.66642e-14
6.11805e-14
5.17756e-14
6.88355e-14
9.5846e-14
1.55698e-13
2.16738e-13
2.82409e-13
0.0521684
0.0470165
0.0422268
0.0377787
0.0335801
0.0295289
0.025805
0.0222595
0.0189627
0.015988
0.0132015
0.0106092
0.00821808
0.00605833
0.00412437
0.00245458
0.0011138
0.000691856
0.0014343
0.00217324
0.00273879
0.00320008
0.00353472
0.00374163
0.00375353
0.00384753
0.00391643
0.00403428
0.00413785
0.00427935
0.00445031
0.00465702
0.00490371
0.00518811
0.00551454
0.00588241
0.00627092
0.00667008
0.00705709
0.00741904
0.00774907
0.00803947
0.00829187
0.00848901
0.00861082
0.00865417
0.00851329
0.00813715
0.00762322
0.00697851
0.0063212
0.00567801
0.00506376
0.00447038
0.00391108
0.00341058
0.00298313
0.00263896
0.00235146
0.00209742
0.00184892
0.00158932
0.00128061
0.00092825
0.000577395
0.000317818
0.000210896
0.000187859
0.00021142
0.000283248
0.00039954
0.000534092
0.00066322
0.00078333
0.000898122
0.000993068
0.00102786
0.000999298
0.000925614
0.000770734
0.000505252
0.000170617
9.9803e-05
0.000197975
0.000207769
0.000203247
0.000200627
0.000212333
0.000255763
0.00035181
0.000490611
0.0005902
0.000604548
0.000579319
0.000512009
0.000381321
0.000209833
6.88634e-05
9.77292e-06
4.03325e-07
3.23691e-09
3.58134e-12
8.85154e-14
8.50808e-14
9.16005e-14
1.00693e-13
1.11192e-13
7.73316e-14
6.72963e-14
3.68526e-14
6.75528e-14
8.54291e-14
8.1323e-14
8.05048e-14
9.0051e-14
7.71349e-14
6.86402e-14
5.53102e-14
4.58385e-14
4.68518e-14
4.49267e-14
3.751e-14
4.02954e-14
7.43032e-14
8.77442e-14
8.13964e-14
6.33853e-14
4.41848e-14
7.67603e-14
1.2003e-13
1.09452e-13
9.12362e-14
8.02555e-14
7.69129e-14
6.50915e-14
8.03575e-14
8.04728e-14
6.84588e-14
6.7379e-14
5.00708e-14
6.28632e-14
1.04626e-13
1.53284e-13
2.13496e-13
2.87394e-13
0.0430529
0.0389053
0.0350295
0.0313908
0.027974
0.0247691
0.0217417
0.0189907
0.0163518
0.0138724
0.0115431
0.00936525
0.00734093
0.00551282
0.00390387
0.00255635
0.00160303
0.00133422
0.00172879
0.00228145
0.00277958
0.00314637
0.00338796
0.00353878
0.0035228
0.00353785
0.00354117
0.00360155
0.00365506
0.00374863
0.00387755
0.00404577
0.00425473
0.00449251
0.00474174
0.00498651
0.00522489
0.00546816
0.00571699
0.00596427
0.00619817
0.00641643
0.00660724
0.00676056
0.00686847
0.00693086
0.0069121
0.00677993
0.00647572
0.00605088
0.00557284
0.00507138
0.00457723
0.00408902
0.00361782
0.003185
0.00280787
0.00249423
0.00222556
0.00198292
0.00174466
0.0014844
0.00117481
0.000829946
0.000503765
0.000286054
0.000211795
0.000200366
0.000233861
0.000316707
0.00043837
0.000570103
0.000692289
0.000805554
0.000912958
0.000994276
0.00101629
0.000977761
0.00089571
0.000726902
0.000450301
0.000121462
0.000125471
0.000204379
0.000210157
0.000205621
0.000204108
0.000218563
0.000267188
0.000368822
0.000506999
0.000594853
0.000601021
0.000573059
0.000498918
0.000362033
0.000190646
5.82234e-05
7.40798e-06
2.63287e-07
1.7547e-09
1.57293e-12
8.45981e-14
7.89981e-14
7.65773e-14
8.86751e-14
9.53279e-14
7.76142e-14
6.34746e-14
3.00879e-14
5.98464e-14
9.40461e-14
8.8024e-14
7.23519e-14
7.1142e-14
6.87033e-14
6.58572e-14
5.58081e-14
5.04487e-14
4.91613e-14
5.56034e-14
4.77715e-14
2.49647e-14
4.90837e-14
7.28921e-14
7.27095e-14
6.82959e-14
6.54826e-14
9.6044e-14
1.27768e-13
1.30074e-13
1.13461e-13
8.90147e-14
7.76063e-14
7.67743e-14
8.27626e-14
7.87894e-14
6.45194e-14
5.77865e-14
4.97464e-14
6.50293e-14
1.03268e-13
1.56178e-13
2.20056e-13
2.80058e-13
0.0357569
0.0322268
0.0290264
0.026088
0.02337
0.0208327
0.0184169
0.0161017
0.0139467
0.0118763
0.00994579
0.00815975
0.00652466
0.00505682
0.00380789
0.00281367
0.0021667
0.0019646
0.00216408
0.0025367
0.00293797
0.00325509
0.00350158
0.00366057
0.00369757
0.00368361
0.00359895
0.00355891
0.00353766
0.00354355
0.00359056
0.00369204
0.00383029
0.00398432
0.00414414
0.00429758
0.00444669
0.0045947
0.00474484
0.00490009
0.00505825
0.00521825
0.00537779
0.00553082
0.00565987
0.00574836
0.00578412
0.00577276
0.00563223
0.00532303
0.0049383
0.00453699
0.00413926
0.00373844
0.00334021
0.0029647
0.00263019
0.00234348
0.00209314
0.00186483
0.00163334
0.00137102
0.00106202
0.000728507
0.000434743
0.00026429
0.000215857
0.000216538
0.000261775
0.000356045
0.000481244
0.000608083
0.000722164
0.000827958
0.000927455
0.000992945
0.00100125
0.000953817
0.000860973
0.000676344
0.000389098
7.1177e-05
0.000150026
0.00021022
0.000212642
0.000208105
0.000208137
0.00022588
0.000280599
0.000388171
0.00052379
0.000598762
0.000597299
0.000565368
0.000483594
0.000340122
0.000169933
4.76479e-05
5.33245e-06
1.5932e-07
8.57177e-10
6.21789e-13
7.69771e-14
7.63394e-14
7.44781e-14
8.54303e-14
8.66315e-14
7.68996e-14
6.48592e-14
4.25088e-14
4.54351e-14
7.44174e-14
8.01726e-14
6.82333e-14
6.59608e-14
7.26985e-14
7.8942e-14
7.61612e-14
7.00075e-14
6.14062e-14
6.99335e-14
7.65049e-14
5.74515e-14
5.06789e-14
6.61348e-14
8.26499e-14
9.23754e-14
9.18758e-14
1.20728e-13
1.28864e-13
1.40845e-13
1.34806e-13
1.07874e-13
8.72037e-14
9.24165e-14
9.54394e-14
8.19489e-14
7.87486e-14
7.07535e-14
6.49096e-14
7.46256e-14
1.02011e-13
1.52836e-13
2.16659e-13
2.81087e-13
0.0302556
0.027055
0.0242659
0.0217758
0.0195052
0.0174
0.0154384
0.0135832
0.0118364
0.0101988
0.00866975
0.00723676
0.00596089
0.00483297
0.00389039
0.00316156
0.00269117
0.00250349
0.00257699
0.00281141
0.00312329
0.00341678
0.00368524
0.00389083
0.00402365
0.0040875
0.00401713
0.00392532
0.00383052
0.00375548
0.00370241
0.00368792
0.00370209
0.0037482
0.00382105
0.00391131
0.00400736
0.00410082
0.00419342
0.00429629
0.00440424
0.00451438
0.00462555
0.0047428
0.00485462
0.00494379
0.00504537
0.00511883
0.00498541
0.00470783
0.00437078
0.00404663
0.00373092
0.00340559
0.00307034
0.00274516
0.00244849
0.00218764
0.00195594
0.00174149
0.0015128
0.00124861
0.000943034
0.000626578
0.000373785
0.000253133
0.000222731
0.000237291
0.000296907
0.00040166
0.000527701
0.000647284
0.00075227
0.000849935
0.000940231
0.000988574
0.000980954
0.000927668
0.00081995
0.000617965
0.000321463
2.95197e-05
0.000172463
0.00021546
0.000215156
0.00021078
0.000212786
0.000234563
0.000296411
0.000410132
0.000540557
0.000601507
0.000593034
0.000556034
0.000465547
0.000315285
0.000147891
3.74568e-05
3.60494e-06
8.80461e-08
3.70243e-10
2.24926e-13
6.87973e-14
6.66198e-14
8.17606e-14
9.37955e-14
9.55498e-14
7.59507e-14
6.85827e-14
4.75889e-14
5.96861e-14
7.63857e-14
8.48685e-14
8.40876e-14
7.79315e-14
8.84586e-14
9.04712e-14
9.22053e-14
9.09944e-14
8.74462e-14
9.01911e-14
9.68349e-14
8.93004e-14
9.02827e-14
9.69022e-14
1.07667e-13
1.10131e-13
1.16115e-13
1.24397e-13
1.36448e-13
1.45922e-13
1.3784e-13
1.26215e-13
1.05651e-13
1.00916e-13
1.06505e-13
9.52754e-14
8.7955e-14
8.54712e-14
8.0364e-14
8.52063e-14
1.10049e-13
1.58877e-13
2.18237e-13
2.74467e-13
0.0264435
0.0233709
0.0207751
0.0185579
0.0166253
0.0148983
0.01332
0.0118453
0.0104513
0.00910932
0.0079167
0.00679321
0.00580129
0.00493784
0.0042125
0.00364279
0.00325068
0.00304506
0.00301998
0.00313281
0.00333452
0.00356682
0.00381337
0.00403705
0.00421715
0.00431708
0.00434094
0.00429746
0.00421979
0.00413133
0.00404774
0.00398938
0.00394555
0.0039238
0.00391695
0.00392048
0.00393177
0.00394891
0.00397433
0.00401103
0.00406604
0.00413947
0.0042317
0.00434442
0.00445914
0.00455316
0.00464533
0.00462156
0.00442073
0.00415271
0.00386611
0.00361731
0.0033744
0.0031077
0.00281871
0.00253141
0.00226438
0.00202816
0.0018152
0.00160933
0.00138241
0.00111803
0.000819587
0.000528859
0.000326298
0.000250652
0.000236517
0.000264416
0.000339741
0.000453518
0.000576912
0.000686786
0.000782009
0.000871121
0.000949379
0.000980148
0.000957114
0.000896205
0.00077163
0.000550752
0.000247664
5.01726e-05
0.000191944
0.000220138
0.000217812
0.000213762
0.000218221
0.000245061
0.000315112
0.000434838
0.000556785
0.000602645
0.000588002
0.000544627
0.000444104
0.000287289
0.000124886
2.80107e-05
2.25717e-06
4.36267e-08
1.3818e-10
9.67698e-14
5.48365e-14
5.64083e-14
7.42225e-14
8.96439e-14
9.18005e-14
8.05727e-14
6.64936e-14
5.53732e-14
6.69834e-14
7.66036e-14
7.37591e-14
6.9284e-14
7.00965e-14
7.6552e-14
8.03023e-14
7.9857e-14
7.74881e-14
9.04076e-14
9.52029e-14
9.54262e-14
9.59779e-14
1.04732e-13
1.09031e-13
1.06679e-13
1.03211e-13
1.09839e-13
1.07765e-13
1.23664e-13
1.28489e-13
1.26778e-13
1.27356e-13
1.22343e-13
1.14815e-13
1.08886e-13
1.02409e-13
8.32937e-14
8.35046e-14
8.05184e-14
9.33331e-14
1.22398e-13
1.58407e-13
2.10302e-13
2.71851e-13
0.0240446
0.0211276
0.0186108
0.0164815
0.0146804
0.0131321
0.0117677
0.0105446
0.00943038
0.00840613
0.00747107
0.00663333
0.0058727
0.005205
0.00463366
0.00416605
0.00381472
0.0035868
0.00348389
0.00349041
0.00357999
0.00372656
0.00389676
0.00405114
0.00417673
0.00427465
0.00433754
0.00435425
0.00433792
0.00429842
0.00426492
0.00422877
0.0041834
0.00413789
0.00409411
0.00405476
0.00402027
0.00399512
0.0039814
0.00398036
0.0039989
0.00404285
0.00410754
0.0041823
0.00425841
0.00430804
0.0042924
0.00413033
0.00388283
0.00364573
0.00342278
0.00324309
0.0030535
0.00282723
0.00257244
0.00231534
0.00207657
0.00186431
0.00166738
0.00146783
0.00124275
0.000980406
0.000694388
0.000441477
0.000297761
0.000254427
0.000256693
0.000300828
0.000391986
0.000511064
0.000627475
0.000725466
0.00081054
0.000890956
0.000953386
0.000966208
0.000929379
0.000858128
0.00071408
0.000473491
0.000168919
9.77726e-05
0.000207974
0.000224209
0.000220598
0.000217164
0.000224734
0.000257934
0.00033724
0.000462156
0.000571687
0.000601819
0.000582126
0.000530369
0.000418512
0.000256046
0.000101489
1.96767e-05
1.28614e-06
1.89405e-08
4.33155e-11
4.65145e-14
3.89709e-14
5.60239e-14
6.94342e-14
6.72793e-14
6.83622e-14