/*--------------------------------*- C++ -*----------------------------------*\
| =========                 |                                                 |
| \\      /  F ield         | OpenFOAM: The Open Source CFD Toolbox           |
|  \\    /   O peration     | Version:  2406                                  |
|   \\  /    A nd           | Website:  www.openfoam.com                      |
|    \\/     M anipulation  |                                                 |
\*---------------------------------------------------------------------------*/
FoamFile
{
    version     2.0;
    format      ascii;
    arch        "LSB;label=32;scalar=64";
    class       volScalarField;
    location    "0.095";
    object      p;
}
// * * * * * * * * * * * * * * * * * * * * * * * * * * * * * * * * * * * * * //

dimensions      [1 -1 -2 0 0 0 0];

internalField   nonuniform List<scalar> 
13948
(
99133
102176
102677
102897
103017
103021
102988
102943
102913
102901
102893
102881
102858
102832
102813
102807
102814
102839
102882
102936
102984
103008
103011
103004
102990
102964
102932
102898
102863
102828
102796
102778
102771
102776
102799
102844
102900
102937
102947
102947
102947
102948
102952
102963
102984
103010
103026
103030
103027
103016
102994
102968
102951
102946
102946
102946
102946
102946
102946
102946
102946
102946
102946
102946
102946
102946
102946
102946
102946
102946
102946
102946
102946
102946
102946
102946
102946
102946
102946
102946
102946
102946
102946
102946
102946
102946
102946
102946
102946
102946
102946
102946
102946
102946
102946
102946
102946
102946
102946
103222
101673
102401
102726
102896
103004
103011
102982
102938
102909
102897
102890
102878
102858
102833
102816
102810
102818
102842
102884
102936
102983
103005
103008
103001
102986
102961
102929
102896
102862
102828
102797
102779
102773
102779
102801
102846
102901
102938
102947
102948
102948
102949
102953
102964
102985
103010
103026
103029
103026
103015
102993
102968
102951
102946
102946
102946
102946
102946
102946
102946
102946
102946
102946
102946
102946
102946
102946
102946
102946
102946
102946
102946
102946
102946
102946
102946
102946
102946
102946
102946
102946
102946
102946
102946
102946
102946
102946
102946
102946
102946
102946
102946
102946
102946
102946
102946
102946
102946
102946
101546
101643
101775
102018
102156
102210
102247
102428
102469
102899
101658
102418
102692
102901
103003
103010
102980
102937
102909
102896
102889
102878
102858
102834
102818
102813
102821
102845
102887
102937
102982
103004
103005
102998
102983
102958
102927
102894
102861
102827
102797
102781
102775
102781
102804
102848
102903
102938
102947
102948
102948
102950
102954
102965
102985
103011
103025
103028
103026
103014
102992
102967
102951
102946
102946
102946
102946
102946
102946
102946
102946
102946
102946
102946
102946
102946
102946
102946
102946
102946
102946
102946
102946
102946
102946
102946
102946
102946
102946
102946
102946
102946
102946
102946
102946
102946
102946
102946
102946
102946
102946
102946
102946
102946
102946
102946
102946
102946
102946
111439
110409
109195
107869
106551
105398
104436
103670
103003
102411
101919
101542
101394
101350
101420
101621
101911
102130
102377
102399
102652
102972
103123
103219
103288
103256
103051
102794
102494
102132
101845
101728
101678
101689
101749
101815
102001
102139
102218
102248
102357
102309
102611
102196
102613
102716
102887
102989
103002
102974
102933
102906
102893
102886
102876
102857
102835
102820
102816
102824
102848
102889
102939
102982
103002
103003
102995
102979
102954
102924
102892
102859
102826
102797
102782
102776
102783
102806
102850
102904
102939
102948
102949
102949
102950
102955
102965
102986
103011
103025
103028
103025
103013
102991
102967
102951
102946
102946
102946
102946
102946
102946
102946
102946
102946
102946
102946
102946
102946
102946
102946
102946
102946
102946
102946
102946
102946
102946
102946
102946
102946
102946
102946
102946
102946
102946
102946
102946
102946
102946
102946
102946
102946
102946
102946
102946
102946
102946
102946
102946
102946
102946
111977
111576
110943
110094
109109
108001
106768
105645
104666
103870
103242
102717
102307
102002
101840
101776
101787
101884
102088
102342
102565
102763
102876
103046
103176
103227
103258
103163
102945
102700
102391
102057
101818
101674
101594
101561
101611
101692
101865
102004
102101
102124
102272
102263
102400
102324
102569
102715
102894
102985
102998
102970
102931
102904
102892
102885
102874
102856
102835
102821
102818
102827
102852
102893
102941
102982
103000
103000
102992
102976
102951
102921
102889
102857
102825
102797
102783
102778
102785
102808
102853
102906
102940
102948
102949
102949
102951
102955
102966
102987
103012
103025
103028
103024
103012
102991
102966
102951
102946
102946
102946
102946
102946
102946
102946
102946
102946
102946
102946
102946
102946
102946
102946
102946
102946
102946
102946
102946
102946
102946
102946
102946
102946
102946
102946
102946
102946
102946
102946
102946
102946
102946
102946
102946
102946
102946
102946
102946
102946
102946
102946
102946
102946
102946
110970
110898
110562
110026
109348
108565
107685
106699
105748
104862
104097
103466
102938
102535
102254
102089
102056
102107
102220
102403
102614
102798
102972
103130
103248
103359
103416
103421
103314
103114
102852
102552
102273
102073
101927
101834
101792
101813
101847
101924
102001
102118
102179
102298
102354
102437
102443
102623
102764
102906
102979
102989
102963
102926
102901
102889
102882
102872
102854
102835
102823
102821
102830
102855
102896
102944
102983
102998
102998
102989
102973
102948
102917
102886
102855
102823
102797
102784
102779
102787
102811
102856
102908
102941
102948
102950
102950
102951
102956
102967
102988
103012
103025
103027
103024
103012
102990
102965
102950
102946
102946
102946
102946
102946
102946
102946
102946
102946
102946
102946
102946
102946
102946
102946
102946
102946
102946
102946
102946
102946
102946
102946
102946
102946
102946
102946
102946
102946
102946
102946
102946
102946
102946
102946
102946
102946
102946
102946
102946
102946
102946
102946
102946
102946
102946
109840
109835
109565
109108
108514
107850
107133
106361
105609
104859
104196
103623
103156
102813
102576
102433
102376
102391
102458
102609
102815
102979
103093
103162
103195
103235
103242
103199
103101
102979
102835
102657
102471
102313
102173
102079
102033
102031
102042
102079
102117
102198
102275
102362
102421
102477
102506
102656
102789
102916
102979
102983
102958
102923
102898
102887
102880
102869
102853
102835
102824
102823
102834
102860
102900
102947
102983
102997
102995
102986
102969
102944
102914
102883
102852
102822
102797
102785
102781
102789
102814
102859
102910
102942
102949
102950
102950
102952
102957
102968
102989
103013
103025
103027
103023
103011
102988
102964
102950
102946
102946
102946
102946
102946
102946
102946
102946
102946
102946
102946
102946
102946
102946
102946
102946
102946
102946
102946
102946
102946
102946
102946
102946
102946
102946
102946
102946
102946
102946
102946
102946
102946
102946
102946
102946
102946
102946
102946
102946
102946
102946
102946
102946
102946
102946
108637
108721
108559
108218
107725
107153
106546
105923
105317
104728
104194
103710
103287
102947
102694
102541
102478
102489
102557
102705
102926
103132
103292
103394
103443
103450
103409
103303
103124
102913
102724
102547
102384
102255
102157
102109
102101
102117
102140
102166
102201
102250
102307
102376
102437
102496
102561
102706
102831
102935
102980
102977
102951
102918
102895
102884
102877
102867
102851
102835
102826
102826
102838
102864
102905
102950
102984
102995
102992
102983
102965
102939
102910
102880
102850
102820
102796
102785
102783
102791
102818
102863
102913
102943
102949
102950
102951
102953
102958
102970
102991
103014
103025
103027
103022
103009
102987
102963
102950
102946
102946
102946
102946
102946
102946
102946
102946
102946
102946
102946
102946
102946
102946
102946
102946
102946
102946
102946
102946
102946
102946
102946
102946
102946
102946
102946
102946
102946
102946
102946
102946
102946
102946
102946
102946
102946
102946
102946
102946
102946
102946
102946
102946
102946
102946
107528
107768
107751
107552
107185
106710
106192
105668
105158
104671
104208
103792
103421
103105
102850
102660
102540
102497
102528
102632
102800
102991
103174
103315
103402
103435
103421
103361
103248
103078
102848
102629
102448
102310
102216
102174
102161
102168
102193
102221
102254
102292
102339
102398
102462
102531
102626
102761
102868
102948
102979
102972
102944
102912
102891
102881
102874
102864
102849
102835
102828
102829
102842
102870
102910
102954
102984
102993
102989
102979
102961
102934
102905
102876
102847
102818
102796
102786
102784
102794
102821
102867
102916
102944
102950
102951
102951
102953
102958
102971
102992
103015
103025
103026
103022
103008
102986
102962
102949
102946
102946
102946
102946
102946
102946
102946
102946
102946
102946
102946
102946
102946
102946
102946
102946
102946
102946
102946
102946
102946
102946
102946
102946
102946
102946
102946
102946
102946
102946
102946
102946
102946
102946
102946
102946
102946
102946
102946
102946
102946
102946
102946
102946
102946
102946
106501
106835
106921
106848
106634
106302
105912
105499
105079
104662
104263
103892
103558
103260
103009
102810
102670
102598
102581
102603
102661
102786
102940
103070
103160
103213
103227
103207
103153
103073
102960
102811
102655
102523
102428
102373
102343
102330
102333
102341
102357
102383
102418
102468
102530
102603
102705
102819
102905
102961
102979
102967
102937
102907
102887
102878
102871
102861
102847
102835
102830
102832
102847
102875
102916
102957
102984
102991
102986
102975
102956
102929
102901
102872
102843
102816
102795
102787
102786
102797
102825
102872
102919
102945
102950
102951
102952
102954
102959
102972
102994
103016
103025
103026
103021
103007
102984
102961
102949
102946
102946
102946
102946
102946
102946
102946
102946
102946
102946
102946
102946
102946
102946
102946
102946
102946
102946
102946
102946
102946
102946
102946
102946
102946
102946
102946
102946
102946
102946
102946
102946
102946
102946
102946
102946
102946
102946
102946
102946
102946
102946
102946
102946
102946
102946
105457
105855
106040
106085
106022
105843
105576
105269
104940
104599
104261
103942
103654
103393
103165
102973
102824
102721
102662
102643
102662
102723
102805
102884
102947
102991
103010
103011
102996
102981
102951
102917
102867
102801
102725
102653
102595
102552
102525
102509
102507
102522
102547
102588
102642
102704
102786
102873
102936
102970
102976
102960
102929
102901
102883
102874
102867
102858
102846
102836
102832
102836
102852
102882
102922
102961
102984
102989
102983
102971
102950
102924
102895
102868
102840
102814
102795
102788
102788
102800
102830
102877
102923
102946
102951
102952
102952
102955
102961
102974
102996
103017
103025
103025
103020
103005
102982
102960
102949
102946
102946
102946
102946
102946
102946
102946
102946
102946
102946
102946
102946
102946
102946
102946
102946
102946
102946
102946
102946
102946
102946
102946
102946
102946
102946
102946
102946
102946
102946
102946
102946
102946
102946
102946
102946
102946
102946
102946
102946
102946
102946
102946
102946
102946
102946
104588
105055
105329
105452
105472
105395
105219
104994
104746
104475
104196
103927
103680
103459
103263
103093
102952
102842
102764
102721
102704
102714
102754
102808
102853
102880
102893
102898
102899
102911
102918
102929
102935
102920
102883
102832
102777
102727
102687
102661
102651
102662
102681
102714
102754
102799
102856
102920
102961
102976
102973
102952
102920
102894
102878
102870
102863
102855
102844
102837
102834
102840
102858
102889
102929
102965
102984
102986
102979
102966
102944
102918
102890
102863
102836
102811
102795
102788
102790
102804
102835
102882
102926
102947
102951
102952
102953
102955
102962
102976
102998
103018
103024
103025
103019
103004
102980
102959
102948
102946
102946
102946
102946
102946
102946
102946
102946
102946
102946
102946
102946
102946
102946
102946
102946
102946
102946
102946
102946
102946
102946
102946
102946
102946
102946
102946
102946
102946
102946
102946
102946
102946
102946
102946
102946
102946
102946
102946
102946
102946
102946
102946
102946
102946
102946
103803
104289
104609
104798
104885
104901
104842
104705
104527
104322
104099
103878
103670
103482
103315
103170
103045
102943
102863
102812
102780
102771
102786
102819
102855
102872
102877
102877
102877
102888
102904
102922
102931
102928
102913
102885
102850
102812
102781
102761
102755
102764
102783
102811
102844
102877
102919
102962
102978
102977
102965
102940
102910
102886
102873
102866
102859
102852
102843
102838
102837
102845
102864
102897
102936
102969
102983
102982
102975
102960
102938
102911
102884
102858
102832
102809
102795
102789
102793
102808
102841
102888
102930
102948
102952
102953
102954
102956
102963
102978
103000
103019
103025
103024
103018
103002
102978
102957
102948
102946
102946
102946
102946
102946
102946
102946
102946
102946
102946
102946
102946
102946
102946
102946
102946
102946
102946
102946
102946
102946
102946
102946
102946
102946
102946
102946
102946
102946
102946
102946
102946
102946
102946
102946
102946
102946
102946
102946
102946
102946
102946
102946
102946
102946
102946
103190
103684
104040
104280
104421
104481
104475
104403
104283
104141
103980
103808
103638
103482
103338
103208
103096
103001
102925
102875
102842
102834
102840
102860
102895
102916
102923
102923
102921
102922
102926
102929
102930
102926
102916
102901
102882
102863
102846
102837
102838
102848
102868
102893
102921
102947
102974
102988
102983
102971
102952
102926
102899
102879
102868
102861
102856
102849
102843
102839
102840
102850
102872
102905
102943
102971
102981
102979
102970
102954
102930
102904
102878
102853
102828
102806
102795
102791
102795
102813
102848
102895
102934
102950
102952
102953
102954
102957
102965
102981
103003
103020
103025
103024
103016
102999
102976
102956
102947
102946
102946
102946
102946
102946
102946
102946
102946
102946
102946
102946
102946
102946
102946
102946
102946
102946
102946
102946
102946
102946
102946
102946
102946
102946
102946
102946
102946
102946
102946
102946
102946
102946
102946
102946
102946
102946
102946
102946
102946
102946
102946
102946
102946
102946
102946
102689
103174
103536
103793
103962
104057
104097
104089
104035
103949
103843
103723
103592
103463
103339
103222
103116
103024
102948
102893
102856
102843
102840
102848
102875
102902
102924
102939
102949
102954
102954
102951
102947
102941
102934
102927
102920
102914
102910
102910
102915
102927
102945
102965
102983
102996
103003
102993
102973
102954
102934
102911
102889
102872
102862
102857
102852
102847
102843
102841
102844
102856
102880
102914
102950
102973
102979
102974
102964
102946
102922
102896
102871
102847
102824
102804
102795
102792
102799
102818
102856
102902
102938
102951
102953
102954
102955
102958
102967
102984
103006
103021
103025
103023
103015
102997
102973
102954
102947
102946
102946
102946
102946
102946
102946
102946
102946
102946
102946
102946
102946
102946
102946
102946
102946
102946
102946
102946
102946
102946
102946
102946
102946
102946
102946
102946
102946
102946
102946
102946
102946
102946
102946
102946
102946
102946
102946
102946
102946
102946
102946
102946
102946
102946
102946
102280
102754
103118
103389
103581
103705
103774
103799
103788
103749
103687
103612
103520
103417
103312
103208
103110
103021
102944
102884
102838
102813
102799
102798
102812
102834
102861
102882
102902
102919
102936
102949
102954
102954
102950
102946
102944
102944
102947
102953
102961
102973
102988
103000
103007
103010
103001
102973
102947
102930
102916
102898
102879
102865
102857
102853
102850
102846
102844
102844
102849
102864
102890
102924
102956
102973
102976
102970
102958
102938
102913
102888
102864
102842
102820
102802
102795
102794
102802
102825
102864
102910
102941
102952
102953
102954
102956
102960
102969
102987
103008
103022
103025
103022
103013
102994
102970
102953
102947
102946
102946
102946
102946
102946
102946
102946
102946
102946
102946
102946
102946
102946
102946
102946
102946
102946
102946
102946
102946
102946
102946
102946
102946
102946
102946
102946
102946
102946
102946
102946
102946
102946
102946
102946
102946
102946
102946
102946
102946
102946
102946
102946
102946
102946
102946
101932
102397
102760
103034
103234
103371
103459
103508
103528
103526
103501
103456
103399
103326
103244
103159
103074
102995
102924
102863
102812
102775
102746
102729
102723
102726
102749
102780
102811
102841
102867
102887
102901
102911
102919
102926
102932
102937
102944
102953
102964
102976
102986
102991
102991
102986
102963
102930
102916
102909
102900
102886
102869
102857
102851
102849
102848
102846
102845
102847
102855
102873
102900
102933
102961
102973
102971
102964
102950
102929
102904
102880
102857
102836
102815
102801
102796
102797
102807
102833
102874
102918
102945
102953
102954
102955
102957
102961
102972
102990
103011
103022
103025
103021
103010
102990
102967
102951
102947
102946
102946
102946
102946
102946
102946
102946
102946
102946
102946
102946
102946
102946
102946
102946
102946
102946
102946
102946
102946
102946
102946
102946
102946
102946
102946
102946
102946
102946
102946
102946
102946
102946
102946
102946
102946
102946
102946
102946
102946
102946
102946
102946
102946
102946
102946
101612
102071
102436
102716
102926
103076
103179
103243
103278
103291
103286
103260
103225
103178
103123
103062
103000
102939
102882
102829
102781
102740
102704
102675
102657
102648
102653
102674
102702
102732
102763
102789
102811
102827
102840
102852
102864
102879
102894
102907
102920
102931
102937
102937
102932
102922
102902
102889
102892
102894
102888
102875
102860
102850
102846
102846
102847
102847
102848
102852
102863
102883
102911
102943
102964
102970
102966
102957
102941
102918
102894
102871
102850
102830
102812
102801
102797
102800
102813
102842
102884
102925
102948
102953
102955
102956
102958
102963
102975
102994
103014
103023
103024
103020
103008
102986
102964
102950
102946
102946
102946
102946
102946
102946
102946
102946
102946
102946
102946
102946
102946
102946
102946
102946
102946
102946
102946
102946
102946
102946
102946
102946
102946
102946
102946
102946
102946
102946
102946
102946
102946
102946
102946
102946
102946
102946
102946
102946
102946
102946
102946
102946
102946
102946
102946
101313
101747
102111
102402
102626
102793
102911
102991
103039
103064
103070
103061
103039
103010
102975
102937
102896
102856
102816
102777
102739
102702
102668
102643
102625
102616
102616
102626
102642
102661
102680
102699
102717
102734
102752
102769
102787
102805
102822
102838
102851
102861
102866
102866
102862
102857
102854
102865
102879
102884
102878
102864
102850
102843
102843
102845
102847
102849
102852
102858
102872
102894
102923
102951
102965
102967
102960
102949
102930
102906
102883
102862
102843
102824
102808
102801
102798
102804
102820
102852
102895
102933
102951
102954
102955
102957
102959
102965
102978
102999
103017
103023
103024
103019
103004
102982
102960
102949
102946
102946
102946
102946
102946
102946
102946
102946
102946
102946
102946
102946
102946
102946
102946
102946
102946
102946
102946
102946
102946
102946
102946
102946
102946
102946
102946
102946
102946
102946
102946
102946
102946
102946
102946
102946
102946
102946
102946
102946
102946
102946
102946
102946
102946
102946
102946
101078
101452
101790
102079
102318
102505
102647
102749
102818
102861
102884
102890
102886
102874
102856
102833
102807
102779
102749
102720
102693
102667
102646
102628
102616
102608
102605
102609
102616
102627
102638
102651
102665
102679
102695
102712
102730
102748
102764
102780
102792
102802
102809
102814
102818
102821
102835
102859
102874
102876
102866
102851
102840
102838
102841
102846
102850
102853
102857
102866
102882
102906
102935
102956
102964
102961
102953
102938
102917
102894
102872
102854
102836
102819
102806
102801
102801
102809
102829
102864
102907
102940
102953
102955
102956
102958
102961
102968
102983
103003
103020
103024
103023
103016
103000
102977
102957
102948
102946
102946
102946
102946
102946
102946
102946
102946
102946
102946
102946
102946
102946
102946
102946
102946
102946
102946
102946
102946
102946
102946
102946
102946
102946
102946
102946
102946
102946
102946
102946
102946
102946
102946
102946
102946
102946
102946
102946
102946
102946
102946
102946
102946
102946
102946
102946
100966
101263
101543
101803
102036
102233
102393
102517
102610
102677
102721
102749
102764
102768
102766
102758
102744
102727
102707
102685
102665
102646
102631
102619
102612
102609
102610
102613
102618
102624
102630
102639
102648
102660
102673
102688
102704
102720
102735
102749
102761
102773
102783
102794
102805
102816
102837
102860
102869
102864
102850
102837
102833
102835
102842
102849
102854
102858
102864
102875
102894
102919
102944
102958
102960
102954
102943
102926
102903
102881
102862
102845
102829
102814
102805
102802
102804
102815
102840
102878
102919
102946
102954
102956
102957
102959
102963
102971
102988
103008
103021
103024
103022
103013
102995
102972
102954
102947
102946
102946
102946
102946
102946
102946
102946
102946
102946
102946
102946
102946
102946
102946
102946
102946
102946
102946
102946
102946
102946
102946
102946
102946
102946
102946
102946
102946
102946
102946
102946
102946
102946
102946
102946
102946
102946
102946
102946
102946
102946
102946
102946
102946
102946
102946
102946
100964
101208
101437
101652
101851
102032
102192
102327
102435
102519
102582
102627
102659
102678
102689
102692
102690
102683
102672
102659
102645
102632
102623
102616
102613
102612
102614
102616
102620
102626
102632
102641
102651
102662
102674
102688
102701
102715
102728
102741
102754
102768
102782
102796
102810
102823
102842
102857
102857
102846
102833
102827
102829
102837
102847
102855
102860
102865
102873
102887
102908
102932
102950
102956
102953
102945
102931
102910
102888
102868
102852
102837
102823
102810
102805
102804
102809
102824
102854
102893
102931
102951
102956
102957
102958
102960
102965
102976
102994
103013
103023
103024
103021
103010
102990
102967
102951
102947
102946
102946
102946
102946
102946
102946
102946
102946
102946
102946
102946
102946
102946
102946
102946
102946
102946
102946
102946
102946
102946
102946
102946
102946
102946
102946
102946
102946
102946
102946
102946
102946
102946
102946
102946
102946
102946
102946
102946
102946
102946
102946
102946
102946
102946
102946
102946
101061
101256
101448
101628
101794
101946
102086
102210
102317
102406
102478
102533
102574
102604
102624
102637
102644
102647
102646
102643
102637
102632
102627
102623
102620
102619
102619
102620
102622
102627
102634
102642
102652
102664
102676
102689
102702
102715
102729
102743
102758
102773
102788
102802
102816
102828
102839
102844
102837
102827
102822
102824
102833
102845
102856
102862
102867
102872
102883
102900
102922
102942
102951
102950
102945
102933
102915
102893
102873
102856
102842
102829
102817
102809
102805
102807
102816
102836
102870
102910
102941
102954
102957
102958
102959
102962
102968
102981
103000
103018
103024
103024
103019
103005
102983
102961
102949
102946
102946
102946
102946
102946
102946
102946
102946
102946
102946
102946
102946
102946
102946
102946
102946
102946
102946
102946
102946
102946
102946
102946
102946
102946
102946
102946
102946
102946
102946
102946
102946
102946
102946
102946
102946
102946
102946
102946
102946
102946
102946
102946
102946
102946
102946
102946
102946
101268
101402
101542
101684
101822
101952
102070
102175
102269
102351
102421
102478
102523
102558
102585
102604
102618
102629
102636
102641
102644
102644
102644
102642
102640
102638
102636
102635
102635
102639
102644
102651
102660
102671
102682
102695
102708
102723
102738
102753
102768
102782
102795
102807
102816
102823
102828
102827
102822
102818
102822
102832
102845
102857
102865
102869
102874
102882
102896
102915
102934
102944
102946
102942
102933
102917
102896
102875
102858
102845
102834
102823
102814
102809
102807
102812
102825
102851
102888
102925
102949
102957
102958
102959
102961
102964
102972
102987
103007
103021
103024
103023
103015
102998
102976
102956
102948
102946
102946
102946
102946
102946
102946
102946
102946
102946
102946
102946
102946
102946
102946
102946
102946
102946
102946
102946
102946
102946
102946
102946
102946
102946
102946
102946
102946
102946
102946
102946
102946
102946
102946
102946
102946
102946
102946
102946
102946
102946
102946
102946
102946
102946
102946
102946
102946
101537
101614
101705
101802
101903
102003
102099
102189
102271
102342
102405
102459
102504
102541
102571
102594
102613
102628
102640
102650
102657
102663
102667
102669
102669
102669
102668
102667
102668
102670
102673
102679
102686
102695
102706
102718
102731
102744
102758
102771
102783
102794
102803
102810
102815
102819
102820
102819
102818
102823
102834
102848
102860
102868
102872
102876
102883
102895
102912
102928
102938
102941
102938
102930
102916
102896
102875
102858
102845
102836
102827
102818
102812
102809
102811
102820
102839
102870
102908
102939
102955
102958
102960
102960
102962
102967
102978
102995
103014
103023
103025
103021
103010
102991
102968
102952
102947
102946
102946
102946
102946
102946
102946
102946
102946
102946
102946
102946
102946
102946
102946
102946
102946
102946
102946
102946
102946
102946
102946
102946
102946
102946
102946
102946
102946
102946
102946
102946
102946
102946
102946
102946
102946
102946
102946
102946
102946
102946
102946
102946
102946
102946
102946
102946
102946
101818
101840
101886
101946
102013
102083
102154
102224
102291
102353
102409
102459
102502
102538
102569
102594
102614
102631
102645
102656
102666
102674
102681
102686
102691
102695
102699
102702
102706
102710
102715
102720
102727
102735
102745
102755
102765
102775
102785
102793
102801
102807
102812
102816
102819
102821
102822
102824
102829
102841
102854
102865
102871
102876
102880
102886
102897
102911
102924
102932
102934
102932
102925
102912
102894
102873
102855
102843
102835
102828
102821
102815
102812
102812
102817
102831
102857
102892
102927
102950
102958
102960
102961
102962
102965
102971
102985
103004
103020
103024
103024
103018
103004
102982
102961
102949
102946
102946
102946
102946
102946
102946
102946
102946
102946
102946
102946
102946
102946
102946
102946
102946
102946
102946
102946
102946
102946
102946
102946
102946
102946
102946
102946
102946
102946
102946
102946
102946
102946
102946
102946
102946
102946
102946
102946
102946
102946
102946
102946
102946
102946
102946
102946
102946
102946
102056
102048
102057
102083
102123
102168
102216
102267
102319
102369
102416
102460
102500
102535
102565
102591
102612
102630
102645
102658
102669
102678
102687
102695
102703
102710
102718
102725
102733
102740
102748
102756
102765
102773
102782
102790
102797
102804
102810
102815
102819
102823
102825
102828
102830
102832
102835
102841
102851
102862
102871
102877
102881
102885
102892
102901
102911
102920
102926
102927
102924
102918
102906
102888
102868
102850
102839
102833
102828
102822
102817
102814
102814
102817
102828
102849
102880
102915
102944
102957
102960
102961
102962
102964
102968
102977
102994
103013
103023
103025
103023
103013
102995
102972
102954
102947
102946
102946
102946
102946
102946
102946
102946
102946
102946
102946
102946
102946
102946
102946
102946
102946
102946
102946
102946
102946
102946
102946
102946
102946
102946
102946
102946
102946
102946
102946
102946
102946
102946
102946
102946
102946
102946
102946
102946
102946
102946
102946
102946
102946
102946
102946
102946
102946
102946
102223
102202
102194
102197
102212
102239
102271
102305
102343
102382
102421
102458
102494
102527
102557
102584
102607
102627
102645
102660
102673
102685
102696
102707
102717
102727
102737
102747
102757
102767
102777
102787
102796
102804
102812
102818
102824
102829
102833
102837
102840
102842
102845
102847
102849
102852
102857
102865
102874
102881
102885
102888
102892
102897
102903
102910
102916
102918
102918
102915
102908
102895
102878
102859
102843
102833
102829
102826
102823
102819
102816
102816
102818
102827
102845
102872
102906
102937
102955
102961
102962
102962
102963
102966
102973
102986
103004
103020
103025
103025
103019
103005
102984
102962
102950
102946
102946
102946
102946
102946
102946
102946
102946
102946
102946
102946
102946
102946
102946
102946
102946
102946
102946
102946
102946
102946
102946
102946
102946
102946
102946
102946
102946
102946
102946
102946
102946
102946
102946
102946
102946
102946
102946
102946
102946
102946
102946
102946
102946
102946
102946
102946
102946
102946
102946
102324
102299
102283
102275
102277
102287
102308
102332
102360
102390
102421
102454
102485
102517
102547
102576
102602
102626
102648
102667
102685
102702
102717
102731
102745
102758
102771
102783
102794
102804
102814
102823
102831
102839
102845
102850
102854
102858
102862
102864
102867
102869
102872
102874
102876
102878
102882
102886
102890
102892
102894
102896
102899
102903
102906
102908
102908
102907
102902
102894
102881
102864
102847
102833
102827
102825
102824
102822
102820
102818
102818
102821
102829
102845
102869
102900
102932
102953
102961
102963
102964
102964
102966
102970
102980
102997
103015
103025
103026
103023
103013
102994
102971
102954
102947
102946
102946
102946
102946
102946
102946
102946
102946
102946
102946
102946
102946
102946
102946
102946
102946
102946
102946
102946
102946
102946
102946
102946
102946
102946
102946
102946
102946
102946
102946
102946
102946
102946
102946
102946
102946
102946
102946
102946
102946
102946
102946
102946
102946
102946
102946
102946
102946
102946
102946
102401
102373
102351
102337
102330
102330
102337
102353
102373
102396
102422
102450
102478
102506
102535
102564
102593
102620
102646
102670
102693
102715
102734
102752
102769
102784
102798
102810
102822
102832
102841
102849
102856
102862
102867
102871
102875
102878
102881
102883
102885
102887
102888
102890
102891
102892
102893
102894
102894
102894
102895
102895
102896
102896
102896
102895
102892
102885
102875
102861
102846
102832
102823
102821
102820
102821
102821
102821
102820
102821
102824
102832
102847
102870
102899
102929
102951
102962
102964
102965
102965
102966
102969