/*--------------------------------*- C++ -*----------------------------------*\
| =========                 |                                                 |
| \\      /  F ield         | OpenFOAM: The Open Source CFD Toolbox           |
|  \\    /   O peration     | Version:  2406                                  |
|   \\  /    A nd           | Website:  www.openfoam.com                      |
|    \\/     M anipulation  |                                                 |
\*---------------------------------------------------------------------------*/
FoamFile
{
    version     2.0;
    format      ascii;
    arch        "LSB;label=32;scalar=64";
    class       volScalarField;
    location    "0.095";
    object      rho;
}
// * * * * * * * * * * * * * * * * * * * * * * * * * * * * * * * * * * * * * //

dimensions      [1 -3 0 0 0 0 0];

internalField   nonuniform List<scalar> 
13948
(
1.14481
1.20325
1.21659
1.22048
1.22197
1.22212
1.22183
1.22137
1.22105
1.22089
1.22078
1.22066
1.22049
1.22028
1.22013
1.22007
1.22014
1.22034
1.22071
1.22116
1.22157
1.22178
1.22181
1.22175
1.22162
1.22141
1.22114
1.22085
1.22055
1.22025
1.21998
1.21983
1.21977
1.21981
1.22
1.22039
1.22086
1.22118
1.22126
1.22126
1.22126
1.22127
1.2213
1.2214
1.22157
1.22179
1.22193
1.22196
1.22194
1.22184
1.22165
1.22144
1.2213
1.22126
1.22125
1.22125
1.22125
1.22125
1.22125
1.22125
1.22125
1.22125
1.22125
1.22125
1.22125
1.22125
1.22125
1.22125
1.22125
1.22125
1.22125
1.22125
1.22125
1.22125
1.22125
1.22125
1.22125
1.22125
1.22125
1.22125
1.22125
1.22125
1.22125
1.22125
1.22125
1.22125
1.22125
1.22125
1.22125
1.22125
1.22125
1.22125
1.22125
1.22125
1.22125
1.22125
1.22125
1.22125
1.22125
1.16238
1.17912
1.20661
1.21701
1.22043
1.22184
1.22203
1.22177
1.22133
1.22101
1.22085
1.22076
1.22065
1.22048
1.22029
1.22015
1.2201
1.22017
1.22037
1.22073
1.22117
1.22156
1.22175
1.22178
1.22171
1.22159
1.22138
1.22111
1.22083
1.22054
1.22025
1.21999
1.21984
1.21979
1.21984
1.22003
1.22041
1.22087
1.22118
1.22126
1.22127
1.22127
1.22128
1.22131
1.2214
1.22158
1.22179
1.22193
1.22195
1.22193
1.22183
1.22165
1.22143
1.22129
1.22126
1.22125
1.22125
1.22125
1.22125
1.22125
1.22125
1.22125
1.22125
1.22125
1.22125
1.22125
1.22125
1.22125
1.22125
1.22125
1.22125
1.22125
1.22125
1.22125
1.22125
1.22125
1.22125
1.22125
1.22125
1.22125
1.22125
1.22125
1.22125
1.22125
1.22125
1.22125
1.22125
1.22125
1.22125
1.22125
1.22125
1.22125
1.22125
1.22125
1.22125
1.22125
1.22125
1.22125
1.22125
1.22125
1.09766
1.09976
1.10369
1.11034
1.11859
1.12948
1.14419
1.1631
1.18091
1.19723
1.19457
1.20966
1.21691
1.22043
1.22179
1.22198
1.22173
1.2213
1.221
1.22084
1.22075
1.22064
1.22048
1.2203
1.22016
1.22013
1.22019
1.2204
1.22075
1.22118
1.22156
1.22174
1.22175
1.22169
1.22156
1.22135
1.22109
1.22081
1.22053
1.22024
1.21999
1.21985
1.2198
1.21985
1.22005
1.22042
1.22088
1.22119
1.22126
1.22127
1.22127
1.22128
1.22132
1.22141
1.22158
1.2218
1.22192
1.22195
1.22192
1.22183
1.22164
1.22143
1.22129
1.22126
1.22125
1.22125
1.22125
1.22125
1.22125
1.22125
1.22125
1.22125
1.22125
1.22125
1.22125
1.22125
1.22125
1.22125
1.22125
1.22125
1.22125
1.22125
1.22125
1.22125
1.22125
1.22125
1.22125
1.22125
1.22125
1.22125
1.22125
1.22125
1.22125
1.22125
1.22125
1.22125
1.22125
1.22125
1.22125
1.22125
1.22125
1.22125
1.22125
1.22125
1.22125
1.22125
1.22125
1.22125
1.22125
1.21446
1.2047
1.19303
1.18059
1.16907
1.15968
1.1516
1.1442
1.13697
1.12986
1.12336
1.11822
1.11545
1.11405
1.11393
1.11508
1.11742
1.11975
1.12282
1.12502
1.12991
1.13601
1.14095
1.14502
1.14786
1.14896
1.14793
1.14581
1.14303
1.13985
1.13763
1.13721
1.13762
1.139
1.14173
1.1461
1.15315
1.16169
1.17165
1.18269
1.19455
1.20301
1.21041
1.20881
1.2146
1.21768
1.22032
1.2216
1.22185
1.22164
1.22124
1.22096
1.22082
1.22073
1.22063
1.22048
1.2203
1.22018
1.22015
1.22022
1.22042
1.22077
1.22119
1.22156
1.22172
1.22173
1.22167
1.22153
1.22132
1.22106
1.22079
1.22051
1.22023
1.21999
1.21986
1.21981
1.21987
1.22007
1.22044
1.2209
1.22119
1.22127
1.22128
1.22128
1.22129
1.22132
1.22142
1.22159
1.2218
1.22192
1.22195
1.22192
1.22182
1.22164
1.22143
1.22129
1.22125
1.22125
1.22125
1.22125
1.22125
1.22125
1.22125
1.22125
1.22125
1.22125
1.22125
1.22125
1.22125
1.22125
1.22125
1.22125
1.22125
1.22125
1.22125
1.22125
1.22125
1.22125
1.22125
1.22125
1.22125
1.22125
1.22125
1.22125
1.22125
1.22125
1.22125
1.22125
1.22125
1.22125
1.22125
1.22125
1.22125
1.22125
1.22125
1.22125
1.22125
1.22125
1.22125
1.22125
1.22125
1.22125
1.23544
1.23515
1.23252
1.22749
1.22072
1.21252
1.20314
1.19446
1.18645
1.17922
1.17274
1.16681
1.16166
1.15742
1.15455
1.15271
1.15183
1.15198
1.1535
1.15611
1.15913
1.1627
1.16637
1.17097
1.17509
1.17794
1.17974
1.17993
1.17864
1.17676
1.17433
1.17183
1.17029
1.16976
1.17
1.17105
1.17357
1.17741
1.18307
1.18937
1.19588
1.20179
1.20797
1.21128
1.21405
1.21391
1.21644
1.21841
1.22049
1.22153
1.22174
1.22155
1.22119
1.22093
1.2208
1.22072
1.22062
1.22047
1.2203
1.22019
1.22017
1.22024
1.22045
1.2208
1.22121
1.22156
1.22171
1.22171
1.22164
1.22151
1.2213
1.22104
1.22077
1.2205
1.22022
1.21999
1.21987
1.21983
1.21989
1.22009
1.22046
1.22091
1.2212
1.22127
1.22128
1.22128
1.22129
1.22133
1.22142
1.2216
1.22181
1.22192
1.22194
1.22191
1.22181
1.22163
1.22142
1.22129
1.22125
1.22125
1.22125
1.22125
1.22125
1.22125
1.22125
1.22125
1.22125
1.22125
1.22125
1.22125
1.22125
1.22125
1.22125
1.22125
1.22125
1.22125
1.22125
1.22125
1.22125
1.22125
1.22125
1.22125
1.22125
1.22125
1.22125
1.22125
1.22125
1.22125
1.22125
1.22125
1.22125
1.22125
1.22125
1.22125
1.22125
1.22125
1.22125
1.22125
1.22125
1.22125
1.22125
1.22125
1.22125
1.22125
1.2352
1.23864
1.23948
1.2386
1.23645
1.23316
1.22877
1.22308
1.21711
1.21103
1.20523
1.19989
1.19492
1.19066
1.18727
1.18481
1.18346
1.18299
1.18329
1.18454
1.1866
1.18898
1.19175
1.1949
1.19797
1.20078
1.20267
1.20362
1.20329
1.20191
1.19984
1.19748
1.19538
1.19403
1.19328
1.19316
1.19372
1.19527
1.19747
1.20051
1.20384
1.20753
1.21045
1.2133
1.21492
1.21611
1.21635
1.21799
1.21934
1.22073
1.22146
1.22162
1.22144
1.22112
1.22089
1.22077
1.2207
1.22061
1.22047
1.22031
1.22021
1.22019
1.22027
1.22048
1.22083
1.22123
1.22156
1.2217
1.22169
1.22162
1.22148
1.22126
1.22101
1.22075
1.22048
1.22021
1.21999
1.21988
1.21984
1.2199
1.22011
1.22049
1.22093
1.22121
1.22127
1.22128
1.22128
1.2213
1.22134
1.22143
1.22161
1.22181
1.22192
1.22194
1.22191
1.22181
1.22162
1.22141
1.22129
1.22125
1.22125
1.22125
1.22125
1.22125
1.22125
1.22125
1.22125
1.22125
1.22125
1.22125
1.22125
1.22125
1.22125
1.22125
1.22125
1.22125
1.22125
1.22125
1.22125
1.22125
1.22125
1.22125
1.22125
1.22125
1.22125
1.22125
1.22125
1.22125
1.22125
1.22125
1.22125
1.22125
1.22125
1.22125
1.22125
1.22125
1.22125
1.22125
1.22125
1.22125
1.22125
1.22125
1.22125
1.22125
1.22125
1.23814
1.24154
1.24224
1.24143
1.23967
1.23744
1.23476
1.23144
1.22788
1.22377
1.21974
1.21583
1.21225
1.2093
1.20687
1.20506
1.20391
1.20345
1.20354
1.2045
1.20628
1.20806
1.20965
1.21111
1.21237
1.21359
1.21429
1.21438
1.21385
1.21296
1.21181
1.21035
1.20885
1.20764
1.20668
1.20625
1.20636
1.20702
1.20803
1.20942
1.21087
1.21263
1.21416
1.21555
1.21644
1.21708
1.2174
1.2187
1.21982
1.22092
1.22148
1.22155
1.22136
1.22107
1.22086
1.22075
1.22069
1.2206
1.22046
1.22031
1.22022
1.22021
1.2203
1.22052
1.22086
1.22126
1.22157
1.22168
1.22167
1.22159
1.22145
1.22123
1.22098
1.22072
1.22046
1.2202
1.21999
1.21988
1.21985
1.21992
1.22014
1.22052
1.22095
1.22121
1.22128
1.22129
1.22129
1.2213
1.22134
1.22144
1.22162
1.22182
1.22192
1.22194
1.2219
1.2218
1.22161
1.22141
1.22129
1.22125
1.22125
1.22125
1.22125
1.22125
1.22125
1.22125
1.22125
1.22125
1.22125
1.22125
1.22125
1.22125
1.22125
1.22125
1.22125
1.22125
1.22125
1.22125
1.22125
1.22125
1.22125
1.22125
1.22125
1.22125
1.22125
1.22125
1.22125
1.22125
1.22125
1.22125
1.22125
1.22125
1.22125
1.22125
1.22125
1.22125
1.22125
1.22125
1.22125
1.22125
1.22125
1.22125
1.22125
1.22125
1.22125
1.24121
1.24428
1.24477
1.24378
1.24175
1.23938
1.23694
1.23443
1.23191
1.22917
1.22643
1.22358
1.22076
1.21819
1.216
1.2144
1.2135
1.21326
1.21355
1.21456
1.21633
1.21811
1.21963
1.22077
1.22151
1.22185
1.22175
1.22107
1.2197
1.21799
1.21639
1.21488
1.21348
1.21239
1.21164
1.21139
1.21154
1.21196
1.21251
1.21313
1.21383
1.21463
1.21542
1.21625
1.21694
1.21752
1.21808
1.21927
1.22028
1.22113
1.22151
1.2215
1.22128
1.22101
1.22082
1.22073
1.22067
1.22058
1.22044
1.22031
1.22023
1.22024
1.22033
1.22056
1.2209
1.22129
1.22157
1.22167
1.22164
1.22156
1.22141
1.22119
1.22094
1.22069
1.22044
1.22018
1.21998
1.21989
1.21987
1.21994
1.22016
1.22055
1.22097
1.22122
1.22128
1.22129
1.22129
1.22131
1.22135
1.22145
1.22163
1.22183
1.22192
1.22193
1.2219
1.22179
1.2216
1.2214
1.22128
1.22125
1.22125
1.22125
1.22125
1.22125
1.22125
1.22125
1.22125
1.22125
1.22125
1.22125
1.22125
1.22125
1.22125
1.22125
1.22125
1.22125
1.22125
1.22125
1.22125
1.22125
1.22125
1.22125
1.22125
1.22125
1.22125
1.22125
1.22125
1.22125
1.22125
1.22125
1.22125
1.22125
1.22125
1.22125
1.22125
1.22125
1.22125
1.22125
1.22125
1.22125
1.22125
1.22125
1.22125
1.22125
1.22125
1.24376
1.24716
1.24796
1.24717
1.24514
1.24247
1.23971
1.23712
1.23467
1.23227
1.22978
1.22732
1.22486
1.22249
1.22035
1.21862
1.21738
1.21682
1.21692
1.21764
1.21895
1.2205
1.22204
1.22327
1.22407
1.22442
1.22436
1.22391
1.22298
1.22153
1.21958
1.21767
1.21608
1.21487
1.21409
1.2138
1.21377
1.21393
1.21427
1.21465
1.21508
1.21554
1.21608
1.21669
1.2173
1.21792
1.2187
1.21979
1.22063
1.22127
1.22152
1.22146
1.22122
1.22096
1.22078
1.2207
1.22064
1.22055
1.22043
1.22031
1.22025
1.22026
1.22037
1.2206
1.22095
1.22132
1.22157
1.22165
1.22162
1.22153
1.22137
1.22115
1.22091
1.22066
1.22041
1.22017
1.21998
1.2199
1.21988
1.21996
1.2202
1.22058
1.221
1.22123
1.22128
1.22129
1.2213
1.22131
1.22136
1.22146
1.22164
1.22183
1.22192
1.22193
1.22189
1.22178
1.22159
1.22139
1.22128
1.22125
1.22125
1.22125
1.22125
1.22125
1.22125
1.22125
1.22125
1.22125
1.22125
1.22125
1.22125
1.22125
1.22125
1.22125
1.22125
1.22125
1.22125
1.22125
1.22125
1.22125
1.22125
1.22125
1.22125
1.22125
1.22125
1.22125
1.22125
1.22125
1.22125
1.22125
1.22125
1.22125
1.22125
1.22125
1.22125
1.22125
1.22125
1.22125
1.22125
1.22125
1.22125
1.22125
1.22125
1.22125
1.22125
1.24433
1.2479
1.24897
1.24855
1.24703
1.24464
1.24202
1.23943
1.2369
1.2344
1.23192
1.22946
1.22706
1.22474
1.22265
1.22089
1.21957
1.21879
1.21849
1.21855
1.21896
1.21996
1.22124
1.22233
1.22308
1.22352
1.22362
1.22345
1.22296
1.22226
1.22127
1.21996
1.2186
1.21747
1.21667
1.21621
1.21598
1.21591
1.216
1.21612
1.21631
1.21658
1.21693
1.21738
1.21791
1.21851
1.21933
1.22026
1.22095
1.2214
1.22153
1.22141
1.22116
1.22091
1.22075
1.22067
1.22061
1.22053
1.22042
1.22031
1.22027
1.22029
1.22041
1.22065
1.221
1.22135
1.22157
1.22163
1.22159
1.2215
1.22133
1.22111
1.22087
1.22062
1.22038
1.22015
1.21997
1.2199
1.2199
1.21999
1.22023
1.22062
1.22103
1.22124
1.22129
1.2213
1.2213
1.22132
1.22137
1.22147
1.22166
1.22184
1.22192
1.22193
1.22189
1.22177
1.22157
1.22138
1.22128
1.22125
1.22125
1.22125
1.22125
1.22125
1.22125
1.22125
1.22125
1.22125
1.22125
1.22125
1.22125
1.22125
1.22125
1.22125
1.22125
1.22125
1.22125
1.22125
1.22125
1.22125
1.22125
1.22125
1.22125
1.22125
1.22125
1.22125
1.22125
1.22125
1.22125
1.22125
1.22125
1.22125
1.22125
1.22125
1.22125
1.22125
1.22125
1.22125
1.22125
1.22125
1.22125
1.22125
1.22125
1.22125
1.22125
1.24133
1.24494
1.24652
1.24682
1.24621
1.24467
1.24252
1.24018
1.23775
1.23528
1.2328
1.2304
1.22813
1.22602
1.22411
1.22244
1.22108
1.2201
1.21946
1.2192
1.21928
1.21972
1.22036
1.22098
1.22148
1.22182
1.22197
1.22197
1.22184
1.2217
1.22142
1.22111
1.22068
1.22012
1.21947
1.21887
1.21837
1.21803
1.21783
1.21771
1.21769
1.21782
1.21802
1.21836
1.21879
1.21929
1.21997
1.22068
1.2212
1.22147
1.22151
1.22136
1.2211
1.22086
1.22071
1.22064
1.22058
1.2205
1.2204
1.22032
1.22028
1.22032
1.22045
1.22071
1.22105
1.22138
1.22157
1.22161
1.22156
1.22146
1.22129
1.22106
1.22082
1.22059
1.22035
1.22013
1.21997
1.21991
1.21991
1.22002
1.22027
1.22066
1.22105
1.22125
1.22129
1.2213
1.22131
1.22132
1.22138
1.22149
1.22167
1.22185
1.22192
1.22192
1.22188
1.22175
1.22156
1.22137
1.22127
1.22125
1.22125
1.22125
1.22125
1.22125
1.22125
1.22125
1.22125
1.22125
1.22125
1.22125
1.22125
1.22125
1.22125
1.22125
1.22125
1.22125
1.22125
1.22125
1.22125
1.22125
1.22125
1.22125
1.22125
1.22125
1.22125
1.22125
1.22125
1.22125
1.22125
1.22125
1.22125
1.22125
1.22125
1.22125
1.22125
1.22125
1.22125
1.22125
1.22125
1.22125
1.22125
1.22125
1.22125
1.22125
1.22125
1.23662
1.24052
1.24272
1.2436
1.24364
1.2429
1.24131
1.23935
1.23724
1.23497
1.23264
1.23039
1.22829
1.22638
1.22468
1.22319
1.22193
1.22095
1.22024
1.21981
1.2196
1.21963
1.2199
1.22032
1.22066
1.22087
1.22096
1.221
1.22101
1.22111
1.22116
1.22123
1.22127
1.22114
1.22081
1.22039
1.21993
1.21951
1.21918
1.21895
1.21887
1.21894
1.21908
1.21934
1.21967
1.22004
1.22052
1.22105
1.22139
1.22152
1.22148
1.2213
1.22103
1.2208
1.22067
1.22061
1.22055
1.22048
1.22039
1.22032
1.22031
1.22035
1.2205
1.22077
1.2211
1.22141
1.22157
1.22159
1.22153
1.22142
1.22124
1.22101
1.22078
1.22055
1.22032
1.22011
1.21997
1.21992
1.21993
1.22005
1.22031
1.22071
1.22108
1.22126
1.22129
1.2213
1.22131
1.22133
1.22139
1.22151
1.22169
1.22186
1.22192
1.22192
1.22187
1.22174
1.22154
1.22136
1.22127
1.22125
1.22125
1.22125
1.22125
1.22125
1.22125
1.22125
1.22125
1.22125
1.22125
1.22125
1.22125
1.22125
1.22125
1.22125
1.22125
1.22125
1.22125
1.22125
1.22125
1.22125
1.22125
1.22125
1.22125
1.22125
1.22125
1.22125
1.22125
1.22125
1.22125
1.22125
1.22125
1.22125
1.22125
1.22125
1.22125
1.22125
1.22125
1.22125
1.22125
1.22125
1.22125
1.22125
1.22125
1.22125
1.22125
1.23058
1.23457
1.23715
1.23861
1.23919
1.23921
1.2386
1.23731
1.23568
1.23383
1.23183
1.22984
1.22799
1.2263
1.2248
1.2235
1.2224
1.22151
1.2208
1.22035
1.22005
1.21995
1.22006
1.22032
1.2206
1.22074
1.22077
1.22077
1.22076
1.22085
1.22099
1.22113
1.22121
1.22118
1.22104
1.2208
1.2205
1.22018
1.21992
1.21974
1.21968
1.21975
1.21989
1.22012
1.22039
1.22067
1.22102
1.22138
1.22152
1.22152
1.22141
1.2212
1.22094
1.22075
1.22063
1.22057
1.22052
1.22045
1.22038
1.22033
1.22033
1.22039
1.22056
1.22083
1.22116
1.22144
1.22156
1.22156
1.22149
1.22137
1.22118
1.22095
1.22073
1.22051
1.22029
1.22009
1.21997
1.21992
1.21995
1.22008
1.22037
1.22076
1.22112
1.22127
1.2213
1.22131
1.22132
1.22134
1.2214
1.22152
1.22171
1.22187
1.22192
1.22192
1.22186
1.22172
1.22152
1.22135
1.22127
1.22125
1.22125
1.22125
1.22125
1.22125
1.22125
1.22125
1.22125
1.22125
1.22125
1.22125
1.22125
1.22125
1.22125
1.22125
1.22125
1.22125
1.22125
1.22125
1.22125
1.22125
1.22125
1.22125
1.22125
1.22125
1.22125
1.22125
1.22125
1.22125
1.22125
1.22125
1.22125
1.22125
1.22125
1.22125
1.22125
1.22125
1.22125
1.22125
1.22125
1.22125
1.22125
1.22125
1.22125
1.22125
1.22125
1.22496
1.22906
1.23199
1.23394
1.23504
1.23543
1.23529
1.23458
1.23344
1.23211
1.2306
1.22901
1.22745
1.22603
1.22473
1.22358
1.2226
1.22178
1.22112
1.22069
1.22041
1.22034
1.22039
1.22056
1.22086
1.22104
1.22109
1.22108
1.22106
1.22108
1.2211
1.22113
1.22114
1.22111
1.22102
1.22089
1.22073
1.22056
1.22042
1.22034
1.22034
1.22042
1.22058
1.22079
1.22102
1.22124
1.22147
1.22159
1.22155
1.22145
1.2213
1.22108
1.22086
1.22069
1.22059
1.22053
1.22049
1.22043
1.22038
1.22035
1.22036
1.22044
1.22062
1.2209
1.22122
1.22146
1.22155
1.22153
1.22145
1.22132
1.22112
1.22089
1.22067
1.22046
1.22025
1.22007
1.21997
1.21993
1.21998
1.22012
1.22042
1.22082
1.22115
1.22128
1.2213
1.22131
1.22132
1.22135
1.22141
1.22155
1.22173
1.22188
1.22192
1.22191
1.22185
1.2217
1.2215
1.22133
1.22126
1.22125
1.22125
1.22125
1.22125
1.22125
1.22125
1.22125
1.22125
1.22125
1.22125
1.22125
1.22125
1.22125
1.22125
1.22125
1.22125
1.22125
1.22125
1.22125
1.22125
1.22125
1.22125
1.22125
1.22125
1.22125
1.22125
1.22125
1.22125
1.22125
1.22125
1.22125
1.22125
1.22125
1.22125
1.22125
1.22125
1.22125
1.22125
1.22125
1.22125
1.22125
1.22125
1.22125
1.22125
1.22125
1.22125
1.21999
1.22408
1.22713
1.22928
1.23068
1.23143
1.23169
1.23155
1.23101
1.23018
1.22918
1.22805
1.22684
1.22568
1.22458
1.22356
1.22265
1.22187
1.22123
1.22078
1.22046
1.22036
1.22033
1.2204
1.22063
1.22085
1.22104
1.22116
1.22125
1.22129
1.2213
1.22127
1.22124
1.22119
1.22113
1.22107
1.22101
1.22096
1.22093
1.22092
1.22096
1.22107
1.22122
1.22138
1.22153
1.22164
1.2217
1.22163
1.22147
1.22131
1.22114
1.22096
1.22077
1.22062
1.22054
1.2205
1.22046
1.22042
1.22038
1.22036
1.22039
1.22049
1.22069
1.22098
1.22128
1.22148
1.22153
1.22149
1.22141
1.22125
1.22105
1.22083
1.22062
1.22042
1.22022
1.22005
1.21997
1.21995
1.22
1.22017
1.22049
1.22088
1.22118
1.22129
1.22131
1.22132
1.22133
1.22136
1.22143
1.22157
1.22176
1.22189
1.22192
1.22191
1.22183
1.22168
1.22148
1.22132
1.22126
1.22125
1.22125
1.22125
1.22125
1.22125
1.22125
1.22125
1.22125
1.22125
1.22125
1.22125
1.22125
1.22125
1.22125
1.22125
1.22125
1.22125
1.22125
1.22125
1.22125
1.22125
1.22125
1.22125
1.22125
1.22125
1.22125
1.22125
1.22125
1.22125
1.22125
1.22125
1.22125
1.22125
1.22125
1.22125
1.22125
1.22125
1.22125
1.22125
1.22125
1.22125
1.22125
1.22125
1.22125
1.22125
1.22125
1.2159
1.21994
1.22304
1.22535
1.22698
1.22803
1.22858
1.22873
1.22859
1.22821
1.22763
1.22693
1.22609
1.22518
1.22426
1.22338
1.22255
1.22181
1.22117
1.22066
1.22028
1.22007
1.21995
1.21995
1.22006
1.22024
1.22047
1.22066
1.22082
1.22098
1.22112
1.22123
1.22128
1.22128
1.22125
1.22122
1.2212
1.2212
1.22123
1.22127
1.22135
1.22145
1.22157
1.22167
1.22174
1.22176
1.22169
1.22146
1.22124
1.22111
1.22099
1.22085
1.22069
1.22056
1.2205
1.22046
1.22044
1.22041
1.22039
1.22039
1.22043
1.22056
1.22077
1.22106
1.22134
1.22148
1.2215
1.22145
1.22135
1.22118
1.22098
1.22076
1.22056
1.22037
1.22018
1.22003
1.21997
1.21997
1.22004
1.22023
1.22056
1.22094
1.22121
1.2213
1.22131
1.22132
1.22133
1.22137
1.22145
1.2216
1.22178
1.22189
1.22192
1.2219
1.22182
1.22165
1.22145
1.22131
1.22126
1.22125
1.22125
1.22125
1.22125
1.22125
1.22125
1.22125
1.22125
1.22125
1.22125
1.22125
1.22125
1.22125
1.22125
1.22125
1.22125
1.22125
1.22125
1.22125
1.22125
1.22125
1.22125
1.22125
1.22125
1.22125
1.22125
1.22125
1.22125
1.22125
1.22125
1.22125
1.22125
1.22125
1.22125
1.22125
1.22125
1.22125
1.22125
1.22125
1.22125
1.22125
1.22125
1.22125
1.22125
1.22125
1.22125
1.21259
1.21657
1.21967
1.22202
1.22373
1.2249
1.22564
1.22604
1.22618
1.22615
1.22592
1.22552
1.22502
1.22439
1.22369
1.22296
1.22225
1.22159
1.22099
1.22048
1.22006
1.21975
1.21951
1.21937
1.21932
1.21935
1.21954
1.2198
1.22007
1.22032
1.22054
1.22071
1.22083
1.22092
1.22099
1.22105
1.2211
1.22114
1.2212
1.22128
1.22137
1.22148
1.22157
1.22161
1.22161
1.22157
1.22138
1.2211
1.22099
1.22093
1.22086
1.22074
1.2206
1.2205
1.22045
1.22043
1.22042
1.22041
1.2204
1.22041
1.22048
1.22063
1.22086
1.22114
1.22138
1.22148
1.22147
1.2214
1.22128
1.2211
1.2209
1.22069
1.2205
1.22032
1.22015
1.22002
1.21998
1.21999
1.22008
1.22029
1.22064
1.22101
1.22124
1.22131
1.22132
1.22133
1.22134
1.22138
1.22147
1.22163
1.22181
1.2219
1.22192
1.22189
1.2218
1.22163
1.22143
1.2213
1.22126
1.22125
1.22125
1.22125
1.22125
1.22125
1.22125
1.22125
1.22125
1.22125
1.22125
1.22125
1.22125
1.22125
1.22125
1.22125
1.22125
1.22125
1.22125
1.22125
1.22125
1.22125
1.22125
1.22125
1.22125
1.22125
1.22125
1.22125
1.22125
1.22125
1.22125
1.22125
1.22125
1.22125
1.22125
1.22125
1.22125
1.22125
1.22125
1.22125
1.22125
1.22125
1.22125
1.22125
1.22125
1.22125
1.22125
1.2098
1.2137
1.21681
1.2192
1.22099
1.22228
1.22315
1.2237
1.22399
1.22411
1.22406
1.22385
1.22355
1.22316
1.22269
1.22219
1.22166
1.22115
1.22067
1.22023
1.21982
1.21948
1.21917
1.21894
1.21878
1.2187
1.21875
1.21893
1.21916
1.21942
1.21967
1.2199
1.22008
1.22022
1.22033
1.22043
1.22053
1.22066
1.22079
1.2209
1.22101
1.22111
1.22116
1.22116
1.22112
1.22104
1.22087
1.22076
1.22079
1.22081
1.22076
1.22065
1.22052
1.22044
1.22041
1.22041
1.22041
1.22041
1.22042
1.22045
1.22054
1.22072
1.22096
1.22122
1.2214
1.22146
1.22142
1.22135
1.22121
1.22101
1.22081
1.22062
1.22044
1.22027
1.22011
1.22002
1.21999
1.22001
1.22013
1.22037
1.22073
1.22108
1.22127
1.22131
1.22133
1.22133
1.22135
1.2214
1.2215
1.22166
1.22183
1.2219
1.22191
1.22188
1.22177
1.22159
1.2214
1.22129
1.22125
1.22125
1.22125
1.22125
1.22125
1.22125
1.22125
1.22125
1.22125
1.22125
1.22125
1.22125
1.22125
1.22125
1.22125
1.22125
1.22125
1.22125
1.22125
1.22125
1.22125
1.22125
1.22125
1.22125
1.22125
1.22125
1.22125
1.22125
1.22125
1.22125
1.22125
1.22125
1.22125
1.22125
1.22125
1.22125
1.22125
1.22125
1.22125
1.22125
1.22125
1.22125
1.22125
1.22125
1.22125
1.22125
1.22125
1.2073
1.21099
1.21408
1.21655
1.21846
1.21987
1.22088
1.22156
1.22197
1.22219
1.22225
1.22218
1.222
1.22176
1.22148
1.22116
1.22082
1.22047
1.22014
1.21981
1.21948
1.21917
1.21889
1.21867
1.21853
1.21844
1.21844
1.21853
1.21867
1.21882
1.21899
1.21915
1.2193
1.21945
1.21959
1.21974
1.21989
1.22005
1.22019
1.22032
1.22044
1.22052
1.22056
1.22057
1.22054
1.22049
1.22047
1.22056
1.22068
1.22072
1.22068
1.22055
1.22044
1.22038
1.22037
1.22039
1.22042
1.22043
1.22045
1.22051
1.22062
1.22081
1.22106
1.22129
1.22141
1.22143
1.22137
1.22127
1.22111
1.22092
1.22072
1.22054
1.22038
1.22022
1.22008
1.22002
1.22
1.22005
1.22019
1.22046
1.22082
1.22114
1.22129
1.22132
1.22133
1.22134
1.22136
1.22142
1.22153
1.2217
1.22186
1.22191
1.22191
1.22187
1.22174
1.22156
1.22137
1.22128
1.22125
1.22125
1.22125
1.22125
1.22125
1.22125
1.22125
1.22125
1.22125
1.22125
1.22125
1.22125
1.22125
1.22125
1.22125
1.22125
1.22125
1.22125
1.22125
1.22125
1.22125
1.22125
1.22125
1.22125
1.22125
1.22125
1.22125
1.22125
1.22125
1.22125
1.22125
1.22125
1.22125
1.22125
1.22125
1.22125
1.22125
1.22125
1.22125
1.22125
1.22125
1.22125
1.22125
1.22125
1.22125
1.22125
1.22125
1.20536
1.20854
1.21141
1.21386
1.21588
1.21747
1.21867
1.21954
1.22013
1.2205
1.2207
1.22076
1.22073
1.22063
1.22048
1.22029
1.22007
1.21983
1.21958
1.21933
1.2191
1.21889
1.21871
1.21855
1.21845
1.21838
1.21836
1.21839
1.21845
1.21854
1.21864
1.21875
1.21886
1.21898
1.21912
1.21926
1.21941
1.21956
1.21971
1.21984
1.21994
1.22003
1.22009
1.22013
1.22016
1.22019
1.22031
1.22051
1.22064
1.22066
1.22058
1.22044
1.22036
1.22034
1.22036
1.2204
1.22044
1.22046
1.2205
1.22057
1.22071
1.22092
1.22115
1.22134
1.2214
1.22138
1.22131
1.22119
1.22101
1.22081
1.22063
1.22047
1.22032
1.22017
1.22007
1.22002
1.22002
1.22009
1.22026
1.22056
1.22092
1.2212
1.22131
1.22133
1.22134
1.22135
1.22138
1.22144
1.22156
1.22174
1.22188
1.22191
1.22191
1.22185
1.22171
1.22152
1.22135
1.22127
1.22125
1.22125
1.22125
1.22125
1.22125
1.22125
1.22125
1.22125
1.22125
1.22125
1.22125
1.22125
1.22125
1.22125
1.22125
1.22125
1.22125
1.22125
1.22125
1.22125
1.22125
1.22125
1.22125
1.22125
1.22125
1.22125
1.22125
1.22125
1.22125
1.22125
1.22125
1.22125
1.22125
1.22125
1.22125
1.22125
1.22125
1.22125
1.22125
1.22125
1.22125
1.22125
1.22125
1.22125
1.22125
1.22125
1.22125
1.20444
1.20696
1.20934
1.21155
1.21352
1.21519
1.21655
1.21761
1.2184
1.21896
1.21934
1.21958
1.21971
1.21975
1.21973
1.21966
1.21954
1.21939
1.21922
1.21904
1.21887
1.21871
1.21858
1.21848
1.21842
1.21839
1.2184
1.21842
1.21846
1.21852
1.21857
1.21864
1.21872
1.21882
1.21893
1.21906
1.2192
1.21933
1.21946
1.21958
1.21968
1.21978
1.21987
1.21996
1.22005
1.22015
1.22032
1.22052
1.2206
1.22056
1.22044
1.22033
1.22029
1.22031
1.22037
1.22043
1.22047
1.22051
1.22056
1.22065
1.22081
1.22103
1.22124
1.22135
1.22137
1.22132
1.22123
1.22108
1.22089
1.2207
1.22054
1.2204
1.22026
1.22013
1.22006
1.22003
1.22005
1.22015
1.22035
1.22068
1.22103
1.22125
1.22132
1.22134
1.22134
1.22136
1.22139
1.22147
1.22161
1.22178
1.22189
1.22191
1.2219
1.22182
1.22167
1.22147
1.22132
1.22126
1.22125
1.22125
1.22125
1.22125
1.22125
1.22125
1.22125
1.22125
1.22125
1.22125
1.22125
1.22125
1.22125
1.22125
1.22125
1.22125
1.22125
1.22125
1.22125
1.22125
1.22125
1.22125
1.22125
1.22125
1.22125
1.22125
1.22125
1.22125
1.22125
1.22125
1.22125
1.22125
1.22125
1.22125
1.22125
1.22125
1.22125
1.22125
1.22125
1.22125
1.22125
1.22125
1.22125
1.22125
1.22125
1.22125
1.22125
1.20443
1.2065
1.20845
1.21028
1.21197
1.2135
1.21486
1.216
1.21692
1.21763
1.21817
1.21855
1.21882
1.21898
1.21907
1.2191
1.21908
1.21902
1.21893
1.21881
1.2187
1.21859
1.21851
1.21846
1.21843
1.21842
1.21843
1.21845
1.21849
1.21853
1.21859
1.21866
1.21874
1.21884
1.21895
1.21906
1.21917
1.21929
1.2194
1.21951
1.21963
1.21974
1.21986
1.21998
1.2201
1.22021
1.22037
1.2205
1.22049
1.22041
1.22029
1.22024
1.22026
1.22033
1.22041
1.22048
1.22052
1.22056
1.22063
1.22075
1.22093
1.22113
1.22129
1.22134
1.22131
1.22125
1.22112
1.22095
1.22076
1.22059
1.22045
1.22033
1.22021
1.2201
1.22006
1.22005
1.22009
1.22022
1.22047
1.22081
1.22112
1.22129
1.22133
1.22135
1.22135
1.22137
1.22141
1.2215
1.22165
1.22182
1.2219
1.22191
1.22189
1.22179
1.22162
1.22143
1.2213
1.22126
1.22125
1.22125
1.22125
1.22125
1.22125
1.22125
1.22125
1.22125
1.22125
1.22125
1.22125
1.22125
1.22125
1.22125
1.22125
1.22125
1.22125
1.22125
1.22125
1.22125
1.22125
1.22125
1.22125
1.22125
1.22125
1.22125
1.22125
1.22125
1.22125
1.22125
1.22125
1.22125
1.22125
1.22125
1.22125
1.22125
1.22125
1.22125
1.22125
1.22125
1.22125
1.22125
1.22125
1.22125
1.22125
1.22125
1.22125
1.20525
1.20691
1.20854
1.21007
1.21148
1.21278
1.21396
1.21501
1.21592
1.21668
1.21729
1.21775
1.2181
1.21835
1.21853
1.21863
1.21869
1.21871
1.21871
1.21868
1.21863
1.21859
1.21855
1.21851
1.21848
1.21847
1.21848
1.21848
1.2185
1.21854
1.2186
1.21867
1.21876
1.21886
1.21896
1.21907
1.21918
1.21929
1.21941
1.21953
1.21966
1.21978
1.21991
1.22003
1.22015
1.22025
1.22034
1.22038
1.22033
1.22024
1.2202
1.22022
1.22029
1.2204
1.22048
1.22054
1.22058
1.22063
1.22072
1.22086
1.22105
1.22121
1.22129
1.22129
1.22124
1.22114
1.22099
1.2208
1.22063
1.22049
1.22037
1.22026
1.22016
1.22009
1.22006
1.22008
1.22015
1.22032
1.2206
1.22094
1.22121
1.22132
1.22135
1.22135
1.22136
1.22139
1.22144
1.22155
1.22171
1.22186
1.22191
1.22191
1.22187
1.22175
1.22156
1.22138
1.22128
1.22125
1.22125
1.22125
1.22125
1.22125
1.22125
1.22125
1.22125
1.22125
1.22125
1.22125
1.22125
1.22125
1.22125
1.22125
1.22125
1.22125
1.22125
1.22125
1.22125
1.22125
1.22125
1.22125
1.22125
1.22125
1.22125
1.22125
1.22125
1.22125
1.22125
1.22125
1.22125
1.22125
1.22125
1.22125
1.22125
1.22125
1.22125
1.22125
1.22125
1.22125
1.22125
1.22125
1.22125
1.22125
1.22125
1.22125
1.22125
1.20701
1.20814
1.20934
1.21055
1.21172
1.21282
1.21382
1.21471
1.21551
1.21621
1.2168
1.21728
1.21767
1.21796
1.21819
1.21835
1.21847
1.21856
1.21862
1.21866
1.21869
1.21869
1.21869
1.21867
1.21866
1.21863
1.21862
1.21861
1.21862
1.21864
1.21869
1.21875
1.21883
1.21892
1.21902
1.21912
1.21924
1.21936
1.21948
1.21961
1.21974
1.21986
1.21997
1.22007
1.22015
1.22021
1.22025
1.22024
1.2202
1.22017
1.2202
1.22028
1.2204
1.2205
1.22056
1.2206
1.22064
1.22071
1.22083
1.22099
1.22115
1.22124
1.22125
1.22122
1.22114
1.221
1.22083
1.22065
1.22051
1.2204
1.2203
1.22021
1.22013
1.22009
1.22008
1.22012
1.22023
1.22045
1.22076
1.22108
1.22128
1.22134
1.22136
1.22136
1.22138
1.2214
1.22147
1.2216
1.22177
1.22189
1.22191
1.22191
1.22184
1.2217
1.2215
1.22134
1.22127
1.22125
1.22125
1.22125
1.22125
1.22125
1.22125
1.22125
1.22125
1.22125
1.22125
1.22125
1.22125
1.22125
1.22125
1.22125
1.22125
1.22125
1.22125
1.22125
1.22125
1.22125
1.22125
1.22125
1.22125
1.22125
1.22125
1.22125
1.22125
1.22125
1.22125
1.22125
1.22125
1.22125
1.22125
1.22125
1.22125
1.22125
1.22125
1.22125
1.22125
1.22125
1.22125
1.22125
1.22125
1.22125
1.22125
1.22125
1.22125
1.2093
1.20995
1.21072
1.21155
1.2124
1.21325
1.21407
1.21483
1.21553
1.21613
1.21666
1.21712
1.21751
1.21782
1.21807
1.21827
1.21843
1.21855
1.21865
1.21874
1.2188
1.21885
1.21888
1.2189
1.2189
1.2189
1.21889
1.21889
1.21889
1.21891
1.21894
1.21899
1.21905
1.21912
1.21921
1.21931
1.21942
1.21954
1.21965
1.21976
1.21987
1.21996
1.22004
1.2201
1.22014
1.22017
1.22018
1.22017
1.22017
1.22021
1.2203
1.22042
1.22052
1.22059
1.22062
1.22066
1.22072
1.22082
1.22096
1.2211
1.22119
1.22121
1.22118
1.22112
1.221
1.22083
1.22065
1.22051
1.2204
1.22032
1.22024
1.22017
1.22012
1.22009
1.22011
1.22018
1.22034
1.22061
1.22093
1.2212
1.22132
1.22136
1.22137
1.22137
1.22139
1.22143
1.22152
1.22167
1.22183
1.2219
1.22192
1.22189
1.2218
1.22163
1.22144
1.2213
1.22126
1.22125
1.22125
1.22125
1.22125
1.22125
1.22125
1.22125
1.22125
1.22125
1.22125
1.22125
1.22125
1.22125
1.22125
1.22125
1.22125
1.22125
1.22125
1.22125
1.22125
1.22125
1.22125
1.22125
1.22125
1.22125
1.22125
1.22125
1.22125
1.22125
1.22125
1.22125
1.22125
1.22125
1.22125
1.22125
1.22125
1.22125
1.22125
1.22125
1.22125
1.22125
1.22125
1.22125
1.22125
1.22125
1.22125
1.22125
1.22125
1.21168
1.21187
1.21226
1.21277
1.21334
1.21393
1.21454
1.21513
1.2157
1.21623
1.2167
1.21712
1.21748
1.21779
1.21805
1.21826
1.21844
1.21858
1.2187
1.2188
1.21888
1.21895
1.219
1.21905
1.21909
1.21912
1.21915
1.21918
1.21921
1.21925
1.21929
1.21934
1.2194
1.21947
1.21954
1.21963
1.21972
1.2198
1.21988
1.21996
1.22002
1.22007
1.22012
1.22015
1.22017
1.22019
1.2202
1.22022
1.22026
1.22036
1.22047
1.22056
1.22062
1.22066
1.22069
1.22075
1.22084
1.22095
1.22106
1.22113
1.22115
1.22113
1.22108
1.22097
1.22081
1.22063
1.22048
1.22038
1.22031
1.22025
1.22019
1.22014
1.22011
1.22012
1.22016
1.22028
1.2205
1.22079
1.22109
1.22129
1.22135
1.22137
1.22138
1.22139
1.22141
1.22147
1.22158
1.22174
1.22188
1.22192
1.22192
1.22186
1.22174
1.22155
1.22138
1.22128
1.22125
1.22125
1.22125
1.22125
1.22125
1.22125
1.22125
1.22125
1.22125
1.22125
1.22125
1.22125
1.22125
1.22125
1.22125
1.22125
1.22125
1.22125
1.22125
1.22125
1.22125
1.22125
1.22125
1.22125
1.22125
1.22125
1.22125
1.22125
1.22125
1.22125
1.22125
1.22125
1.22125
1.22125
1.22125
1.22125
1.22125
1.22125
1.22125
1.22125
1.22125
1.22125
1.22125
1.22125
1.22125
1.22125
1.22125
1.22125
1.22125
1.21371
1.21364
1.21371
1.21394
1.21427
1.21465
1.21506
1.2155
1.21593
1.21636
1.21676
1.21713
1.21747
1.21776
1.21802
1.21824
1.21842
1.21857
1.2187
1.21881
1.2189
1.21898
1.21906
1.21912
1.21919
1.21925
1.21932
1.21938
1.21944
1.21951