/*--------------------------------*- C++ -*----------------------------------*\
| =========                 |                                                 |
| \\      /  F ield         | OpenFOAM: The Open Source CFD Toolbox           |
|  \\    /   O peration     | Version:  2406                                  |
|   \\  /    A nd           | Website:  www.openfoam.com                      |
|    \\/     M anipulation  |                                                 |
\*---------------------------------------------------------------------------*/
FoamFile
{
    version     2.0;
    format      ascii;
    arch        "LSB;label=32;scalar=64";
    class       volScalarField;
    location    "0.095";
    object      T;
}
// * * * * * * * * * * * * * * * * * * * * * * * * * * * * * * * * * * * * * //

dimensions      [0 0 0 1 0 0 0];

internalField   nonuniform List<scalar> 
13948
(
300.988
295.16
293.353
293.046
293.03
293.005
292.98
292.962
292.956
292.959
292.962
292.956
292.935
292.909
292.892
292.886
292.892
292.913
292.948
292.992
293.031
293.051
293.053
293.048
293.036
293.015
292.989
292.961
292.933
292.904
292.878
292.863
292.857
292.862
292.88
292.917
292.962
292.993
293
293.001
293.001
293.002
293.005
293.014
293.031
293.052
293.065
293.068
293.066
293.057
293.039
293.018
293.004
293
293
293
293
293
293
293
293
293
293
293
293
293
293
293
293
293
293
293
293
293
293
293
293
293
293
293
293
293
293
293
293
293
293
293
293
293
293
293
293
293
293
293
293
293
293
308.664
299.716
294.985
293.392
293.054
293.025
293
292.978
292.96
292.953
292.956
292.959
292.953
292.934
292.91
292.894
292.889
292.895
292.915
292.95
292.992
293.03
293.049
293.051
293.045
293.032
293.012
292.987
292.959
292.932
292.904
292.879
292.864
292.859
292.864
292.882
292.919
292.964
292.993
293.001
293.002
293.002
293.003
293.006
293.015
293.031
293.052
293.065
293.067
293.065
293.056
293.038
293.018
293.004
293
293
293
293
293
293
293
293
293
293
293
293
293
293
293
293
293
293
293
293
293
293
293
293
293
293
293
293
293
293
293
293
293
293
293
293
293
293
293
293
293
293
293
293
293
293
321.555
321.249
320.52
319.363
317.435
314.542
310.609
306.1
301.606
298.745
295.796
294.29
293.321
293.07
293.035
293.008
292.982
292.963
292.955
292.956
292.958
292.951
292.933
292.911
292.896
292.891
292.898
292.918
292.952
292.993
293.03
293.047
293.049
293.042
293.03
293.01
292.984
292.958
292.93
292.903
292.879
292.865
292.86
292.865
292.884
292.92
292.965
292.994
293.001
293.002
293.002
293.003
293.006
293.015
293.032
293.053
293.065
293.067
293.065
293.055
293.038
293.017
293.004
293
293
293
293
293
293
293
293
293
293
293
293
293
293
293
293
293
293
293
293
293
293
293
293
293
293
293
293
293
293
293
293
293
293
293
293
293
293
293
293
293
293
293
293
293
293
318.946
318.558
318.138
317.586
316.796
315.907
315.217
314.931
314.894
315.055
315.352
315.633
315.955
316.216
316.47
316.767
317.006
317.027
316.926
316.374
315.779
315.067
314.161
313.335
312.769
312.372
312.032
311.828
311.675
311.443
311.175
310.932
310.667
310.323
309.763
308.783
307.456
305.608
303.243
300.501
297.837
295.604
294.661
293.857
293.651
293.203
293.055
293.037
293.017
292.988
292.965
292.955
292.954
292.955
292.948
292.931
292.911
292.897
292.894
292.9
292.92
292.954
292.995
293.03
293.046
293.046
293.04
293.027
293.007
292.982
292.956
292.929
292.902
292.879
292.866
292.862
292.867
292.886
292.922
292.966
292.994
293.001
293.002
293.002
293.004
293.007
293.016
293.033
293.053
293.065
293.067
293.064
293.055
293.037
293.017
293.004
293
293
293
293
293
293
293
293
293
293
293
293
293
293
293
293
293
293
293
293
293
293
293
293
293
293
293
293
293
293
293
293
293
293
293
293
293
293
293
293
293
293
293
293
293
293
315.044
313.989
312.874
311.753
310.677
309.6
308.451
307.425
306.632
306.168
305.997
305.987
306.118
306.323
306.596
306.895
307.162
307.413
307.623
307.692
307.561
307.21
306.578
305.879
305.19
304.603
304.228
303.9
303.589
303.351
303.065
302.721
302.41
302.12
301.82
301.45
300.952
300.209
299.28
298.102
296.76
295.369
294.283
293.45
293.175
292.991
293.08
293.024
293.034
293.045
293.03
292.998
292.971
292.958
292.954
292.953
292.945
292.929
292.91
292.899
292.896
292.903
292.923
292.957
292.996
293.03
293.044
293.044
293.038
293.025
293.004
292.98
292.954
292.928
292.901
292.879
292.867
292.863
292.869
292.888
292.924
292.967
292.995
293.002
293.003
293.003
293.004
293.007
293.017
293.033
293.053
293.064
293.066
293.064
293.054
293.036
293.016
293.004
293
293
293
293
293
293
293
293
293
293
293
293
293
293
293
293
293
293
293
293
293
293
293
293
293
293
293
293
293
293
293
293
293
293
293
293
293
293
293
293
293
293
293
293
293
293
312.272
311.201
310.049
308.763
307.395
306.007
304.614
303.228
301.997
300.972
300.215
299.723
299.432
299.329
299.36
299.497
299.742
300.011
300.268
300.489
300.584
300.522
300.329
299.996
299.57
299.19
298.885
298.663
298.437
298.201
297.955
297.674
297.386
297.14
296.901
296.66
296.397
296.076
295.63
295.104
294.509
293.946
293.412
293.062
292.835
292.784
292.743
292.862
292.939
293.011
293.042
293.033
293.003
292.975
292.959
292.953
292.95
292.942
292.927
292.91
292.9
292.898
292.906
292.926
292.96
292.998
293.03
293.043
293.042
293.035
293.022
293.001
292.977
292.951
292.926
292.9
292.879
292.868
292.864
292.87
292.89
292.927
292.969
292.996
293.002
293.003
293.003
293.004
293.008
293.017
293.034
293.054
293.064
293.066
293.063
293.053
293.035
293.016
293.003
293
293
293
293
293
293
293
293
293
293
293
293
293
293
293
293
293
293
293
293
293
293
293
293
293
293
293
293
293
293
293
293
293
293
293
293
293
293
293
293
293
293
293
293
293
293
308.356
307.499
306.57
305.49
304.259
302.943
301.58
300.215
298.959
297.831
296.925
296.243
295.776
295.515
295.425
295.458
295.573
295.731
295.902
296.101
296.26
296.296
296.231
296.074
295.858
295.678
295.527
295.382
295.23
295.096
294.966
294.81
294.641
294.48
294.31
294.144
293.986
293.818
293.605
293.375
293.132
292.939
292.788
292.703
292.657
292.663
292.671
292.787
292.898
292.996
293.038
293.034
293.007
292.977
292.959
292.952
292.947
292.939
292.925
292.91
292.901
292.9
292.909
292.93
292.963
293.001
293.03
293.041
293.04
293.033
293.019
292.998
292.974
292.949
292.924
292.899
292.878
292.868
292.865
292.872
292.893
292.929
292.971
292.996
293.002
293.003
293.003
293.005
293.009
293.018
293.035
293.055
293.064
293.066
293.063
293.053
293.035
293.015
293.003
293
293
293
293
293
293
293
293
293
293
293
293
293
293
293
293
293
293
293
293
293
293
293
293
293
293
293
293
293
293
293
293
293
293
293
293
293
293
293
293
293
293
293
293
293
293
304.224
303.71
303.139
302.428
301.538
300.513
299.399
298.254
297.156
296.15
295.301
294.613
294.09
293.738
293.545
293.493
293.532
293.621
293.747
293.924
294.129
294.287
294.376
294.392
294.355
294.291
294.198
294.061
293.879
293.691
293.538
293.396
293.268
293.161
293.061
292.983
292.924
292.869
292.802
292.727
292.659
292.607
292.578
292.577
292.585
292.614
292.663
292.791
292.906
292.997
293.034
293.03
293.006
292.977
292.959
292.95
292.944
292.936
292.923
292.91
292.902
292.903
292.912
292.934
292.967
293.003
293.031
293.04
293.038
293.03
293.016
292.995
292.97
292.946
292.922
292.897
292.878
292.869
292.867
292.874
292.895
292.932
292.973
292.997
293.003
293.004
293.004
293.005
293.009
293.019
293.036
293.055
293.064
293.066
293.062
293.052
293.034
293.014
293.003
293
293
293
293
293
293
293
293
293
293
293
293
293
293
293
293
293
293
293
293
293
293
293
293
293
293
293
293
293
293
293
293
293
293
293
293
293
293
293
293
293
293
293
293
293
293
300.502
300.352
300.112
299.748
299.212
298.527
297.737
296.891
296.044
295.246
294.535
293.946
293.483
293.156
292.941
292.818
292.772
292.786
292.85
292.972
293.137
293.308
293.459
293.565
293.619
293.63
293.605
293.543
293.446
293.308
293.123
292.957
292.824
292.718
292.638
292.589
292.557
292.539
292.528
292.516
292.508
292.505
292.51
292.532
292.568
292.619
292.699
292.825
292.926
293
293.03
293.026
293.003
292.976
292.957
292.948
292.941
292.933
292.921
292.91
292.904
292.905
292.915
292.938
292.971
293.006
293.031
293.038
293.035
293.027
293.012
292.991
292.967
292.943
292.919
292.896
292.877
292.87
292.868
292.876
292.898
292.936
292.976
292.998
293.003
293.004
293.004
293.006
293.01
293.02
293.038
293.056
293.064
293.065
293.062
293.051
293.032
293.013
293.003
293
293
293
293
293
293
293
293
293
293
293
293
293
293
293
293
293
293
293
293
293
293
293
293
293
293
293
293
293
293
293
293
293
293
293
293
293
293
293
293
293
293
293
293
293
293
297.496
297.574
297.56
297.457
297.224
296.866
296.402
295.864
295.287
294.712
294.179
293.717
293.347
293.058
292.845
292.699
292.617
292.599
292.623
292.669
292.74
292.855
292.986
293.095
293.171
293.217
293.23
293.217
293.178
293.12
293.035
292.924
292.806
292.702
292.624
292.576
292.547
292.527
292.515
292.507
292.508
292.517
292.534
292.567
292.617
292.68
292.773
292.877
292.956
293.008
293.027
293.02
292.997
292.971
292.954
292.945
292.939
292.93
292.92
292.91
292.905
292.908
292.919
292.943
292.976
293.009
293.031
293.037
293.033
293.024
293.008
292.986
292.963
292.94
292.916
292.894
292.877
292.87
292.87
292.878
292.902
292.939
292.978
292.999
293.003
293.004
293.005
293.006
293.011
293.021
293.039
293.057
293.064
293.065
293.061
293.05
293.031
293.012
293.002
293
293
293
293
293
293
293
293
293
293
293
293
293
293
293
293
293
293
293
293
293
293
293
293
293
293
293
293
293
293
293
293
293
293
293
293
293
293
293
293
293
293
293
293
293
293
295.291
295.546
295.689
295.742
295.712
295.579
295.342
295.04
294.694
294.325
293.962
293.636
293.364
293.129
292.939
292.793
292.692
292.636
292.619
292.629
292.665
292.733
292.814
292.888
292.949
292.991
293.01
293.012
293.001
292.991
292.975
292.952
292.913
292.86
292.797
292.739
292.69
292.65
292.623
292.606
292.603
292.617
292.639
292.676
292.724
292.78
292.853
292.929
292.985
293.016
293.023
293.013
292.989
292.966
292.95
292.942
292.936
292.928
292.918
292.91
292.907
292.911
292.923
292.948
292.981
293.013
293.031
293.035
293.03
293.02
293.003
292.982
292.959
292.936
292.914
292.892
292.877
292.871
292.871
292.881
292.906
292.944
292.981
293
293.004
293.005
293.005
293.007
293.012
293.023
293.041
293.058
293.064
293.065
293.06
293.048
293.03
293.011
293.002
293
293
293
293
293
293
293
293
293
293
293
293
293
293
293
293
293
293
293
293
293
293
293
293
293
293
293
293
293
293
293
293
293
293
293
293
293
293
293
293
293
293
293
293
293
293
293.975
294.357
294.603
294.739
294.784
294.745
294.63
294.465
294.27
294.049
293.817
293.596
293.399
293.227
293.08
292.954
292.852
292.775
292.723
292.703
292.706
292.73
292.776
292.83
292.875
292.903
292.918
292.923
292.926
292.936
292.941
292.955
292.964
292.954
292.925
292.884
292.838
292.794
292.76
292.739
292.733
292.744
292.765
292.796
292.833
292.872
292.92
292.974
293.009
293.023
293.022
293.006
292.98
292.959
292.946
292.939
292.933
292.926
292.917
292.911
292.909
292.914
292.928
292.954
292.986
293.016
293.031
293.032
293.027
293.016
292.999
292.977
292.954
292.932
292.91
292.89
292.877
292.871
292.873
292.884
292.91
292.948
292.984
293.001
293.004
293.005
293.006
293.008
293.013
293.024
293.042
293.059
293.064
293.064
293.059
293.047
293.028
293.01
293.002
293
293
293
293
293
293
293
293
293
293
293
293
293
293
293
293
293
293
293
293
293
293
293
293
293
293
293
293
293
293
293
293
293
293
293
293
293
293
293
293
293
293
293
293
293
293
293.2
293.619
293.907
294.092
294.198
294.238
294.216
294.138
294.025
293.89
293.739
293.586
293.443
293.314
293.199
293.096
293.006
292.931
292.871
292.835
292.817
292.816
292.832
292.864
292.896
292.913
292.919
292.92
292.92
292.93
292.944
292.958
292.968
292.967
292.956
292.935
292.905
292.875
292.851
292.836
292.833
292.843
292.862
292.887
292.916
292.945
292.979
293.014
293.026
293.025
293.016
292.995
292.971
292.952
292.941
292.935
292.93
292.923
292.916
292.912
292.911
292.917
292.934
292.96
292.992
293.018
293.03
293.03
293.023
293.011
292.993
292.971
292.95
292.928
292.907
292.888
292.877
292.872
292.875
292.888
292.915
292.953
292.987
293.002
293.005
293.005
293.006
293.008
293.014
293.026
293.044
293.06
293.064
293.064
293.058
293.045
293.026
293.009
293.001
293
293
293
293
293
293
293
293
293
293
293
293
293
293
293
293
293
293
293
293
293
293
293
293
293
293
293
293
293
293
293
293
293
293
293
293
293
293
293
293
293
293
293
293
293
293
292.806
293.226
293.533
293.746
293.882
293.956
293.973
293.938
293.872
293.791
293.694
293.588
293.48
293.378
293.279
293.187
293.103
293.031
292.972
292.932
292.906
292.9
292.904
292.921
292.95
292.967
292.974
292.975
292.974
292.975
292.978
292.981
292.981
292.977
292.97
292.959
292.944
292.928
292.916
292.91
292.912
292.922
292.939
292.961
292.985
293.006
293.028
293.038
293.033
293.022
293.005
292.984
292.962
292.946
292.936
292.931
292.927
292.921
292.916
292.913
292.914
292.922
292.94
292.967
292.997
293.021
293.029
293.027
293.019
293.006
292.987
292.966
292.944
292.924
292.904
292.886
292.877
292.873
292.877
292.891
292.92
292.959
292.99
293.003
293.005
293.006
293.007
293.009
293.015
293.028
293.046
293.06
293.064
293.063
293.057
293.043
293.024
293.008
293.001
293
293
293
293
293
293
293
293
293
293
293
293
293
293
293
293
293
293
293
293
293
293
293
293
293
293
293
293
293
293
293
293
293
293
293
293
293
293
293
293
293
293
293
293
293
293
292.57
292.97
293.269
293.482
293.625
293.714
293.765
293.777
293.753
293.708
293.648
293.577
293.494
293.408
293.319
293.231
293.147
293.073
293.01
292.964
292.932
292.922
292.919
292.926
292.948
292.97
292.988
293.001
293.009
293.014
293.013
293.01
293.006
293.001
292.995
292.989
292.983
292.979
292.976
292.976
292.981
292.991
293.006
293.023
293.037
293.048
293.053
293.044
293.026
293.009
292.991
292.972
292.953
292.94
292.932
292.928
292.924
292.92
292.916
292.915
292.917
292.927
292.947
292.974
293.003
293.022
293.027
293.023
293.015
293
292.981
292.959
292.939
292.92
292.9
292.884
292.877
292.875
292.88
292.896
292.926
292.964
292.993
293.004
293.006
293.006
293.007
293.01
293.017
293.031
293.049
293.061
293.064
293.063
293.056
293.041
293.022
293.007
293.001
293
293
293
293
293
293
293
293
293
293
293
293
293
293
293
293
293
293
293
293
293
293
293
293
293
293
293
293
293
293
293
293
293
293
293
293
293
293
293
293
293
293
293
293
293
293
292.386
292.768
293.06
293.276
293.43
293.532
293.596
293.629
293.632
293.612
293.576
293.531
293.471
293.398
293.318
293.235
293.155
293.08
293.015
292.963
292.925
292.904
292.893
292.893
292.905
292.922
292.944
292.961
292.976
292.99
293.002
293.012
293.016
293.015
293.012
293.008
293.007
293.007
293.009
293.014
293.02
293.03
293.042
293.051
293.057
293.059
293.051
293.027
293.004
292.989
292.976
292.961
292.946
292.934
292.927
292.924
292.922
292.919
292.917
292.917
292.921
292.933
292.954
292.982
293.008
293.022
293.024
293.019
293.01
292.994
292.973
292.953
292.934
292.915
292.897
292.883
292.877
292.876
292.883
292.901
292.933
292.97
292.996
293.005
293.006
293.007
293.008
293.011
293.019
293.033
293.051
293.062
293.064
293.062
293.054
293.039
293.02
293.006
293.001
293
293
293
293
293
293
293
293
293
293
293
293
293
293
293
293
293
293
293
293
293
293
293
293
293
293
293
293
293
293
293
293
293
293
293
293
293
293
293
293
293
293
293
293
293
293
292.184
292.559
292.849
293.066
293.224
293.333
293.404
293.448
293.471
293.474
293.458
293.426
293.385
293.329
293.264
293.195
293.125
293.059
292.999
292.948
292.904
292.872
292.848
292.833
292.828
292.83
292.849
292.874
292.9
292.924
292.945
292.961
292.972
292.98
292.986
292.992
292.997
293.001
293.007
293.014
293.022
293.031
293.039
293.043
293.043
293.038
293.018
292.99
292.977
292.971
292.963
292.952
292.938
292.928
292.923
292.921
292.92
292.919
292.918
292.92
292.926
292.94
292.963
292.99
293.012
293.022
293.021
293.015
293.003
292.986
292.966
292.946
292.928
292.91
292.894
292.882
292.877
292.878
292.887
292.908
292.941
292.977
292.999
293.005
293.007
293.007
293.009
293.012
293.021
293.036
293.053
293.062
293.064
293.061
293.052
293.036
293.017
293.004
293
293
293
293
293
293
293
293
293
293
293
293
293
293
293
293
293
293
293
293
293
293
293
293
293
293
293
293
293
293
293
293
293
293
293
293
293
293
293
293
293
293
293
293
293
293
293
291.943
292.317
292.612
292.837
293.005
293.125
293.206
293.258
293.286
293.297
293.292
293.271
293.242
293.202
293.156
293.106
293.054
293.004
292.957
292.913
292.874
292.839
292.808
292.785
292.769
292.762
292.766
292.784
292.806
292.831
292.856
292.878
292.895
292.909
292.92
292.929
292.939
292.951
292.963
292.974
292.984
292.993
292.997
292.996
292.991
292.983
292.966
292.955
292.957
292.958
292.954
292.943
292.93
292.922
292.919
292.919
292.919
292.92
292.92
292.923
292.932
292.948
292.972
292.997
293.015
293.02
293.017
293.009
292.996
292.977
292.957
292.939
292.922
292.905
292.89
292.882
292.878
292.881
292.892
292.915
292.949
292.983
293.002
293.006
293.007
293.008
293.01
293.014
293.024
293.039
293.056
293.063
293.064
293.06
293.05
293.033
293.014
293.003
293
293
293
293
293
293
293
293
293
293
293
293
293
293
293
293
293
293
293
293
293
293
293
293
293
293
293
293
293
293
293
293
293
293
293
293
293
293
293
293
293
293
293
293
293
293
293
291.684
292.042
292.34
292.578
292.761
292.895
292.991
293.054
293.092
293.11
293.114
293.104
293.084
293.059
293.029
292.997
292.963
292.929
292.897
292.865
292.834
292.803
292.776
292.755
292.741
292.733
292.733
292.742
292.755
292.77
292.786
292.801
292.816
292.831
292.845
292.859
292.874
292.888
292.902
292.915
292.925
292.933
292.937
292.937
292.933
292.929
292.926
292.935
292.946
292.95
292.945
292.933
292.922
292.917
292.916
292.918
292.92
292.921
292.923
292.929
292.939
292.958
292.981
293.004
293.016
293.017
293.012
293.002
292.987
292.968
292.949
292.932
292.916
292.901
292.888
292.881
292.88
292.884
292.898
292.924
292.959
292.989
293.004
293.007
293.008
293.009
293.011
293.016
293.026
293.043
293.058
293.063
293.063
293.059
293.047
293.029
293.012
293.002
293
293
293
293
293
293
293
293
293
293
293
293
293
293
293
293
293
293
293
293
293
293
293
293
293
293
293
293
293
293
293
293
293
293
293
293
293
293
293
293
293
293
293
293
293
293
293
291.475
291.785
292.064
292.302
292.498
292.651
292.767
292.849
292.905
292.939
292.955
292.959
292.954
292.944
292.928
292.909
292.888
292.865
292.84
292.817
292.794
292.774
292.756
292.742
292.732
292.725
292.724
292.726
292.733
292.741
292.751
292.761
292.772
292.784
292.797
292.811
292.826
292.84
292.854
292.866
292.876
292.884
292.89
292.893
292.896
292.899
292.91
292.93
292.942
292.943
292.936
292.923
292.914
292.912
292.914
292.918
292.922
292.924
292.928
292.935
292.948
292.968
292.991
293.008
293.014
293.012
293.006
292.994
292.977
292.958
292.94
292.925
292.91
292.896
292.886
292.882
292.882
292.888
292.905
292.933
292.968
292.995
293.006
293.008
293.008
293.009
293.012
293.018
293.03
293.047
293.06
293.063
293.063
293.057
293.044
293.025
293.009
293.001
293
293
293
293
293
293
293
293
293
293
293
293
293
293
293
293
293
293
293
293
293
293
293
293
293
293
293
293
293
293
293
293
293
293
293
293
293
293
293
293
293
293
293
293
293
293
293
291.376
291.621
291.853
292.067
292.259
292.421
292.552
292.653
292.729
292.783
292.819
292.841
292.852
292.856
292.854
292.847
292.836
292.822
292.805
292.788
292.772
292.757
292.744
292.734
292.729
292.726
292.727
292.729
292.733
292.738
292.744
292.75
292.758
292.768
292.779
292.791
292.804
292.817
292.829
292.84
292.85
292.86
292.868
292.877
292.886
292.895
292.911
292.93
292.938
292.934
292.922
292.911
292.908
292.91
292.915
292.921
292.925
292.929
292.933
292.943
292.958
292.978
292.999
293.01
293.011
293.007
292.998
292.983
292.965
292.947
292.931
292.918
292.905
292.892
292.885
292.882
292.884
292.894
292.914
292.945
292.978
293
293.007
293.008
293.009
293.01
293.013
293.021
293.034
293.051
293.061
293.064
293.062
293.055
293.04
293.021
293.007
293.001
293
293
293
293
293
293
293
293
293
293
293
293
293
293
293
293
293
293
293
293
293
293
293
293
293
293
293
293
293
293
293
293
293
293
293
293
293
293
293
293
293
293
293
293
293
293
293
291.373
291.574
291.763
291.941
292.104
292.253
292.384
292.494
292.583
292.651
292.703
292.74
292.766
292.782
292.79
292.793
292.792
292.786
292.778
292.767
292.755
292.745
292.737
292.732
292.729
292.729
292.73
292.732
292.736
292.74
292.745
292.752
292.76
292.769
292.78
292.791
292.801
292.812
292.823
292.833
292.844
292.856
292.867
292.878
292.89
292.901
292.916
292.928
292.928
292.919
292.908
292.903
292.905
292.911
292.919
292.926
292.93
292.934
292.94
292.952
292.969
292.989
293.003
293.008
293.006
292.999
292.988
292.971
292.953
292.937
292.923
292.911
292.899
292.889
292.885
292.884
292.888
292.901
292.925
292.957
292.988
293.004
293.008
293.009
293.01
293.011
293.015
293.024
293.039
293.055
293.062
293.064
293.061
293.052
293.035
293.017
293.004
293
293
293
293
293
293
293
293
293
293
293
293
293
293
293
293
293
293
293
293
293
293
293
293
293
293
293
293
293
293
293
293
293
293
293
293
293
293
293
293
293
293
293
293
293
293
293
293
291.454
291.615
291.772
291.921
292.057
292.182
292.297
292.398
292.486
292.559
292.618
292.663
292.697
292.722
292.738
292.749
292.755
292.757
292.757
292.754
292.749
292.745
292.741
292.738
292.735
292.734
292.734
292.735
292.737
292.741
292.746
292.753
292.762
292.771
292.781
292.791
292.802
292.813
292.824
292.835
292.847
292.859
292.871
292.883
292.894
292.904
292.913
292.917
292.912
292.903
292.899
292.901
292.908
292.918
292.926
292.932
292.935
292.94
292.949
292.963
292.981
292.996
293.004
293.004
292.999
292.99
292.975
292.957
292.94
292.927
292.915
292.905
292.895
292.888
292.885
292.887
292.894
292.91
292.938
292.97
292.996
293.007
293.009
293.01
293.011
293.013
293.018
293.028
293.044
293.058
293.063
293.064
293.059
293.048
293.03
293.013
293.003
293
293
293
293
293
293
293
293
293
293
293
293
293
293
293
293
293
293
293
293
293
293
293
293
293
293
293
293
293
293
293
293
293
293
293
293
293
293
293
293
293
293
293
293
293
293
293
293
291.625
291.735
291.851
291.967
292.081
292.187
292.284
292.37
292.447
292.515
292.572
292.619
292.656
292.685
292.706
292.722
292.734
292.742
292.748
292.752
292.755
292.755
292.755
292.753
292.752
292.75
292.748
292.747
292.748
292.75
292.754
292.76
292.768
292.776
292.786
292.796
292.807
292.819
292.831
292.843
292.855
292.867
292.878
292.887
292.894
292.901
292.905
292.903
292.899
292.896
292.899
292.907
292.918
292.928
292.934
292.937
292.941
292.948
292.959
292.975
292.99
292.999
293
292.997
292.989
292.976
292.959
292.942
292.928
292.918
292.909
292.9
292.892
292.888
292.887
292.891
292.902
292.923
292.953
292.983
293.002
293.009
293.01
293.011
293.012
293.015
293.021
293.034
293.05
293.061
293.064
293.063
293.057
293.043
293.024
293.008
293.001
293
293
293
293
293
293
293
293
293
293
293
293
293
293
293
293
293
293
293
293
293
293
293
293
293
293
293
293
293
293
293
293
293
293
293
293
293
293
293
293
293
293
293
293
293
293
293
293
291.847
291.911
291.985
292.065
292.148
292.23
292.309
292.382
292.449
292.508
292.559
292.603
292.64
292.671
292.695
292.714
292.729
292.741
292.751
292.759
292.765
292.77
292.773
292.775
292.775
292.775
292.774
292.773
292.774
292.775
292.778
292.783
292.789
292.796
292.805
292.814
292.825
292.836
292.847
292.858
292.868
292.876
292.884
292.89
292.894
292.897
292.898
292.897
292.896
292.9
292.909
292.92
292.93
292.936
292.94
292.943
292.949
292.959
292.972
292.985
292.994
292.996
292.993
292.987
292.976
292.96
292.943
292.928
292.918
292.91
292.903
292.895
292.891
292.889
292.89
292.897
292.913
292.938
292.969
292.995
293.007
293.01
293.011
293.012
293.013
293.017
293.026
293.04
293.055
293.063
293.064
293.061
293.053
293.036
293.018
293.005
293.001
293
293
293
293
293
293
293
293
293
293
293
293
293
293
293
293
293
293
293
293
293
293
293
293
293
293
293
293
293
293
293
293
293
293
293
293
293
293
293
293
293
293
293
293
293
293
293
293
292.077
292.095
292.134
292.183
292.238
292.295
292.354
292.411
292.466
292.517
292.563
292.603
292.638
292.668
292.693
292.713
292.73
292.744
292.755
292.765
292.772
292.779
292.785
292.789
292.793
292.796
292.799
292.802
292.805
292.808
292.812
292.817
292.822
292.829
292.836
292.845
292.853
292.861
292.869
292.876
292.882
292.887
292.891
292.895
292.897
292.898
292.899
292.901
292.905
292.914
292.925
292.934
292.939
292.943
292.946
292.952
292.96
292.971
292.982
292.989
292.99
292.988
292.983
292.973
292.957
292.941
292.926
292.916
292.91
292.904
292.898
292.893
292.891
292.891
292.895
292.907
292.927
292.956
292.985
293.003
293.01
293.011
293.012
293.013
293.015
293.021
293.031
293.047
293.06
293.064
293.064
293.059
293.047
293.029
293.012
293.003
293
293
293
293
293
293
293
293
293
293
293
293
293
293
293
293
293
293
293
293
293
293
293
293
293
293
293
293
293
293
293
293
293
293
293
293
293
293
293
293
293
293
293
293
293
293
293
293
293
292.273
292.266
292.274
292.295
292.328
292.365
292.404
292.446
292.488
292.529
292.568
292.604
292.636
292.665
292.69
292.711
292.728
292.743
292.755
292.766
292.774
292.782
292.789
292.796
292.802
292.808
292.814
292.82
292.827
292.833
292.839
292.846
292.852
292.859
292.866
292.873
292.879
292.885
292.889
292.893
292.897
292.9
292.902
292.904
292.905
292.907
292.909
292.915
292.923
292.932
292.939
292.944
292.947
292.95
292.956
292.963
292.971
292.979
292.983
292.984
292.983
292.977
292.967
292.953
292.936
292.922
292.913
292.908
292.904
292.899
292.895
292.892
292.892
292.895
292.904
292.921
292.946
292.975
292.998
293.009
293.012
293.013
293.013
293.014
293.018
293.026
293.039
293.054
293.063
293.065
293.063
293.055
293.04
293.021
293.007
293.001
293
293
293
293
293
293
293
293
293
293
293
293
293
293
293
293
293
293
293
293
293
293
293
293
293
293
293
293
293
293
293
293
293
293
293
293
293
293
293
293
293
293
293
293
293
293
293
293
293
292.409
292.393
292.386
292.388
292.401
292.423
292.449
292.477
292.508
292.54
292.572
292.602
292.631
292.658
292.683
292.705
292.724
292.741
292.755
292.767
292.778
292.788
292.797
292.805
292.813
292.822
292.83
292.838
292.847
292.855
292.863
292.871
292.878
292.885
292.891
292.896
292.901
292.905
292.908
292.911
292.914
292.916
292.918
292.92
292.922
292.924
292.928
292.934
292.941
292.947
292.95
292.953
292.956
292.96
292.965
292.971
292.975
292.977
292.977
292.975
292.969
292.959
292.945
292.929
292.916
292.908
292.905
292.902
292.9
292.897
292.894
292.894
292.896
292.903
292.918
292.94
292.967
292.992
293.007
293.012
293.013
293.013
293.014
293.016
293.022
293.032
293.048
293.061
293.065
293.065
293.06
293.048
293.031
293.013
293.003
293
293
293
293
293
293
293
293
293
293
293
293
293
293
293
293
293
293
293
293
293
293
293
293
293
293
293
293
293
293
293
293
293
293
293
293
293
293
293
293
293
293
293
293
293
293
293
293
293
293
292.492
292.472
292.459
292.453
292.454
292.462
292.479
292.499
292.522
292.546
292.572
292.598
292.625
292.65
292.675
292.698
292.72
292.739
292.757
292.773
292.788
292.801
292.814
292.825
292.836
292.847
292.857
292.867
292.876
292.885
292.893
292.9
292.907
292.913
292.918
292.922
292.926
292.929
292.931
292.934
292.936
292.938
292.939
292.941
292.943
292.945
292.948
292.952
292.954
292.956
292.957
292.959
292.962
292.965
292.968
292.969
292.969
292.968
292.965
292.958
292.947
292.933
292.919
292.908
292.903
292.901
292.9
292.899
292.897
292.896
292.896
292.898
292.905
292.917
292.937
292.963
292.988
293.005
293.012
293.014
293.014
293.014
293.016
293.02
293.028
293.042
293.056
293.064
293.065
293.063
293.054
293.039
293.021
293.007
293.001
293
293
293
293
293
293
293
293
293
293
293
293
293
293
293
293
293
293
293
293
293
293
293
293
293
293
293
293
293
293
293
293
293
293
293
293
293
293
293
293
293
293
293
293
293
293
293
293
293
293
292.555
292.532
292.515
292.503
292.497
292.497
292.503
292.516
292.532
292.551
292.573
292.596
292.619
292.642
292.665
292.689
292.712
292.734
292.755
292.775
292.794
292.812
292.828
292.842
292.856
292.868
292.879
292.89
292.899
292.907
292.915
292.921
292.927
292.932
292.936
292.939
292.942
292.945
292.947
292.949
292.951
292.952
292.953
292.954
292.955
292.956
292.957
292.958
292.958
292.958
292.958
292.959
292.959
292.959
292.959
292.959
292.956
292.95
292.942
292.931
292.919
292.907
292.9
292.898
292.898
292.898
292.898
292.898
292.898
292.898
292.901
292.907
292.92
292.938
292.962
292.986
293.004
293.013
293.015
293.015
293.015
293.016
293.019
293.025
293.037
293.052
293.063
293.066
293.065
293.059
293.046
293.028
293.011
293.002
293
293
293
293
293
293
293
293
293
293
293
293
293
293
293
293
293
293
293
293
293
293
293
293
293
293
293
293
293
293
293
293
293
293
293
293
293
293
293
293
293
293
293
293
293
293
293
293
293
293
293
292.641
292.613
292.589
292.57
292.556
292.547
292.544
292.546
292.553
292.565
292.58
292.597
292.617
292.637
292.658
292.678
292.699
292.719
292.741
292.762
292.782
292.8
292.818
292.834
292.848
292.861
292.873
292.883
292.893
292.901
292.908
292.915
292.921
292.926
292.93
292.933
292.936
292.939
292.941
292.943
292.944
292.945
292.946
292.947
292.948
292.948
292.948
292.948
292.948
292.947
292.947
292.947
292.947
292.945
292.942
292.937
292.93
292.922
292.912
292.903
292.896
292.894
292.893
292.894
292.895
292.897
292.898
292.899
292.901
292.905
292.912
292.924
292.942
292.965
292.988
293.005
293.014
293.016
293.016
293.016
293.017
293.019
293.024
293.034
293.049
293.062
293.066
293.066
293.061
293.051
293.034
293.016
293.005
293.001
293
293
293
293
293
293
293
293
293
293
293
293
293
293
293
293
293
293
293
293
293
293
293
293
293
293
293
293
293
293
293
293
293
293
293
293
293
293
293
293
293
293
293
293
293
293
293
293
293
293
293
292.772
292.739
292.709
292.681
292.657
292.638
292.623
292.612
292.607
292.607
292.611
292.619
292.63
292.644
292.659
292.674
292.691
292.708
292.726
292.741
292.756
292.771
292.786
292.802
292.816
292.83
292.843
292.854
292.864
292.873
292.881
292.888
292.894
292.9
292.904
292.908
292.912
292.915
292.918
292.92
292.921
292.923
292.924
292.925
292.926