/*--------------------------------*- C++ -*----------------------------------*\
| =========                 |                                                 |
| \\      /  F ield         | OpenFOAM: The Open Source CFD Toolbox           |
|  \\    /   O peration     | Version:  2406                                  |
|   \\  /    A nd           | Website:  www.openfoam.com                      |
|    \\/     M anipulation  |                                                 |
\*---------------------------------------------------------------------------*/
FoamFile
{
    version     2.0;
    format      ascii;
    arch        "LSB;label=32;scalar=64";
    class       volScalarField;
    location    "0.065";
    object      Ma;
}
// * * * * * * * * * * * * * * * * * * * * * * * * * * * * * * * * * * * * * //

dimensions      [0 0 0 0 0 0 0];

internalField   nonuniform List<scalar> 
13948
(
0.0263934
0.00451912
0.00658434
0.00911227
0.00831359
0.00655798
0.0044006
0.00347812
0.00336379
0.00408468
0.0056592
0.00657865
0.00606745
0.00480883
0.00261303
0.000715538
6.63166e-05
1.34797e-06
4.01999e-09
1.27297e-12
4.96562e-14
6.6144e-14
6.44825e-14
5.78253e-14
4.91062e-14
6.94421e-14
6.6936e-14
8.18779e-14
8.21028e-14
6.09562e-14
5.10046e-14
1.01795e-13
8.36525e-14
6.49099e-14
6.16949e-14
4.61126e-14
6.94887e-14
9.94156e-14
8.24392e-14
5.60323e-14
8.16754e-14
8.71352e-14
6.37017e-14
9.39266e-14
9.3476e-14
6.32719e-14
3.26471e-14
7.76307e-14
1.16168e-13
1.23897e-13
1.20727e-13
1.19084e-13
1.32893e-13
1.09896e-13
1.17807e-13
9.29099e-14
5.0294e-14
6.18008e-14
5.8747e-14
6.67008e-14
8.38329e-14
8.69706e-14
6.08107e-14
7.56766e-14
5.14098e-14
2.62527e-14
6.04752e-14
4.22812e-14
4.50042e-14
6.47757e-14
4.58815e-14
4.22318e-14
5.38811e-14
4.63801e-14
3.08631e-14
5.64172e-14
9.39983e-14
9.63538e-14
1.19053e-13
9.40197e-14
1.10199e-13
9.32997e-14
1.25937e-13
1.2758e-13
1.13902e-13
8.38807e-14
5.61685e-14
4.145e-14
4.96281e-14
1.31211e-14
4.21148e-14
8.09264e-14
8.8662e-14
1.07663e-13
1.178e-13
9.2681e-14
1.43386e-13
2.00111e-13
2.39542e-13
0.0172115
0.0121108
0.00369497
0.00696163
0.00913437
0.00828396
0.00649824
0.00430392
0.00334569
0.00325762
0.00408498
0.00572263
0.00662786
0.00608789
0.00479003
0.00257042
0.000692774
6.30234e-05
1.25466e-06
3.66037e-09
1.13543e-12
5.7139e-14
7.2416e-14
5.28616e-14
4.80614e-14
3.44989e-14
5.59176e-14
4.89129e-14
6.49991e-14
9.06426e-14
5.37157e-14
3.97361e-14
7.38893e-14
7.39314e-14
6.23817e-14
4.68418e-14
3.29013e-14
6.84677e-14
1.0483e-13
8.27867e-14
5.45461e-14
8.25006e-14
7.49005e-14
6.50072e-14
8.99403e-14
9.26511e-14
5.98688e-14
4.49526e-14
6.95189e-14
9.91627e-14
1.11761e-13
1.09968e-13
1.19351e-13
1.33478e-13
1.1152e-13
1.20842e-13
9.50433e-14
4.94446e-14
6.44208e-14
5.74796e-14
6.60214e-14
7.89697e-14
7.86082e-14
6.07465e-14
5.97439e-14
5.2867e-14
2.26682e-14
6.38817e-14
4.61459e-14
4.56914e-14
6.52174e-14
4.94218e-14
4.29324e-14
4.77008e-14
5.19238e-14
3.31962e-14
5.38053e-14
9.32489e-14
9.71957e-14
8.92712e-14
9.42473e-14
1.14556e-13
9.97789e-14
1.29234e-13
1.1867e-13
9.72757e-14
6.22195e-14
5.84876e-14
4.4846e-14
4.58117e-14
1.07895e-14
2.95739e-14
6.30377e-14
7.57405e-14
9.62244e-14
1.16774e-13
1.03762e-13
1.57011e-13
2.08373e-13
2.447e-13
0.0668042
0.075713
0.0813062
0.0844509
0.0855374
0.0833993
0.0779363
0.0669379
0.0469688
0.0286537
0.0152352
0.00777829
0.00887896
0.00942005
0.00825384
0.00639688
0.00428298
0.00340084
0.00334316
0.0041688
0.00573906
0.00651247
0.00592472
0.00460729
0.00243002
0.000639354
5.63208e-05
1.0774e-06
3.00262e-09
8.90435e-13
7.67707e-14
8.19503e-14
6.11684e-14
3.5649e-14
1.92932e-14
2.91604e-14
3.52904e-14
5.08301e-14
7.69024e-14
4.76767e-14
3.76595e-14
5.90561e-14
6.81424e-14
6.8618e-14
5.83746e-14
4.43783e-14
5.32648e-14
7.74903e-14
6.98135e-14
6.60664e-14
8.56091e-14
8.14358e-14
7.68968e-14
8.32366e-14
8.05987e-14
5.25265e-14
7.06257e-14
7.70717e-14
8.7964e-14
8.28025e-14
8.69298e-14
1.0979e-13
1.11119e-13
1.05434e-13
1.14445e-13
8.78294e-14
6.11245e-14
6.609e-14
5.27092e-14
7.05685e-14
6.80197e-14
7.12291e-14
5.85942e-14
3.48109e-14
3.92188e-14
2.2164e-14
4.66187e-14
3.48745e-14
3.70627e-14
4.72851e-14
4.02263e-14
4.06439e-14
5.29706e-14
5.03185e-14
4.37609e-14
6.30602e-14
9.73015e-14
1.01229e-13
7.73385e-14
8.00696e-14
1.06356e-13
1.10847e-13
1.28973e-13
1.06147e-13
7.6028e-14
5.16073e-14
4.65376e-14
3.44136e-14
4.39747e-14
2.9072e-14
9.67551e-15
3.2057e-14
6.05004e-14
9.11616e-14
1.12023e-13
1.04318e-13
1.53373e-13
2.04748e-13
2.46308e-13
4.85287e-14
4.75151e-14
4.79417e-14
1.69222e-10
1.79764e-07
2.56501e-05
0.000697604
0.00536502
0.0173143
0.0328967
0.0469895
0.0587991
0.0703176
0.0841506
0.102141
0.124114
0.148609
0.174495
0.201232
0.228365
0.244678
0.248961
0.248321
0.240419
0.218398
0.181096
0.146663
0.0945871
0.0543034
0.0259383
0.01239
0.0247352
0.0386581
0.0492842
0.0568197
0.0625161
0.0664756
0.0684042
0.0676703
0.0643515
0.0578442
0.0456491
0.0343892
0.0237125
0.0141165
0.0111878
0.00990248
0.00815367
0.0062281
0.00420251
0.00338752
0.00334995
0.00420818
0.00571648
0.00637174
0.0057583
0.00442053
0.00227519
0.000576769
4.82823e-05
8.66588e-07
2.24352e-09
6.25959e-13
9.0403e-14
7.70954e-14
5.72101e-14
4.54051e-14
2.80341e-14
1.09172e-14
3.71948e-14
5.20595e-14
5.38036e-14
4.78742e-14
4.94939e-14
6.48315e-14
7.38581e-14
6.72601e-14
6.66927e-14
5.48451e-14
5.90264e-14
6.54977e-14
7.69383e-14
8.25708e-14
8.58853e-14
9.24364e-14
1.00196e-13
9.13477e-14
6.83476e-14
5.64413e-14
6.61564e-14
8.81853e-14
8.45491e-14
7.73065e-14
8.28822e-14
9.44478e-14
9.1111e-14
1.02493e-13
1.07203e-13
8.50036e-14
7.49096e-14
6.73315e-14
6.03182e-14
7.38316e-14
6.77466e-14
8.1517e-14
5.63094e-14
3.05786e-14
3.02608e-14
2.69236e-14
2.22419e-14
1.84967e-14
2.19764e-14
3.39587e-14
3.09326e-14
4.54077e-14
6.56021e-14
5.86854e-14
5.95666e-14
6.75647e-14
8.53524e-14
9.63135e-14
7.69946e-14
8.52333e-14
9.40338e-14
1.06812e-13
1.25783e-13
1.07408e-13
8.32411e-14
6.12297e-14
5.70172e-14
4.48562e-14
3.09855e-14
3.49793e-14
2.24425e-14
1.66322e-14
4.77015e-14
8.48342e-14
1.0524e-13
1.15048e-13
1.59569e-13
1.97486e-13
2.2606e-13
5.2794e-14
4.89178e-14
5.01924e-14
4.67839e-14
3.05452e-14
2.8826e-11
4.79402e-08
1.00826e-05
0.000375362
0.00364443
0.0137325
0.0285491
0.0425982
0.0540341
0.0642749
0.075613
0.0899798
0.107698
0.127384
0.147531
0.167457
0.187086
0.197758
0.1985
0.19288
0.183574
0.171521
0.146675
0.121745
0.0837285
0.0478998
0.0221593
0.00139743
0.0154808
0.0282693
0.0379178
0.0452082
0.0503635
0.0534239
0.0553639
0.0554304
0.0530721
0.0489432
0.0420751
0.0342805
0.0253106
0.0169987
0.0126784
0.01026
0.00812106
0.00601226
0.00407717
0.00333806
0.00334877
0.00424729
0.00567559
0.00620672
0.00557344
0.00421004
0.00209945
0.000506239
3.95061e-05
6.49001e-07
1.51609e-09
4.01944e-13
8.76389e-14
7.10782e-14
5.83799e-14
4.73902e-14
4.33866e-14
3.23636e-14
3.77728e-14
5.53653e-14
5.053e-14
4.89381e-14
6.32512e-14
6.43244e-14
8.20888e-14
6.57776e-14
7.56681e-14
6.83877e-14
7.40509e-14
7.43698e-14
9.09972e-14
9.46033e-14
9.94651e-14
9.89494e-14
1.11107e-13
9.17538e-14
6.41185e-14
6.82805e-14
5.10107e-14
7.61022e-14
7.13123e-14
8.86996e-14
9.09107e-14
9.5512e-14
8.44457e-14
9.71766e-14
9.36038e-14
8.37176e-14
7.36262e-14
5.92624e-14
5.70182e-14
7.08257e-14
6.96179e-14
7.76619e-14
4.96032e-14
3.53488e-14
2.63111e-14
2.43669e-14
1.86026e-14
1.51833e-14
2.50538e-14
4.40056e-14
4.08398e-14
6.52326e-14
8.9738e-14
6.37966e-14
6.59014e-14
7.86364e-14
7.65773e-14
8.07244e-14
7.41703e-14
8.86358e-14
8.26237e-14
1.0923e-13
1.19867e-13
1.06789e-13
8.13548e-14
5.94493e-14
5.64398e-14
4.24469e-14
2.6658e-14
3.19256e-14
2.60322e-14
3.03943e-14
4.15696e-14
7.56337e-14
1.04021e-13
1.26079e-13
1.4543e-13
1.72844e-13
1.90565e-13
6.02423e-14
6.77624e-14
6.8891e-14
4.33208e-14
3.43417e-14
2.72734e-14
3.44957e-12
9.64354e-09
3.19445e-06
0.000172893
0.00223021
0.0102099
0.0238806
0.0378791
0.0491987
0.0585297
0.0678234
0.0789395
0.0926872
0.108124
0.123648
0.138398
0.152464
0.159432
0.158763
0.152695
0.142449
0.130789
0.114625
0.0943393
0.0705256
0.0425884
0.0220325
0.00909088
0.013199
0.0225442
0.0304007
0.0365094
0.0410806
0.0441064
0.0454057
0.0454124
0.0437897
0.0407835
0.0361794
0.0309396
0.0243248
0.0176605
0.0132044
0.0102565
0.00792584
0.00573523
0.00394003
0.00328304
0.00337301
0.00432621
0.00568526
0.00607342
0.00541257
0.00398737
0.00190444
0.000429629
3.0567e-05
4.47217e-07
9.1355e-10
2.35026e-13
8.68467e-14
8.21459e-14
7.16341e-14
5.43998e-14
5.6147e-14
4.88665e-14
4.01575e-14
6.44118e-14
6.23144e-14
6.34304e-14
7.60764e-14
6.71673e-14
7.84554e-14
7.82817e-14
9.00094e-14
7.91958e-14
7.25181e-14
8.09407e-14
9.3978e-14
1.05313e-13
1.16741e-13
1.09155e-13
9.87611e-14
9.08345e-14
8.31515e-14
7.86742e-14
6.45323e-14
7.28641e-14
6.88644e-14
8.42612e-14
8.99565e-14
1.03511e-13
9.38617e-14
8.84931e-14
9.84546e-14
7.93264e-14
8.29062e-14
5.66004e-14
6.15744e-14
7.33734e-14
6.17886e-14
8.00919e-14
5.03116e-14
3.52495e-14
3.34465e-14
2.71453e-14
2.98627e-14
4.06929e-14
4.2936e-14
4.75374e-14
5.62273e-14
7.59177e-14
1.1537e-13
7.97406e-14
7.21839e-14
8.89674e-14
8.46364e-14
7.9738e-14
8.00099e-14
7.12257e-14
8.7504e-14
9.49289e-14
1.02119e-13
1.068e-13
9.46225e-14
6.73226e-14
5.11929e-14
3.76869e-14
4.7984e-14
4.38133e-14
4.4193e-14
3.9564e-14
4.6324e-14
7.60842e-14
1.03309e-13
1.38756e-13
1.34222e-13
1.38748e-13
1.50187e-13
5.43896e-14
6.08404e-14
7.15971e-14
4.70808e-14
2.34737e-14
2.69287e-14
2.69228e-13
1.36472e-09
7.69019e-07
6.50769e-05
0.00118772
0.00694809
0.0189683
0.0327645
0.0442111
0.0530415
0.0608272
0.0692578
0.0794435
0.0910932
0.102847
0.113764
0.123956
0.128474
0.127277
0.122
0.113276
0.102537
0.0900459
0.0743258
0.0593151
0.0396414
0.0239129
0.0147667
0.014341
0.0196038
0.0252998
0.030105
0.0338165
0.0364089
0.037426
0.037331
0.0361221
0.0338999
0.0306262
0.0269943
0.0221985
0.0168672
0.0128669
0.00991244
0.00756204
0.00539682
0.00380813
0.00324282
0.00343498
0.0044478
0.00570721
0.00592661
0.00523526
0.00373122
0.00168693
0.000349468
2.21041e-05
2.79314e-07
4.81753e-10
1.42923e-13
9.59334e-14
9.73064e-14
8.60356e-14
6.9961e-14
5.01079e-14
5.19922e-14
4.70775e-14
7.03206e-14
7.06941e-14
7.91386e-14
8.11831e-14
8.54343e-14
7.99586e-14
8.36829e-14
8.17396e-14
8.19981e-14
7.42389e-14
8.84185e-14
8.86966e-14
9.52423e-14
1.13244e-13
1.11862e-13
1.00389e-13
1.01939e-13
9.51667e-14
9.0981e-14
8.33039e-14
6.59005e-14
7.76872e-14
8.61323e-14
9.37561e-14
8.77228e-14
8.82728e-14
8.60937e-14
1.00139e-13
8.6082e-14
7.551e-14
5.76081e-14
7.39741e-14
6.27322e-14
5.18819e-14
7.07339e-14
4.87796e-14
3.02967e-14
4.24262e-14
4.74158e-14
5.54882e-14
6.22162e-14
6.42026e-14
5.92076e-14
7.69627e-14
8.62632e-14
1.1445e-13
8.53344e-14
7.02361e-14
7.82782e-14
6.98795e-14
7.76849e-14
8.98105e-14
7.42475e-14
9.36111e-14
8.35849e-14
8.81588e-14
1.05412e-13
9.45034e-14
7.98685e-14
6.38641e-14
6.05651e-14
6.87122e-14
5.82147e-14
5.6367e-14
4.4793e-14
4.70515e-14
7.04729e-14
9.95244e-14
1.16272e-13
1.13961e-13
1.18881e-13
1.25269e-13
6.21377e-14
6.22853e-14
6.62373e-14
5.55924e-14
3.56666e-14
3.3778e-14
3.73997e-14
1.24542e-10
1.30392e-07
1.88056e-05
0.00052488
0.00418376
0.0139936
0.02721
0.0389474
0.0477077
0.0545554
0.0610027
0.0682149
0.0765064
0.0849859
0.0932338
0.100625
0.103601
0.102231
0.0978783
0.0911252
0.0825534
0.0727467
0.0615882
0.049964
0.0375535
0.0257524
0.018498
0.0161941
0.018277
0.02183
0.0252689
0.0280612
0.0300705
0.0309609
0.0308475
0.0299424
0.0283679
0.0260712
0.0233608
0.0197936
0.0154696
0.0120569
0.00934721
0.00707546
0.00503235
0.00369896
0.00324141
0.00353642
0.00460916
0.00575165
0.00579105
0.00503413
0.00344058
0.00144979
0.000269665
1.47252e-05
1.55146e-07
2.17073e-10
1.05882e-13
9.36786e-14
8.87446e-14
8.05976e-14
7.04581e-14
5.54568e-14
5.95733e-14
6.37743e-14
6.87704e-14
6.93516e-14
8.21443e-14
7.82083e-14
8.14546e-14
8.63781e-14
8.29275e-14
6.57664e-14
7.5653e-14
8.41496e-14
7.99779e-14
7.93427e-14
9.1289e-14
1.04168e-13
1.03031e-13
1.00972e-13
9.74395e-14
9.39451e-14
8.82307e-14
9.53969e-14
7.96152e-14
9.65136e-14
9.4909e-14
9.29133e-14
6.88366e-14
7.66092e-14
8.89283e-14
9.09833e-14
8.47484e-14
7.35588e-14
7.03714e-14
8.25837e-14
5.39379e-14
5.56071e-14
4.80799e-14
4.36863e-14
4.94146e-14
6.45552e-14
6.83701e-14
7.73809e-14
7.56726e-14
7.95033e-14
8.11129e-14
8.89983e-14
9.4903e-14
1.04651e-13
7.84719e-14
7.75882e-14
6.1293e-14
6.74267e-14
7.68759e-14
8.97653e-14
8.84799e-14
9.53634e-14
9.4994e-14
9.4799e-14
9.68754e-14
8.67191e-14
8.18493e-14
8.30772e-14
9.08316e-14
8.09919e-14
8.6376e-14
7.20216e-14
4.88018e-14
5.58275e-14
7.80468e-14
9.52344e-14
1.05758e-13
9.37907e-14
1.01135e-13
1.0768e-13
6.54238e-14
6.4195e-14
6.31918e-14
6.64156e-14
6.04754e-14
6.46183e-14
6.27349e-14
6.63481e-12
1.41324e-08
3.83763e-06
0.000180233
0.00212367
0.00927709
0.0212544
0.0332519
0.0423557
0.0488407
0.0540291
0.0590374
0.0645146
0.0701105
0.0763637
0.0811845
0.0836631
0.0825929
0.0790434
0.0739643
0.0673915
0.0599584
0.0519482
0.0431204
0.0349924
0.0263871
0.0204563
0.0176807
0.0177749
0.0193207
0.0214638
0.0234257
0.0248812
0.0256195
0.0256285
0.0250305
0.0237882
0.0221425
0.0200931
0.0173348
0.0138905
0.011039
0.00864443
0.00652716
0.00466141
0.00359755
0.00327518
0.00367307
0.00479236
0.00577727
0.0056367
0.00479459
0.00310922
0.00119796
0.000194739
8.86901e-06
7.47798e-08
8.10334e-11
1.01476e-13
9.40686e-14
8.86047e-14
8.96512e-14
7.8143e-14
7.63367e-14
8.2396e-14
7.99287e-14
7.95981e-14
8.38411e-14
8.69886e-14
8.33345e-14
8.22742e-14
9.62932e-14
9.39125e-14
7.75158e-14
7.86437e-14
8.95257e-14
8.06061e-14
9.03384e-14
1.0084e-13
1.01655e-13
1.07307e-13
1.09303e-13
1.0083e-13
9.01662e-14
9.17037e-14
1.05311e-13
1.01836e-13
1.163e-13
1.07133e-13
1.00265e-13
8.44554e-14
1.0192e-13
1.0905e-13
1.0454e-13
9.73875e-14
8.16082e-14
9.13763e-14
9.15747e-14
7.17435e-14
5.95748e-14
6.16131e-14
5.67912e-14
5.97634e-14
6.96375e-14
7.91662e-14
8.88039e-14
8.00587e-14
8.57142e-14
9.29598e-14
9.16532e-14
9.45405e-14
1.03739e-13
7.42257e-14
7.91587e-14
6.28727e-14
7.52138e-14
8.65817e-14
8.83517e-14
9.63614e-14
8.9378e-14
9.94925e-14
9.91939e-14
1.04579e-13
1.03455e-13
9.86417e-14
1.00255e-13
1.06236e-13
1.07004e-13
9.82494e-14
8.65235e-14
6.48573e-14
6.43325e-14
8.25963e-14
9.97427e-14
8.85974e-14
7.34842e-14
7.64254e-14
8.6592e-14
6.18172e-14
6.40423e-14
6.84168e-14
6.49416e-14
6.71037e-14
6.64323e-14
6.53796e-14
2.14373e-13
8.70802e-10
4.96284e-07
4.39043e-05
0.000847961
0.00526158
0.0151195
0.0269861
0.0367381
0.0434369
0.048044
0.0516686
0.0550255
0.0586954
0.0621915
0.0653668
0.067459
0.0669767
0.0643423
0.0604776
0.0555196
0.0499627
0.0440197
0.037846
0.0316372
0.0258985
0.0211198
0.0182092
0.0171253
0.0174089
0.0184822
0.0197073
0.0206684
0.0212168
0.0213323
0.0209677
0.020048
0.0187796
0.017191
0.0150176
0.0123141
0.0099921
0.00789616
0.00595353
0.00431278
0.0035062
0.00333907
0.00385089
0.00499813
0.00578202
0.00546864
0.00451103
0.00273327
0.000939963
0.00012925
4.71151e-06
3.02845e-08
2.40919e-11
9.93573e-14
9.47477e-14
8.51008e-14
9.031e-14
8.42668e-14
8.9877e-14
8.6421e-14
7.86541e-14
7.86254e-14
8.11868e-14
8.60419e-14
9.02543e-14
9.16994e-14
9.56618e-14
8.49851e-14
8.52152e-14
7.96948e-14
7.98791e-14
8.21509e-14
8.8835e-14
8.38557e-14
8.22504e-14
9.29264e-14
1.02836e-13
9.13826e-14
9.12649e-14
9.03556e-14
9.45714e-14
9.84825e-14
1.01255e-13
9.69927e-14
8.9435e-14
8.88634e-14
9.73596e-14
9.83065e-14
9.3704e-14
8.36634e-14
6.90275e-14
8.99647e-14
9.38075e-14
7.59101e-14
6.09036e-14
6.44688e-14
4.73627e-14
6.7078e-14
7.49487e-14
7.41458e-14
8.61828e-14
8.81905e-14
9.29323e-14
9.45801e-14
9.28207e-14
8.95845e-14
9.81799e-14
7.70557e-14
7.30922e-14
6.13125e-14
7.21574e-14
7.28411e-14
6.95158e-14
7.74752e-14
7.05683e-14
8.17018e-14
8.64604e-14
1.06162e-13
1.10071e-13
1.11326e-13
1.05951e-13
1.05462e-13
1.13571e-13
9.60252e-14
8.18726e-14
7.43955e-14
7.35556e-14
8.13913e-14
9.744e-14
8.82176e-14
6.77591e-14
7.41361e-14
7.48993e-14
5.7432e-14
5.47167e-14
5.74222e-14
5.39634e-14
5.78184e-14
4.78693e-14
4.1299e-14
3.68188e-14
2.69403e-11
3.55796e-08
6.7188e-06
0.000241451
0.00237359
0.00931368
0.0201571
0.0305483
0.0379848
0.0426737
0.0456338
0.0480372
0.0498693
0.0512032
0.0528194
0.0542818
0.054284
0.0525411
0.0496164
0.0459818
0.0418306
0.0373859
0.0329226
0.0283555
0.0242033
0.0204921
0.0178662
0.0163968
0.0159083
0.0161739
0.0167602
0.0173027
0.017664
0.0177243
0.0174728
0.0167795
0.015818
0.0146362
0.0130028
0.0109292
0.00899892
0.00712589
0.00536884
0.00401151
0.00342989
0.00343467
0.00408318
0.00521416
0.0057375
0.00527371
0.00416646
0.00231061
0.000688406
7.693e-05
2.13534e-06
9.87352e-09
5.4259e-12
7.53938e-14
8.38991e-14
8.66561e-14
7.43226e-14
8.4954e-14
9.17109e-14
8.56284e-14
7.57777e-14
7.80916e-14
7.21397e-14
7.1969e-14
7.2803e-14
7.4879e-14
7.63082e-14
8.08694e-14
8.28596e-14
7.75144e-14
7.25432e-14
7.98283e-14
8.45277e-14
7.98541e-14
7.52314e-14
7.49986e-14
7.88107e-14
7.73807e-14
8.92039e-14
8.58907e-14
7.80853e-14
7.72168e-14
6.77387e-14
6.96134e-14
6.8958e-14
7.17889e-14
6.072e-14
6.27208e-14
5.62529e-14
5.55022e-14
7.75406e-14
9.49009e-14
9.57059e-14
7.71217e-14
4.57165e-14
4.22134e-14
2.94695e-14
6.20653e-14
7.13831e-14
7.23319e-14
8.5207e-14
9.35665e-14
1.00597e-13
1.02644e-13
9.36419e-14
9.31684e-14
9.79542e-14
7.5369e-14
6.52881e-14
4.65307e-14
5.42393e-14
4.66608e-14
4.61651e-14
4.90334e-14
4.37023e-14
5.4787e-14
7.25415e-14
8.6131e-14
8.97928e-14
1.0632e-13
1.09659e-13
1.12582e-13
1.05239e-13
8.79469e-14
7.6404e-14
7.3412e-14
7.7199e-14
7.34435e-14
8.26552e-14
9.23915e-14
7.22895e-14
6.38367e-14
6.72192e-14
5.60477e-14
5.94589e-14
5.39828e-14
5.29072e-14
4.8788e-14
4.47409e-14
4.47565e-14
3.86781e-14
3.99934e-13
1.22619e-09
5.54634e-07
4.27801e-05
0.000765754
0.00459804
0.0131439
0.0235512
0.0320426
0.0374722
0.040551
0.0425594
0.043502
0.0432293
0.0432874
0.0438721
0.044026
0.0429746
0.0408633
0.0382245
0.0350976
0.0317421
0.0283692
0.025057
0.0218582
0.0191653
0.0169304
0.0154423
0.0145976
0.0143545
0.0144419
0.0146586
0.0147851
0.0147298
0.0144948
0.0139391
0.0132126
0.0123926
0.0112098
0.00962975
0.00799039
0.00632406
0.00479953
0.0037992
0.00339594
0.00357824
0.00437678
0.00542209
0.00563641
0.00504975
0.00373922
0.00184813
0.000459515
3.96931e-05
7.89204e-07
2.4477e-09
8.93053e-13
6.98767e-14
8.78682e-14
1.00318e-13
8.33788e-14
8.27372e-14
8.29706e-14
8.32535e-14
7.926e-14
7.88046e-14
8.05004e-14
7.5685e-14
7.04288e-14
6.97309e-14
7.11167e-14
7.4777e-14
8.9732e-14
8.96118e-14
8.6696e-14
9.29591e-14
8.55745e-14
8.49117e-14
8.16503e-14
7.10544e-14
6.50367e-14
7.96142e-14
9.46121e-14
8.69307e-14
7.16937e-14
6.37145e-14
5.10931e-14
4.64789e-14
4.72839e-14
6.19878e-14
5.31386e-14
3.88106e-14
4.39282e-14
5.16773e-14
9.1558e-14
1.12942e-13
9.55143e-14
6.93664e-14
3.69903e-14
2.55026e-14
2.11941e-14
5.23553e-14
6.85629e-14
7.23279e-14
8.5981e-14
9.77402e-14
1.07418e-13
1.10217e-13
9.72483e-14
9.18566e-14
8.82112e-14
6.36623e-14
5.5827e-14
4.29074e-14
4.11367e-14
3.79709e-14
4.31971e-14
4.42479e-14
4.32817e-14
5.07596e-14
7.04069e-14
8.36622e-14
9.51902e-14
1.16575e-13
1.28876e-13
1.28115e-13
1.0441e-13
9.34641e-14
8.31582e-14
6.63518e-14
6.77417e-14
6.99884e-14
7.45636e-14
8.75715e-14
7.08261e-14
6.26331e-14
6.46331e-14
6.59686e-14
6.05108e-14
5.73815e-14
5.23724e-14
4.7561e-14
4.25718e-14
3.62588e-14
2.93721e-14
2.53758e-14
1.81886e-11
2.09738e-08
3.96614e-06
0.00015183
0.00161949
0.00687959
0.0158995
0.0251672
0.0318945
0.0358064
0.0378851
0.0388926
0.0379501
0.0365247
0.0359621
0.035826
0.0352559
0.0339242
0.0319596
0.0296375
0.0270885
0.0244858
0.021936
0.0195406
0.0173659
0.015635
0.0143047
0.0133448
0.0128338
0.0125973
0.0125232
0.0124333
0.0122931
0.0120422
0.0116169
0.0110732
0.0105224
0.00964229
0.00837428
0.00695931
0.00552824
0.00432515
0.00364706
0.00345301
0.00379452
0.00471561
0.00558031
0.005493
0.00474698
0.00321606
0.00136783
0.000270141
1.69316e-05
2.23791e-07
4.28013e-10
1.30664e-13
6.89601e-14
7.16557e-14
7.69977e-14
7.18698e-14
6.15878e-14
6.32095e-14
6.09309e-14
6.19394e-14
5.49174e-14
5.93668e-14
6.34609e-14
5.77183e-14
5.67306e-14
5.44992e-14
5.3729e-14
6.63899e-14
7.41396e-14
8.05322e-14
7.16698e-14
6.16187e-14
6.33408e-14
5.93445e-14
5.132e-14
4.30951e-14
6.81984e-14
7.47367e-14
7.21602e-14
6.24202e-14
5.66605e-14
5.15511e-14
3.95484e-14
3.86005e-14
4.17242e-14
3.75211e-14
3.14471e-14
2.86377e-14
3.55846e-14
7.02079e-14
9.42255e-14
7.88961e-14
4.5554e-14
2.01122e-14
2.19738e-14
2.20888e-14
5.46486e-14
6.59213e-14
7.18806e-14
8.90144e-14
9.75408e-14
1.08663e-13
1.05107e-13
9.36996e-14
8.72779e-14
7.02093e-14
5.36537e-14
3.95075e-14
2.99287e-14
1.56487e-14
2.24906e-14
3.75846e-14
5.00135e-14
4.47872e-14
3.86611e-14
5.81176e-14
7.78671e-14
9.46968e-14
1.09502e-13
1.2009e-13
1.2578e-13
9.39525e-14
8.79679e-14
9.20243e-14
7.6152e-14
6.22469e-14
6.05559e-14
6.58716e-14
9.16339e-14
7.73528e-14
6.29933e-14
6.27245e-14
6.70857e-14
6.15003e-14
5.93418e-14
5.54291e-14
4.91202e-14
4.36677e-14
4.31112e-14
3.95896e-14
3.37747e-14
1.33046e-13
3.22792e-10
1.59782e-07
1.51986e-05
0.000343923
0.00254179
0.00856163
0.0172588
0.0252731
0.0306441
0.0335048
0.0349755
0.0346168
0.0325119
0.0307061
0.0297013
0.0290902
0.0282344
0.0268971
0.0253092
0.0234766
0.0215071
0.019507
0.0175903
0.0158482
0.0143227
0.0131023
0.0122533
0.0116006
0.0110959
0.0108067
0.0105723
0.010352
0.0100832
0.00972547
0.00933143
0.00892213
0.00822377
0.00714891
0.00597698
0.00485122
0.00401107
0.00356188
0.00359163
0.00411548
0.00508726
0.00564693
0.00529747
0.0043251
0.0025957
0.000905016
0.000133161
5.59271e-06
4.47947e-08
4.78808e-11
8.43739e-14
5.52719e-14
7.42585e-14
7.69265e-14
6.34201e-14
5.8256e-14
4.86809e-14
4.87402e-14
4.78056e-14
5.06235e-14
4.98253e-14
5.79434e-14
3.96104e-14
3.56514e-14
3.15601e-14
4.3426e-14
4.93912e-14
6.83574e-14
6.83095e-14
7.3038e-14
5.81607e-14
4.66839e-14
4.29923e-14
4.07682e-14
4.32585e-14
5.79651e-14
5.11872e-14
5.84085e-14
6.24633e-14
5.72784e-14
6.08284e-14
5.31711e-14
4.29598e-14
3.04382e-14
3.24746e-14
4.14264e-14
4.02663e-14
3.33131e-14
3.70327e-14
6.04862e-14
5.39459e-14
3.67845e-14
1.49921e-14
1.85122e-14
2.44724e-14
4.16154e-14
5.57764e-14
6.02836e-14
8.99717e-14
1.02847e-13
1.16947e-13
1.04514e-13
8.82982e-14
7.98227e-14
6.71893e-14
6.19492e-14
4.11706e-14
2.14197e-14
7.81739e-15
1.90973e-14
3.42549e-14
4.61174e-14
2.81692e-14
3.72907e-14
5.34353e-14
7.59962e-14
9.50335e-14
9.74864e-14
9.66719e-14
1.02863e-13
8.45377e-14
7.3859e-14
7.91379e-14
8.67869e-14
7.67106e-14
6.10863e-14
7.17473e-14
8.83847e-14
7.51479e-14
6.60797e-14
5.76751e-14
7.94789e-14
7.5485e-14
7.19925e-14
6.98015e-14
6.66281e-14
6.4107e-14
6.14062e-14
6.17313e-14
4.82001e-14
5.345e-14
2.13918e-12
2.47695e-09
6.24328e-07
3.53018e-05
0.000549587
0.00318313
0.00928267
0.017277
0.0242318
0.0286858
0.0309181
0.0318035
0.0303894
0.0279779
0.0261339
0.0248017
0.0237731
0.0228447
0.0217643
0.0205448
0.01915
0.0176899
0.016217
0.0147991
0.0134974
0.0123357
0.0113582
0.0106107
0.0100926
0.00968208
0.00931597
0.00897472
0.00864618
0.00829169
0.00795534
0.00758236
0.00699459
0.00610675
0.00520338
0.00438411
0.00381505
0.00359988
0.00382083
0.00454932
0.00544756
0.00559134
0.0050281
0.00373434
0.00189557
0.000508681
5.13078e-05
1.30536e-06
5.66729e-09
3.07781e-12
8.04276e-14
7.36257e-14
8.09976e-14
7.42336e-14
8.08304e-14
8.92201e-14
7.15557e-14
7.89907e-14
7.14545e-14
7.08399e-14
7.98223e-14
6.75165e-14
5.89324e-14
5.90969e-14
5.12096e-14
6.34576e-14
6.94326e-14
7.2533e-14
8.40445e-14
1.00139e-13
8.62364e-14
7.1471e-14
7.35178e-14
7.37699e-14
8.03694e-14
8.00722e-14
7.54195e-14
8.12985e-14
8.44392e-14
8.259e-14
7.55777e-14
6.83159e-14
6.35004e-14
6.24906e-14
6.37282e-14
6.28753e-14
6.2103e-14
5.63367e-14
5.4438e-14
5.45496e-14
4.27322e-14
3.8406e-14
3.47155e-14
3.15987e-14
4.38802e-14
5.02797e-14
4.67673e-14
5.58433e-14
8.81666e-14
1.08485e-13
1.25219e-13
1.05485e-13
8.88855e-14
7.60699e-14
6.39604e-14
5.78062e-14
5.33547e-14
3.64712e-14
2.79981e-14
3.34301e-14
3.65312e-14
4.4169e-14
3.73907e-14
4.5519e-14
6.0989e-14
8.53242e-14
1.01271e-13
9.62843e-14
9.71354e-14
1.01408e-13
8.70032e-14
8.15863e-14
8.98612e-14
8.26604e-14
8.34728e-14
7.22036e-14
7.51908e-14
8.76806e-14
8.84616e-14
7.61767e-14
6.06069e-14
8.85735e-14
8.25737e-14
7.7507e-14
7.84814e-14
7.94739e-14
7.18512e-14
5.66333e-14
5.71388e-14
5.46076e-14
5.34631e-14
6.04225e-14
1.62906e-11
9.3688e-09
1.3989e-06
5.44002e-05
0.00066228
0.00332035
0.00898284
0.0161499
0.022324
0.026256
0.0281715
0.0285164
0.0267974
0.0243414
0.0223236
0.0208839
0.0197455
0.0187189
0.0177113
0.0167428
0.0157825
0.0147776
0.0137441
0.0127331
0.01176
0.0108906
0.0101046
0.0094432
0.00888581
0.00845996
0.00807823
0.00773694
0.00736553
0.00701093
0.00663358
0.00610965
0.00538008
0.00468709
0.00409158
0.00374995
0.00377044
0.00420502
0.00507501
0.00569544
0.00541942
0.00457059
0.00294943
0.00118793
0.000225206
1.39646e-05
1.89814e-07
3.95659e-10
1.50633e-13
8.76095e-14
8.1053e-14
8.55118e-14
8.64344e-14
9.35709e-14
9.28299e-14
9.2267e-14
8.28331e-14
7.81396e-14
7.82954e-14
8.72158e-14
8.32016e-14
7.29088e-14
7.94717e-14
7.93647e-14
8.48756e-14
8.76935e-14
9.55618e-14
1.01486e-13
1.09377e-13
9.4476e-14
9.10171e-14
9.50806e-14
9.79443e-14
1.00201e-13
9.27612e-14
9.04561e-14
9.07583e-14
9.1012e-14
8.39995e-14
7.35739e-14
7.19725e-14
7.55775e-14
8.04633e-14
7.03087e-14
5.51214e-14
5.4839e-14
5.8609e-14
6.13028e-14
5.96566e-14
4.87406e-14
4.19086e-14
3.88546e-14
4.52822e-14
4.44351e-14
3.49884e-14
3.9644e-14
5.1989e-14
7.74505e-14
9.98106e-14
1.17074e-13
1.00573e-13
8.24526e-14
7.29817e-14
7.37099e-14
5.80295e-14
6.1131e-14
5.25737e-14
4.28356e-14
3.17492e-14
4.38231e-14
4.45371e-14
4.54814e-14
6.12437e-14
7.21353e-14
8.58137e-14
1.08443e-13
9.94316e-14
9.12766e-14
9.23255e-14
8.24428e-14
7.6714e-14
9.24568e-14
9.4618e-14
9.5739e-14
8.2263e-14
8.2211e-14
9.68304e-14
9.57883e-14
9.10065e-14
7.4457e-14
7.38931e-14
6.88879e-14
6.20568e-14
5.96446e-14
5.35671e-14
4.03372e-14
3.17208e-14
2.71481e-14
3.28652e-14
3.31429e-14
3.17479e-14
7.52593e-14
5.97803e-11
1.94355e-08
1.95103e-06
5.89472e-05
0.000623729
0.0029357
0.00780143
0.0140902
0.0197171
0.0234514
0.0252562
0.0253153
0.023873
0.021807
0.0196653
0.0178826
0.016498
0.0154496
0.0145536
0.0137224
0.0129174
0.0121433
0.0114163
0.0107066
0.0100433
0.00940222
0.00883487
0.00829631
0.00783923
0.00739959
0.00702603
0.0066441
0.00630217
0.00595898
0.00548817
0.00486694
0.00433576
0.00397195
0.00387805
0.00411506
0.00480784
0.00562903
0.0057059
0.0051049
0.00382755
0.00201033
0.000588718
7.02481e-05
2.32996e-06
1.47252e-08
1.33278e-11
5.80098e-14
6.83356e-14
6.22372e-14
6.15832e-14
7.75263e-14
7.22019e-14
6.74013e-14
7.90321e-14
6.07513e-14
5.55175e-14
5.63471e-14
5.42148e-14
5.80713e-14
6.27848e-14
5.7722e-14
5.99099e-14
5.95804e-14
6.8658e-14
8.54868e-14
7.85486e-14
7.93536e-14
6.33636e-14
6.42197e-14
6.97156e-14
7.27515e-14
7.01487e-14
5.69018e-14
6.66335e-14
6.35315e-14
6.48172e-14
5.54137e-14
4.28684e-14
4.26182e-14
4.38142e-14
4.78708e-14
3.95996e-14
3.36861e-14
3.33039e-14
3.3773e-14
4.16446e-14
4.22898e-14
4.01464e-14
2.90843e-14
2.57424e-14
2.95509e-14
2.19739e-14
2.48964e-14
3.47889e-14
5.25123e-14
6.59759e-14
7.5958e-14
8.46941e-14
7.7024e-14
6.60506e-14
6.05863e-14
6.52971e-14
5.05058e-14
4.89892e-14
3.83184e-14
2.82286e-14
1.60955e-14
3.08717e-14
1.80176e-14
3.38074e-14
5.28314e-14
6.36059e-14
7.82662e-14
9.86187e-14
8.72811e-14
7.40813e-14
7.34588e-14
7.28402e-14
6.78593e-14
7.6192e-14
7.84894e-14
8.58028e-14
8.5996e-14
8.00519e-14
9.02696e-14
9.70563e-14
7.65841e-14
5.95762e-14
4.49642e-14
4.43342e-14
4.2724e-14
3.85901e-14
2.9957e-14
2.6793e-14
1.98453e-14
2.2276e-14
2.10238e-14
2.22758e-14
2.185e-14
1.96188e-14
2.45068e-13
1.1849e-10
2.40192e-08
1.78802e-06
4.62193e-05
0.000463034
0.00219001
0.00601218
0.0113204
0.0164792
0.0202019
0.0220771
0.0222901
0.0212783
0.0198816
0.0181266
0.0163659
0.0148036
0.0134695
0.0123929
0.0115353
0.0108163
0.0101856
0.00959105
0.00904187
0.00851529
0.00804498
0.00758797
0.0071864
0.0067831
0.00643374
0.00606531
0.00574403
0.00542429
0.00502556
0.00455162
0.0042348
0.0041054
0.00424588
0.00478243
0.00558339
0.00589622
0.00543977
0.00444935
0.00276496
0.00107979
0.000203845
1.31615e-05
1.99383e-07
5.22886e-10
1.95348e-13
3.83001e-14
4.00108e-14
3.68135e-14
4.60736e-14
5.14999e-14
5.06236e-14
5.31577e-14
5.84731e-14
6.70553e-14
4.64465e-14
5.14908e-14
4.15092e-14
4.82467e-14
5.59758e-14
4.83306e-14
3.51919e-14
4.52343e-14
5.19433e-14
5.18165e-14
5.5986e-14
4.49358e-14
3.55164e-14
4.41808e-14
5.16682e-14
5.45771e-14
4.71255e-14
5.06746e-14
4.84416e-14
4.56816e-14
4.97987e-14
5.97859e-14
4.0855e-14
2.63841e-14
2.90045e-14
2.46594e-14
3.29449e-14
4.24059e-14
2.32652e-14
1.84068e-14
2.07512e-14
1.43581e-14
2.40276e-14
7.4341e-15
1.75983e-14
1.44201e-14
1.81901e-14
3.62478e-14
1.76907e-14
4.13708e-14
6.2602e-14
5.83218e-14
5.3767e-14
5.19748e-14
5.09515e-14
4.31675e-14
4.96274e-14
5.10565e-14
5.16391e-14
5.8047e-14
5.88576e-14
3.54928e-14
3.42714e-14
3.87893e-14
3.89066e-14
5.20157e-14
5.62368e-14
7.07058e-14
8.51911e-14
7.10661e-14
6.36521e-14
6.83892e-14
6.54114e-14
7.02489e-14
7.2281e-14
7.31799e-14
7.86016e-14
8.41911e-14
8.51218e-14
8.66449e-14
8.80122e-14
6.58082e-14
4.2323e-14
4.60818e-14
5.04725e-14
4.36999e-14
4.35175e-14
4.50266e-14
3.62841e-14
3.61723e-14
3.72956e-14
3.5235e-14
4.05605e-14
3.97183e-14
4.21906e-14
5.07256e-14
4.62486e-13
1.38219e-10
1.8824e-08
1.11187e-06
2.63636e-05
0.000267167
0.00134444
0.00399361
0.00813156
0.0126793
0.0164013
0.0186113
0.0192503
0.0188
0.0179418
0.0168642
0.0155348
0.0141499
0.0128832
0.01176
0.010774
0.00992436
0.00919739
0.00858309
0.00804433
0.00757935
0.00714756
0.00677197
0.0064038
0.00609082
0.00576442
0.00549089
0.00520961
0.00492803
0.00461328
0.00449271
0.00461717
0.00506983
0.00571552
0.00604688
0.00567118
0.00483443
0.00331697
0.00155261
0.000397713
4.11981e-05
1.20807e-06
7.37782e-09
7.91484e-12
3.58045e-14
2.69462e-14
3.00491e-14
3.87807e-14
3.84637e-14
3.05582e-14
4.15618e-14
4.89305e-14
4.69978e-14
5.98385e-14
3.82898e-14
4.0563e-14
3.93018e-14
5.13686e-14
5.83212e-14
5.33996e-14
3.47007e-14
4.54694e-14
3.70193e-14