/*--------------------------------*- C++ -*----------------------------------*\
| =========                 |                                                 |
| \\      /  F ield         | OpenFOAM: The Open Source CFD Toolbox           |
|  \\    /   O peration     | Version:  2406                                  |
|   \\  /    A nd           | Website:  www.openfoam.com                      |
|    \\/     M anipulation  |                                                 |
\*---------------------------------------------------------------------------*/
FoamFile
{
    version     2.0;
    format      ascii;
    arch        "LSB;label=32;scalar=64";
    class       volScalarField;
    location    "0.065";
    object      rho;
}
// * * * * * * * * * * * * * * * * * * * * * * * * * * * * * * * * * * * * * //

dimensions      [1 -3 0 0 0 0 0];

internalField   nonuniform List<scalar> 
13948
(
1.15711
1.20014
1.21699
1.22168
1.22273
1.22192
1.2203
1.21954
1.22035
1.22223
1.22541
1.22741
1.22782
1.22675
1.22433
1.22211
1.22133
1.22125
1.22125
1.22125
1.22125
1.22125
1.22125
1.22125
1.22125
1.22125
1.22125
1.22125
1.22125
1.22125
1.22125
1.22125
1.22125
1.22125
1.22125
1.22125
1.22125
1.22125
1.22125
1.22125
1.22125
1.22125
1.22125
1.22125
1.22125
1.22125
1.22125
1.22125
1.22125
1.22125
1.22125
1.22125
1.22125
1.22125
1.22125
1.22125
1.22125
1.22125
1.22125
1.22125
1.22125
1.22125
1.22125
1.22125
1.22125
1.22125
1.22125
1.22125
1.22125
1.22125
1.22125
1.22125
1.22125
1.22125
1.22125
1.22125
1.22125
1.22125
1.22125
1.22125
1.22125
1.22125
1.22125
1.22125
1.22125
1.22125
1.22125
1.22125
1.22125
1.22125
1.22125
1.22125
1.22125
1.22125
1.22125
1.22125
1.22125
1.22125
1.22125
1.17604
1.18536
1.20544
1.21801
1.22189
1.22283
1.22203
1.22049
1.2198
1.22061
1.22241
1.22542
1.22725
1.22761
1.22654
1.22419
1.22206
1.22133
1.22125
1.22125
1.22125
1.22125
1.22125
1.22125
1.22125
1.22125
1.22125
1.22125
1.22125
1.22125
1.22125
1.22125
1.22125
1.22125
1.22125
1.22125
1.22125
1.22125
1.22125
1.22125
1.22125
1.22125
1.22125
1.22125
1.22125
1.22125
1.22125
1.22125
1.22125
1.22125
1.22125
1.22125
1.22125
1.22125
1.22125
1.22125
1.22125
1.22125
1.22125
1.22125
1.22125
1.22125
1.22125
1.22125
1.22125
1.22125
1.22125
1.22125
1.22125
1.22125
1.22125
1.22125
1.22125
1.22125
1.22125
1.22125
1.22125
1.22125
1.22125
1.22125
1.22125
1.22125
1.22125
1.22125
1.22125
1.22125
1.22125
1.22125
1.22125
1.22125
1.22125
1.22125
1.22125
1.22125
1.22125
1.22125
1.22125
1.22125
1.22125
1.22125
1.24372
1.24024
1.23489
1.22828
1.22134
1.21445
1.20813
1.20292
1.19976
1.2
1.19858
1.20967
1.21906
1.22213
1.22291
1.22202
1.22056
1.21999
1.2208
1.22259
1.2255
1.22716
1.22747
1.22637
1.22405
1.222
1.22132
1.22125
1.22125
1.22125
1.22125
1.22125
1.22125
1.22125
1.22125
1.22125
1.22125
1.22125
1.22125
1.22125
1.22125
1.22125
1.22125
1.22125
1.22125
1.22125
1.22125
1.22125
1.22125
1.22125
1.22125
1.22125
1.22125
1.22125
1.22125
1.22125
1.22125
1.22125
1.22125
1.22125
1.22125
1.22125
1.22125
1.22125
1.22125
1.22125
1.22125
1.22125
1.22125
1.22125
1.22125
1.22125
1.22125
1.22125
1.22125
1.22125
1.22125
1.22125
1.22125
1.22125
1.22125
1.22125
1.22125
1.22125
1.22125
1.22125
1.22125
1.22125
1.22125
1.22125
1.22125
1.22125
1.22125
1.22125
1.22125
1.22125
1.22125
1.22125
1.22125
1.22125
1.22125
1.22125
1.22125
1.22125
1.22125
1.22125
1.22125
1.22125
1.22125
1.22125
1.22125
1.22125
1.22125
1.22125
1.22128
1.22209
1.22767
1.24189
1.26016
1.27584
1.28762
1.29777
1.30928
1.32383
1.34008
1.35472
1.3645
1.36793
1.35928
1.32466
1.26359
1.197
1.1287
1.08126
1.06988
1.08782
1.1325
1.17224
1.20092
1.22067
1.23295
1.23929
1.24134
1.24088
1.23867
1.23471
1.23014
1.22488
1.21977
1.21537
1.21207
1.21165
1.20973
1.21473
1.22038
1.22258
1.22292
1.22198
1.22064
1.22018
1.22101
1.2228
1.22561
1.22709
1.22732
1.22618
1.22388
1.22193
1.22131
1.22125
1.22125
1.22125
1.22125
1.22125
1.22125
1.22125
1.22125
1.22125
1.22125
1.22125
1.22125
1.22125
1.22125
1.22125
1.22125
1.22125
1.22125
1.22125
1.22125
1.22125
1.22125
1.22125
1.22125
1.22125
1.22125
1.22125
1.22125
1.22125
1.22125
1.22125
1.22125
1.22125
1.22125
1.22125
1.22125
1.22125
1.22125
1.22125
1.22125
1.22125
1.22125
1.22125
1.22125
1.22125
1.22125
1.22125
1.22125
1.22125
1.22125
1.22125
1.22125
1.22125
1.22125
1.22125
1.22125
1.22125
1.22125
1.22125
1.22125
1.22125
1.22125
1.22125
1.22125
1.22125
1.22125
1.22125
1.22125
1.22125
1.22125
1.22125
1.22125
1.22125
1.22125
1.22125
1.22125
1.22125
1.22125
1.22125
1.22125
1.22125
1.22125
1.22125
1.22125
1.22125
1.22125
1.22125
1.22125
1.22125
1.22126
1.2217
1.22562
1.23764
1.2551
1.27097
1.28264
1.29168
1.30078
1.31191
1.32468
1.33638
1.34399
1.34643
1.33955
1.31328
1.26912
1.22119
1.17422
1.13879
1.12443
1.12871
1.15162
1.1806
1.20131
1.21676
1.22754
1.23406
1.23711
1.23793
1.23716
1.23489
1.23214
1.22872
1.22488
1.22156
1.21871
1.21689
1.21619
1.21833
1.22159
1.223
1.22293
1.22191
1.22069
1.22039
1.22123
1.22306
1.22575
1.22704
1.22717
1.22597
1.22368
1.22185
1.2213
1.22125
1.22125
1.22125
1.22125
1.22125
1.22125
1.22125
1.22125
1.22125
1.22125
1.22125
1.22125
1.22125
1.22125
1.22125
1.22125
1.22125
1.22125
1.22125
1.22125
1.22125
1.22125
1.22125
1.22125
1.22125
1.22125
1.22125
1.22125
1.22125
1.22125
1.22125
1.22125
1.22125
1.22125
1.22125
1.22125
1.22125
1.22125
1.22125
1.22125
1.22125
1.22125
1.22125
1.22125
1.22125
1.22125
1.22125
1.22125
1.22125
1.22125
1.22125
1.22125
1.22125
1.22125
1.22125
1.22125
1.22125
1.22125
1.22125
1.22125
1.22125
1.22125
1.22125
1.22125
1.22125
1.22125
1.22125
1.22125
1.22125
1.22125
1.22125
1.22125
1.22125
1.22125
1.22125
1.22125
1.22125
1.22125
1.22125
1.22125
1.22125
1.22125
1.22125
1.22125
1.22125
1.22125
1.22125
1.22125
1.22125
1.22125
1.22126
1.22146
1.22393
1.23345
1.24962
1.26567
1.27755
1.28593
1.29314
1.30125
1.31068
1.31967
1.32551
1.32721
1.3217
1.30214
1.2705
1.23538
1.20104
1.1735
1.15841
1.15617
1.16656
1.18732
1.20256
1.21422
1.2233
1.22945
1.23299
1.23454
1.23477
1.23374
1.23163
1.22934
1.22669
1.22426
1.22227
1.22095
1.22022
1.22104
1.2226
1.22328
1.22293
1.22182
1.22073
1.22061
1.22148
1.22334
1.2259
1.22701
1.22702
1.22573
1.22346
1.22176
1.22129
1.22125
1.22125
1.22125
1.22125
1.22125
1.22125
1.22125
1.22125
1.22125
1.22125
1.22125
1.22125
1.22125
1.22125
1.22125
1.22125
1.22125
1.22125
1.22125
1.22125
1.22125
1.22125
1.22125
1.22125
1.22125
1.22125
1.22125
1.22125
1.22125
1.22125
1.22125
1.22125
1.22125
1.22125
1.22125
1.22125
1.22125
1.22125
1.22125
1.22125
1.22125
1.22125
1.22125
1.22125
1.22125
1.22125
1.22125
1.22125
1.22125
1.22125
1.22125
1.22125
1.22125
1.22125
1.22125
1.22125
1.22125
1.22125
1.22125
1.22125
1.22125
1.22125
1.22125
1.22125
1.22125
1.22125
1.22125
1.22125
1.22125
1.22125
1.22125
1.22125
1.22125
1.22125
1.22125
1.22125
1.22125
1.22125
1.22125
1.22125
1.22125
1.22125
1.22125
1.22125
1.22125
1.22125
1.22125
1.22125
1.22125
1.22125
1.22125
1.22133
1.22268
1.22956
1.24383
1.25985
1.27224
1.28047
1.28642
1.29208
1.29849
1.3049
1.3092
1.31037
1.30604
1.29163
1.26896
1.24332
1.21786
1.19633
1.1823
1.17707
1.17979
1.19169
1.204
1.21321
1.22073
1.22633
1.22986
1.23169
1.23236
1.23213
1.23077
1.2292
1.22749
1.22586
1.22442
1.22343
1.22274
1.22276
1.22328
1.22344
1.2229
1.22172
1.22077
1.22084
1.22177
1.22367
1.22608
1.22699
1.22686
1.22546
1.22321
1.22166
1.22128
1.22125
1.22125
1.22125
1.22125
1.22125
1.22125
1.22125
1.22125
1.22125
1.22125
1.22125
1.22125
1.22125
1.22125
1.22125
1.22125
1.22125
1.22125
1.22125
1.22125
1.22125
1.22125
1.22125
1.22125
1.22125
1.22125
1.22125
1.22125
1.22125
1.22125
1.22125
1.22125
1.22125
1.22125
1.22125
1.22125
1.22125
1.22125
1.22125
1.22125
1.22125
1.22125
1.22125
1.22125
1.22125
1.22125
1.22125
1.22125
1.22125
1.22125
1.22125
1.22125
1.22125
1.22125
1.22125
1.22125
1.22125
1.22125
1.22125
1.22125
1.22125
1.22125
1.22125
1.22125
1.22125
1.22125
1.22125
1.22125
1.22125
1.22125
1.22125
1.22125
1.22125
1.22125
1.22125
1.22125
1.22125
1.22125
1.22125
1.22125
1.22125
1.22125
1.22125
1.22125
1.22125
1.22125
1.22125
1.22125
1.22125
1.22125
1.22125
1.22127
1.22188
1.22627
1.23794
1.25344
1.26653
1.27513
1.28048
1.28445
1.28835
1.29231
1.29512
1.29575
1.29248
1.28214
1.26587
1.24702
1.22814
1.21139
1.1992
1.19298
1.19202
1.19681
1.20598
1.21304
1.21908
1.22397
1.22731
1.22929
1.23021
1.23039
1.22977
1.22872
1.22764
1.22663
1.22576
1.22506
1.22429
1.22381
1.22373
1.22349
1.22278
1.22162
1.22083
1.22108
1.22208
1.22405
1.22624
1.22697
1.22668
1.22515
1.22294
1.22157
1.22127
1.22125
1.22125
1.22125
1.22125
1.22125
1.22125
1.22125
1.22125
1.22125
1.22125
1.22125
1.22125
1.22125
1.22125
1.22125
1.22125
1.22125
1.22125
1.22125
1.22125
1.22125
1.22125
1.22125
1.22125
1.22125
1.22125
1.22125
1.22125
1.22125
1.22125
1.22125
1.22125
1.22125
1.22125
1.22125
1.22125
1.22125
1.22125
1.22125
1.22125
1.22125
1.22125
1.22125
1.22125
1.22125
1.22125
1.22125
1.22125
1.22125
1.22125
1.22125
1.22125
1.22125
1.22125
1.22125
1.22125
1.22125
1.22125
1.22125
1.22125
1.22125
1.22125
1.22125
1.22125
1.22125
1.22125
1.22125
1.22125
1.22125
1.22125
1.22125
1.22125
1.22125
1.22125
1.22125
1.22125
1.22125
1.22125
1.22125
1.22125
1.22125
1.22125
1.22125
1.22125
1.22125
1.22125
1.22125
1.22125
1.22125
1.22125
1.22125
1.22126
1.22147
1.2238
1.23234
1.2465
1.26021
1.26967
1.27512
1.27819
1.28033
1.28219
1.28344
1.28324
1.28046
1.27378
1.26228
1.24829
1.23425
1.22129
1.2111
1.20478
1.20234
1.20326
1.20831
1.21374
1.21826
1.22218
1.22514
1.2271
1.22822
1.22868
1.2286
1.22813
1.2275
1.22683
1.22627
1.22572
1.22495
1.22427
1.22389
1.22345
1.2226
1.22153
1.22093
1.22135
1.22245
1.22448
1.22638
1.22695
1.22646
1.22479
1.22265
1.22148
1.22126
1.22125
1.22125
1.22125
1.22125
1.22125
1.22125
1.22125
1.22125
1.22125
1.22125
1.22125
1.22125
1.22125
1.22125
1.22125
1.22125
1.22125
1.22125
1.22125
1.22125
1.22125
1.22125
1.22125
1.22125
1.22125
1.22125
1.22125
1.22125
1.22125
1.22125
1.22125
1.22125
1.22125
1.22125
1.22125
1.22125
1.22125
1.22125
1.22125
1.22125
1.22125
1.22125
1.22125
1.22125
1.22125
1.22125
1.22125
1.22125
1.22125
1.22125
1.22125
1.22125
1.22125
1.22125
1.22125
1.22125
1.22125
1.22125
1.22125
1.22125
1.22125
1.22125
1.22125
1.22125
1.22125
1.22125
1.22125
1.22125
1.22125
1.22125
1.22125
1.22125
1.22125
1.22125
1.22125
1.22125
1.22125
1.22125
1.22125
1.22125
1.22125
1.22125
1.22125
1.22125
1.22125
1.22125
1.22125
1.22125
1.22125
1.22125
1.22125
1.22125
1.2213
1.22227
1.22755
1.23927
1.25309
1.26376
1.26997
1.27295
1.27415
1.2746
1.27432
1.27288
1.27038
1.26603
1.25828
1.24813
1.23758
1.22765
1.21935
1.21343
1.21027
1.20949
1.21113
1.21482
1.21795
1.22087
1.22332
1.22512
1.22633
1.22703
1.22731
1.2273
1.22705
1.22663
1.2262
1.2257
1.225
1.22433
1.22387
1.2233
1.22238
1.22146
1.22109
1.22166
1.22288
1.22495
1.2265
1.2269
1.22621
1.22438
1.22235
1.2214
1.22126
1.22125
1.22125
1.22125
1.22125
1.22125
1.22125
1.22125
1.22125
1.22125
1.22125
1.22125
1.22125
1.22125
1.22125
1.22125
1.22125
1.22125
1.22125
1.22125
1.22125
1.22125
1.22125
1.22125
1.22125
1.22125
1.22125
1.22125
1.22125
1.22125
1.22125
1.22125
1.22125
1.22125
1.22125
1.22125
1.22125
1.22125
1.22125
1.22125
1.22125
1.22125
1.22125
1.22125
1.22125
1.22125
1.22125
1.22125
1.22125
1.22125
1.22125
1.22125
1.22125
1.22125
1.22125
1.22125
1.22125
1.22125
1.22125
1.22125
1.22125
1.22125
1.22125
1.22125
1.22125
1.22125
1.22125
1.22125
1.22125
1.22125
1.22125
1.22125
1.22125
1.22125
1.22125
1.22125
1.22125
1.22125
1.22125
1.22125
1.22125
1.22125
1.22125
1.22125
1.22125
1.22125
1.22125
1.22125
1.22125
1.22125
1.22125
1.22125
1.22125
1.22126
1.22154
1.2241
1.23238
1.24518
1.257
1.2646
1.26824
1.26935
1.26916
1.26775
1.26506
1.26228
1.25907
1.25397
1.24683
1.23892
1.23142
1.22475
1.2195
1.21609
1.21447
1.21434
1.21585
1.21809
1.22009
1.22195
1.22351
1.22468
1.22546
1.22602
1.22619
1.22618
1.22599
1.22568
1.22529
1.22476
1.22421
1.22372
1.22306
1.22213
1.22142
1.22132
1.22201
1.22338
1.22545
1.22661
1.2268
1.22588
1.22391
1.22206
1.22134
1.22125
1.22125
1.22125
1.22125
1.22125
1.22125
1.22125
1.22125
1.22125
1.22125
1.22125
1.22125
1.22125
1.22125
1.22125
1.22125
1.22125
1.22125
1.22125
1.22125
1.22125
1.22125
1.22125
1.22125
1.22125
1.22125
1.22125
1.22125
1.22125
1.22125
1.22125
1.22125
1.22125
1.22125
1.22125
1.22125
1.22125
1.22125
1.22125
1.22125
1.22125
1.22125
1.22125
1.22125
1.22125
1.22125
1.22125
1.22125
1.22125
1.22125
1.22125
1.22125
1.22125
1.22125
1.22125
1.22125
1.22125
1.22125
1.22125
1.22125
1.22125
1.22125
1.22125
1.22125
1.22125
1.22125
1.22125
1.22125
1.22125
1.22125
1.22125
1.22125
1.22125
1.22125
1.22125
1.22125
1.22125
1.22125
1.22125
1.22125
1.22125
1.22125
1.22125
1.22125
1.22125
1.22125
1.22125
1.22125
1.22125
1.22125
1.22125
1.22125
1.22125
1.22125
1.2213
1.22217
1.22676
1.23693
1.24907
1.25842
1.2635
1.26528
1.26521
1.26349
1.25986
1.25631
1.25334
1.24979
1.24489
1.23911
1.23337
1.22806
1.22359
1.22025
1.21814
1.21721
1.21731
1.21836
1.21976
1.22105
1.22232
1.22334
1.22411
1.22472
1.225
1.2251
1.22506
1.22489
1.22466
1.22437
1.22397
1.22345
1.22273
1.22191
1.22142
1.22163
1.22242
1.22397
1.22592
1.22672
1.22665
1.22545
1.22339
1.22179
1.2213
1.22125
1.22125
1.22125
1.22125
1.22125
1.22125
1.22125
1.22125
1.22125
1.22125
1.22125
1.22125
1.22125
1.22125
1.22125
1.22125
1.22125
1.22125
1.22125
1.22125
1.22125
1.22125
1.22125
1.22125
1.22125
1.22125
1.22125
1.22125
1.22125
1.22125
1.22125
1.22125
1.22125
1.22125
1.22125
1.22125
1.22125
1.22125
1.22125
1.22125
1.22125
1.22125
1.22125
1.22125
1.22125
1.22125
1.22125
1.22125
1.22125
1.22125
1.22125
1.22125
1.22125
1.22125
1.22125
1.22125
1.22125
1.22125
1.22125
1.22125
1.22125
1.22125
1.22125
1.22125
1.22125
1.22125
1.22125
1.22125
1.22125
1.22125
1.22125
1.22125
1.22125
1.22125
1.22125
1.22125
1.22125
1.22125
1.22125
1.22125
1.22125
1.22125
1.22125
1.22125
1.22125
1.22125
1.22125
1.22125
1.22125
1.22125
1.22125
1.22125
1.22125
1.22125
1.22126
1.22143
1.2232
1.22948
1.24017
1.25085
1.25799
1.26124
1.26193
1.26077
1.25712
1.25258
1.249
1.24604
1.24267
1.2386
1.23423
1.23011
1.22639
1.22332
1.22102
1.21957
1.21895
1.21903
1.21967
1.22057
1.22147
1.22228
1.22297
1.2235
1.22389
1.22406
1.22413
1.2241
1.22405
1.22391
1.22357
1.22303
1.22235
1.22177
1.22154
1.22199
1.22295
1.22465
1.2263
1.2268
1.22642
1.22491
1.22285
1.22157
1.22127
1.22125
1.22125
1.22125
1.22125
1.22125
1.22125
1.22125
1.22125
1.22125
1.22125
1.22125
1.22125
1.22125
1.22125
1.22125
1.22125
1.22125
1.22125
1.22125
1.22125
1.22125
1.22125
1.22125
1.22125
1.22125
1.22125
1.22125
1.22125
1.22125
1.22125
1.22125
1.22125
1.22125
1.22125
1.22125
1.22125
1.22125
1.22125
1.22125
1.22125
1.22125
1.22125
1.22125
1.22125
1.22125
1.22125
1.22125
1.22125
1.22125
1.22125
1.22125
1.22125
1.22125
1.22125
1.22125
1.22125
1.22125
1.22125
1.22125
1.22125
1.22125
1.22125
1.22125
1.22125
1.22125
1.22125
1.22125
1.22125
1.22125
1.22125
1.22125
1.22125
1.22125
1.22125
1.22125
1.22125
1.22125
1.22125
1.22125
1.22125
1.22125
1.22125
1.22125
1.22125
1.22125
1.22125
1.22125
1.22125
1.22125
1.22125
1.22125
1.22125
1.22125
1.22125
1.22125
1.22127
1.22167
1.2243
1.23149
1.24175
1.25088
1.2564
1.25849
1.25843
1.25611
1.25125
1.24677
1.24339
1.24051
1.23762
1.23449
1.23139
1.22843
1.22582
1.22365
1.22198
1.22086
1.22029
1.22019
1.22048
1.22102
1.22162
1.22213
1.22256
1.22289
1.22312
1.22328
1.22337
1.22341
1.22334
1.22303
1.22257
1.22207
1.22175
1.22183
1.22243
1.22361
1.22541
1.22658
1.2268
1.22605
1.22423
1.22231
1.22141
1.22126
1.22125
1.22125
1.22125
1.22125
1.22125
1.22125
1.22125
1.22125
1.22125
1.22125
1.22125
1.22125
1.22125
1.22125
1.22125
1.22125
1.22125
1.22125
1.22125
1.22125
1.22125
1.22125
1.22125
1.22125
1.22125
1.22125
1.22125
1.22125
1.22125
1.22125
1.22125
1.22125
1.22125
1.22125
1.22125
1.22125
1.22125
1.22125
1.22125
1.22125
1.22125
1.22125
1.22125
1.22125
1.22125
1.22125
1.22125
1.22125
1.22125
1.22125
1.22125
1.22125
1.22125
1.22125
1.22125
1.22125
1.22125
1.22125
1.22125
1.22125
1.22125
1.22125
1.22125
1.22125
1.22125
1.22125
1.22125
1.22125
1.22125
1.22125
1.22125
1.22125
1.22125
1.22125
1.22125
1.22125
1.22125
1.22125
1.22125
1.22125
1.22125
1.22125
1.22125
1.22125
1.22125
1.22125
1.22125
1.22125
1.22125
1.22125
1.22125
1.22125
1.22125
1.22125
1.22125
1.22125
1.22129
1.22191
1.22507
1.23234
1.24175
1.24962
1.2541
1.25558
1.25503
1.25163
1.24677
1.24252
1.23937
1.23677
1.23433
1.23197
1.22978
1.22778
1.22598
1.22443
1.22316
1.22221
1.22161
1.22137
1.22139
1.22156
1.22184
1.22214
1.22238
1.22257
1.22271
1.22281
1.22286
1.22279
1.22257
1.22227
1.22199
1.22189
1.22226
1.22302
1.22443
1.22614
1.22681
1.22667
1.22547
1.22345
1.22185
1.22131
1.22125
1.22125
1.22125
1.22125
1.22125
1.22125
1.22125
1.22125
1.22125
1.22125
1.22125
1.22125
1.22125
1.22125
1.22125
1.22125
1.22125
1.22125
1.22125
1.22125
1.22125
1.22125
1.22125
1.22125
1.22125
1.22125
1.22125
1.22125
1.22125
1.22125
1.22125
1.22125
1.22125
1.22125
1.22125
1.22125
1.22125
1.22125
1.22125
1.22125
1.22125
1.22125
1.22125
1.22125
1.22125
1.22125
1.22125
1.22125
1.22125
1.22125
1.22125
1.22125
1.22125
1.22125
1.22125
1.22125
1.22125
1.22125
1.22125
1.22125
1.22125
1.22125
1.22125
1.22125
1.22125
1.22125
1.22125
1.22125
1.22125
1.22125
1.22125
1.22125
1.22125
1.22125
1.22125
1.22125
1.22125
1.22125
1.22125
1.22125
1.22125
1.22125
1.22125
1.22125
1.22125
1.22125
1.22125
1.22125
1.22125
1.22125
1.22125
1.22125
1.22125
1.22125
1.22125
1.22125
1.22125
1.22125
1.22132
1.22205
1.22523
1.23198
1.24041
1.24741
1.25137
1.2526
1.25171
1.248
1.24363
1.23965
1.23653
1.23408
1.23207
1.23033
1.22877
1.22736
1.22612
1.22503
1.22411
1.22337
1.22283
1.22248
1.22232
1.22229
1.22234
1.22242
1.22251
1.22258
1.22261
1.22262
1.22255
1.22239
1.2222
1.22207
1.22224
1.2228
1.22383
1.22543
1.22669
1.22695
1.22631
1.22464
1.22265
1.22152
1.22127
1.22125
1.22125
1.22125
1.22125
1.22125
1.22125
1.22125
1.22125
1.22125
1.22125
1.22125
1.22125
1.22125
1.22125
1.22125
1.22125
1.22125
1.22125
1.22125
1.22125
1.22125
1.22125
1.22125
1.22125
1.22125
1.22125
1.22125
1.22125
1.22125
1.22125
1.22125
1.22125
1.22125
1.22125
1.22125
1.22125
1.22125
1.22125
1.22125
1.22125
1.22125
1.22125
1.22125
1.22125
1.22125
1.22125
1.22125
1.22125
1.22125
1.22125
1.22125
1.22125
1.22125
1.22125
1.22125
1.22125
1.22125
1.22125
1.22125
1.22125
1.22125
1.22125
1.22125
1.22125
1.22125
1.22125
1.22125
1.22125
1.22125
1.22125
1.22125
1.22125
1.22125
1.22125
1.22125
1.22125
1.22125
1.22125
1.22125
1.22125
1.22125
1.22125
1.22125
1.22125
1.22125
1.22125
1.22125
1.22125
1.22125
1.22125
1.22125
1.22125
1.22125
1.22125
1.22125
1.22125
1.22125
1.22125
1.22125
1.22132
1.222
1.22477
1.23057
1.23799
1.24441
1.24825
1.24954
1.24857
1.24537
1.24171
1.23816
1.23506
1.23253
1.23053
1.22895
1.22774
1.22676
1.22593
1.22519
1.22454
1.22399
1.22354
1.22322
1.22299
1.22285
1.22275
1.22271
1.22268
1.22265
1.22262
1.22252
1.2224
1.22231
1.2224
1.22281
1.22357
1.22494
1.22648
1.22701
1.22683
1.2256
1.22359
1.22195
1.22134
1.22125
1.22125
1.22125
1.22125
1.22125
1.22125
1.22125
1.22125
1.22125
1.22125
1.22125
1.22125
1.22125
1.22125
1.22125
1.22125
1.22125
1.22125
1.22125
1.22125
1.22125
1.22125
1.22125
1.22125
1.22125
1.22125
1.22125
1.22125
1.22125
1.22125
1.22125
1.22125
1.22125
1.22125
1.22125
1.22125
1.22125
1.22125
1.22125
1.22125
1.22125
1.22125
1.22125
1.22125
1.22125
1.22125
1.22125
1.22125
1.22125
1.22125
1.22125
1.22125
1.22125
1.22125
1.22125
1.22125
1.22125
1.22125
1.22125
1.22125
1.22125
1.22125
1.22125
1.22125
1.22125
1.22125
1.22125
1.22125
1.22125
1.22125
1.22125
1.22125
1.22125
1.22125
1.22125
1.22125
1.22125
1.22125
1.22125
1.22125
1.22125
1.22125
1.22125
1.22125
1.22125
1.22125
1.22125
1.22125
1.22125
1.22125
1.22125
1.22125
1.22125
1.22125
1.22125
1.22125
1.22125
1.22125
1.22125
1.22125
1.22125
1.22131
1.22181
1.22388
1.22844
1.23472
1.24067
1.24465
1.24621
1.24569
1.24343
1.24049
1.23765
1.23491
1.23245
1.23042
1.2288
1.22753
1.22652
1.22573
1.2251
1.22458
1.22415
1.22381
1.22353
1.22331
1.22314
1.22301
1.22291
1.22283
1.22277
1.2227
1.22268
1.22274
1.22305
1.22368
1.22481
1.22631
1.22712
1.22711
1.22626
1.22445
1.22252
1.22149
1.22127
1.22125
1.22125
1.22125
1.22125
1.22125
1.22125
1.22125
1.22125
1.22125
1.22125
1.22125
1.22125
1.22125
1.22125
1.22125
1.22125
1.22125
1.22125
1.22125
1.22125
1.22125
1.22125
1.22125
1.22125
1.22125
1.22125
1.22125
1.22125
1.22125
1.22125
1.22125
1.22125
1.22125
1.22125
1.22125
1.22125
1.22125
1.22125
1.22125
1.22125
1.22125
1.22125
1.22125
1.22125
1.22125
1.22125
1.22125
1.22125
1.22125
1.22125
1.22125
1.22125
1.22125
1.22125
1.22125
1.22125
1.22125
1.22125
1.22125
1.22125
1.22125
1.22125
1.22125
1.22125
1.22125
1.22125
1.22125
1.22125
1.22125
1.22125
1.22125
1.22125
1.22125
1.22125
1.22125
1.22125
1.22125
1.22125
1.22125
1.22125
1.22125
1.22125
1.22125
1.22125
1.22125
1.22125
1.22125
1.22125
1.22125
1.22125
1.22125
1.22125
1.22125
1.22125
1.22125
1.22125
1.22125
1.22125
1.22125
1.22125
1.22125
1.22125
1.22128
1.22157
1.22286
1.22603
1.23094
1.23624
1.2404
1.24252
1.24275
1.24161
1.23957
1.23735
1.23525
1.23325
1.23135
1.2297
1.22837
1.22731
1.22646
1.22577
1.22521
1.22475
1.22438
1.22409
1.22385
1.22368
1.22353
1.22343
1.22336
1.2233
1.22336
1.22364
1.22419
1.22515
1.22649
1.22724
1.2273
1.22667
1.22508
1.22308
1.22172
1.2213
1.22125
1.22125
1.22125
1.22125
1.22125
1.22125
1.22125
1.22125
1.22125
1.22125
1.22125
1.22125
1.22125
1.22125
1.22125
1.22125
1.22125
1.22125
1.22125
1.22125
1.22125
1.22125
1.22125
1.22125
1.22125
1.22125
1.22125
1.22125
1.22125
1.22125
1.22125
1.22125
1.22125
1.22125
1.22125
1.22125
1.22125
1.22125
1.22125
1.22125
1.22125
1.22125
1.22125
1.22125
1.22125
1.22125
1.22125
1.22125
1.22125
1.22125
1.22125
1.22125
1.22125
1.22125
1.22125
1.22125
1.22125
1.22125
1.22125
1.22125
1.22125
1.22125
1.22125
1.22125
1.22125
1.22125
1.22125
1.22125
1.22125
1.22125
1.22125
1.22125
1.22125
1.22125
1.22125
1.22125
1.22125
1.22125
1.22125
1.22125
1.22125
1.22125
1.22125
1.22125
1.22125
1.22125
1.22125
1.22125
1.22125
1.22125
1.22125
1.22125
1.22125
1.22125
1.22125
1.22125
1.22125
1.22125
1.22125
1.22125
1.22125
1.22125
1.22125
1.22125
1.22126
1.22139
1.22203
1.22386
1.2272
1.23145
1.23546
1.23821
1.23932
1.23922
1.23834
1.23693
1.23533
1.23382
1.23244
1.23117
1.22998
1.22888
1.22795
1.22716
1.22652
1.226
1.22559
1.22525
1.225
1.2248
1.22468
1.22458
1.22455
1.22476
1.22524
1.22606
1.22698
1.22741
1.22746
1.22686
1.2254
1.22344
1.22194
1.22135
1.22126
1.22125
1.22125
1.22125
1.22125
1.22125
1.22125
1.22125
1.22125
1.22125
1.22125
1.22125
1.22125
1.22125
1.22125
1.22125
1.22125
1.22125
1.22125
1.22125
1.22125
1.22125
1.22125
1.22125
1.22125
1.22125
1.22125
1.22125
1.22125
1.22125
1.22125
1.22125
1.22125
1.22125
1.22125
1.22125
1.22125
1.22125
1.22125
1.22125
1.22125
1.22125
1.22125
1.22125
1.22125
1.22125
1.22125
1.22125
1.22125
1.22125
1.22125
1.22125
1.22125
1.22125
1.22125
1.22125
1.22125
1.22125
1.22125
1.22125
1.22125
1.22125
1.22125
1.22125
1.22125
1.22125
1.22125
1.22125
1.22125
1.22125
1.22125
1.22125
1.22125
1.22125
1.22125
1.22125
1.22125
1.22125
1.22125
1.22125
1.22125
1.22125
1.22125
1.22125
1.22125
1.22125
1.22125
1.22125
1.22125
1.22125
1.22125
1.22125
1.22125
1.22125
1.22125
1.22125
1.22125
1.22125
1.22125
1.22125
1.22125
1.22125
1.22125
1.22125
1.22125
1.22125
1.22126
1.2213
1.22153
1.22235
1.22416
1.22698
1.23024
1.23313
1.2351
1.23598
1.23605
1.23561
1.23486
1.2339
1.23288
1.23189
1.23102
1.23026
1.22958
1.22899
1.22845
1.22798
1.22758
1.22727
1.22701
1.22685
1.22675
1.22673
1.22689
1.22716
1.22742
1.2276
1.22748
1.22679
1.22537
1.22352
1.22203
1.22139
1.22126
1.22125
1.22125
1.22125
1.22125
1.22125
1.22125
1.22125
1.22125
1.22125
1.22125
1.22125
1.22125
1.22125
1.22125
1.22125
1.22125
1.22125
1.22125
1.22125
1.22125
1.22125
1.22125
1.22125
1.22125
1.22125
1.22125
1.22125
1.22125
1.22125
1.22125
1.22125
1.22125
1.22125
1.22125
1.22125
1.22125
1.22125
1.22125
1.22125
1.22125
1.22125
1.22125
1.22125
1.22125
1.22125
1.22125
1.22125
1.22125
1.22125
1.22125
1.22125
1.22125
1.22125
1.22125
1.22125
1.22125
1.22125
1.22125
1.22125
1.22125
1.22125
1.22125
1.22125
1.22125
1.22125
1.22125
1.22125
1.22125
1.22125
1.22125
1.22125
1.22125
1.22125
1.22125
1.22125
1.22125
1.22125
1.22125
1.22125
1.22125
1.22125
1.22125
1.22125
1.22125
1.22125
1.22125
1.22125
1.22125
1.22125
1.22125
1.22125
1.22125
1.22125
1.22125
1.22125
1.22125
1.22125
1.22125
1.22125
1.22125
1.22125
1.22125
1.22125
1.22125
1.22125
1.22125
1.22125
1.22125
1.22126
1.22132
1.22158
1.22229
1.22367
1.22568
1.22796
1.23005
1.23162
1.2326
1.23298
1.23297
1.23272
1.23231
1.23183
1.23129
1.23075
1.23023
1.22976
1.22934
1.22899
1.22869
1.22844
1.22825
1.22809
1.22794
1.22785
1.22781
1.22767
1.22725
1.22637
1.22493
1.22325
1.22196
1.22138
1.22126
1.22125
1.22125
1.22125
1.22125
1.22125
1.22125
1.22125
1.22125
1.22125
1.22125
1.22125
1.22125
1.22125
1.22125
1.22125
1.22125
1.22125
1.22125
1.22125
1.22125
1.22125
1.22125
1.22125
1.22125
1.22125
1.22125
1.22125
1.22125
1.22125
1.22125
1.22125
1.22125
1.22125
1.22125
1.22125
1.22125
1.22125
1.22125
1.22125
1.22125
1.22125
1.22125
1.22125
1.22125
1.22125
1.22125
1.22125
1.22125
1.22125
1.22125
1.22125
1.22125
1.22125
1.22125
1.22125
1.22125
1.22125
1.22125
1.22125
1.22125
1.22125
1.22125
1.22125
1.22125
1.22125
1.22125
1.22125
1.22125
1.22125
1.22125
1.22125
1.22125
1.22125
1.22125
1.22125
1.22125
1.22125
1.22125
1.22125
1.22125
1.22125
1.22125
1.22125
1.22125
1.22125
1.22125
1.22125
1.22125
1.22125
1.22125
1.22125
1.22125
1.22125
1.22125
1.22125
1.22125
1.22125
1.22125
1.22125
1.22125
1.22125
1.22125
1.22125
1.22125
1.22125
1.22125
1.22125
1.22125
1.22125
1.22125
1.22125
1.22126
1.22132
1.2215
1.22194
1.22276
1.22395
1.22536
1.22678
1.22802
1.22897
1.22962
1.23
1.23014
1.23012
1.23
1.22981
1.2296
1.22936
1.22912
1.22889
1.22867
1.22846
1.22826
1.228
1.22763
1.22716
1.22647
1.22541
1.22404
1.22268
1.22174
1.22135
1.22126
1.22125
1.22125
1.22125
1.22125
1.22125
1.22125
1.22125
1.22125
1.22125
1.22125
1.22125
1.22125
1.22125
1.22125
1.22125
1.22125
1.22125
1.22125
1.22125
1.22125
1.22125
1.22125
1.22125
1.22125
1.22125
1.22125
1.22125
1.22125
1.22125
1.22125
1.22125
1.22125
1.22125
1.22125
1.22125
1.22125
1.22125
1.22125
1.22125
1.22125
1.22125
1.22125
1.22125
1.22125
1.22125
1.22125
1.22125
1.22125
1.22125
1.22125
1.22125
1.22125
1.22125
1.22125
1.22125
1.22125
1.22125
1.22125
1.22125
1.22125
1.22125
1.22125
1.22125
1.22125
1.22125
1.22125
1.22125
1.22125
1.22125
1.22125
1.22125
1.22125
1.22125
1.22125
1.22125
1.22125
1.22125
1.22125
1.22125
1.22125
1.22125
1.22125
1.22125
1.22125
1.22125
1.22125
1.22125
1.22125
1.22125
1.22125
1.22125
1.22125
1.22125
1.22125
1.22125
1.22125
1.22125
1.22125
1.22125
1.22125
1.22125
1.22125
1.22125
1.22125
1.22125
1.22125
1.22125
1.22125
1.22125
1.22125
1.22125
1.22125
1.22125
1.22125
1.22126
1.22129
1.22137
1.22156
1.22192
1.22245
1.22314
1.22391
1.22468
1.22539
1.22598
1.22644
1.22677
1.22699
1.22711
1.22715
1.22713
1.22705
1.22693
1.22678
1.22659
1.22624
1.22564
1.22485
1.22389
1.22286
1.22201
1.22149
1.2213
1.22126
1.22125
1.22125
1.22125
1.22125
1.22125
1.22125
1.22125
1.22125
1.22125
1.22125
1.22125
1.22125
1.22125
1.22125
1.22125
1.22125
1.22125
1.22125
1.22125
1.22125
1.22125
1.22125
1.22125
1.22125
1.22125
1.22125
1.22125
1.22125
1.22125
1.22125
1.22125
1.22125
1.22125
1.22125
1.22125
1.22125
1.22125
1.22125
1.22125
1.22125
1.22125
1.22125
1.22125
1.22125
1.22125
1.22125
1.22125
1.22125
1.22125
1.22125
1.22125
1.22125
1.22125
1.22125
1.22125
1.22125
1.22125
1.22125
1.22125
1.22125
1.22125
1.22125
1.22125
1.22125
1.22125
1.22125
1.22125
1.22125
1.22125
1.22125
1.22125
1.22125
1.22125
1.22125
1.22125
1.22125
1.22125
1.22125
1.22125
1.22125
1.22125
1.22125
1.22125
1.22125
1.22125
1.22125
1.22125
1.22125
1.22125
1.22125
1.22125
1.22125
1.22125
1.22125
1.22125
1.22125
1.22125
1.22125
1.22125
1.22125
1.22125
1.22125
1.22125
1.22125
1.22125
1.22125
1.22125
1.22125
1.22125
1.22125
1.22125
1.22125
1.22125
1.22125
1.22125
1.22125
1.22125
1.22125
1.22126
1.22129
1.22134
1.22144
1.22159
1.22181
1.22208
1.22237
1.22268
1.22296
1.22322
1.22342
1.22358
1.22367
1.22372
1.2237
1.22364
1.22353
1.22327
1.22282
1.22232
1.22185
1.2215
1.22133
1.22127
1.22125
1.22125
1.22125
1.22125
1.22125
1.22125
1.22125
1.22125
1.22125
1.22125
1.22125
1.22125
1.22125
1.22125
1.22125
1.22125
1.22125
1.22125
1.22125
1.22125
1.22125
1.22125
1.22125
1.22125
1.22125
1.22125
1.22125
1.22125
1.22125
1.22125
1.22125
1.22125
1.22125
1.22125
1.22125
1.22125
1.22125
1.22125
1.22125
1.22125
1.22125
1.22125
1.22125
1.22125
1.22125
1.22125
1.22125
1.22125
1.22125
1.22125
1.22125
1.22125
1.22125
1.22125
1.22125
1.22125
1.22125
1.22125
1.22125
1.22125
1.22125
1.22125
1.22125
1.22125
1.22125
1.22125
1.22125
1.22125
1.22125
1.22125
1.22125
1.22125
1.22125
1.22125
1.22125
1.22125
1.22125
1.22125
1.22125
1.22125
1.22125
1.22125
1.22125
1.22125
1.22125
1.22125
1.22125
1.22125
1.22125
1.22125
1.22125
1.22125
1.22125
1.22125
1.22125
1.22125
1.22125
1.22125
1.22125
1.22125
1.22125
1.22125
1.22125
1.22125
1.22125
1.22125
1.22125
1.22125
1.22125
1.22125
1.22125
1.22125
1.22125
1.22125
1.22125
1.22125
1.22125
1.22125
1.22125
1.22125
1.22125
1.22125
1.22125
1.22126
1.22126
1.22128
1.2213
1.22134
1.22138
1.22143
1.22149
1.22154
1.22159
1.22163
1.22165
1.22166
1.22165
1.22162
1.22156
1.22146
1.22136
1.2213
1.22126
1.22125
1.22125
1.22125
1.22125
1.22125
1.22125
1.22125
1.22125
1.22125
1.22125
1.22125
1.22125
1.22125
1.22125
1.22125
1.22125
1.22125
1.22125
1.22125
1.22125
1.22125
1.22125
1.22125
1.22125
1.22125
1.22125
1.22125
1.22125
1.22125
1.22125
1.22125
1.22125
1.22125
1.22125
1.22125
1.22125
1.22125
1.22125
1.22125
1.22125
1.22125
1.22125
1.22125
1.22125
1.22125
1.22125
1.22125
1.22125
1.22125
1.22125
1.22125
1.22125
1.22125
1.22125
1.22125
1.22125
1.22125
1.22125
1.22125
1.22125
1.22125
1.22125
1.22125
1.22125
1.22125
1.22125
1.22125
1.22125
1.22125
1.22125
1.22125
1.22125
1.22125
1.22125
1.22125
1.22125
1.22125
1.22125
1.22125
1.22125
1.22125
1.22125
1.22125
1.22125
1.22125
1.22125
1.22125
1.22125
1.22125
1.22125
1.22125
1.22125
1.22125
1.22125
1.22125
1.22125
1.22125
1.22125
1.22125
1.22125
1.22125
1.22125
1.22125
1.22125
1.22125
1.22125
1.22125