/*--------------------------------*- C++ -*----------------------------------*\
| =========                 |                                                 |
| \\      /  F ield         | OpenFOAM: The Open Source CFD Toolbox           |
|  \\    /   O peration     | Version:  2406                                  |
|   \\  /    A nd           | Website:  www.openfoam.com                      |
|    \\/     M anipulation  |                                                 |
\*---------------------------------------------------------------------------*/
FoamFile
{
    version     2.0;
    format      ascii;
    arch        "LSB;label=32;scalar=64";
    class       volScalarField;
    location    "0.02";
    object      Ma;
}
// * * * * * * * * * * * * * * * * * * * * * * * * * * * * * * * * * * * * * //

dimensions      [0 0 0 0 0 0 0];

internalField   nonuniform List<scalar> 
83682
(
1.132
1.132
1.132
1.132
1.132
1.132
1.132
1.132
1.132
1.13184
1.12779
1.08126
1.02475
1.02064
1.02055
1.02043
1.02033
1.02026
1.02018
1.02006
1.0199
1.01977
1.01965
1.01954
1.01941
1.01931
1.01925
1.0192
1.01914
1.01908
1.01903
1.019
1.01899
1.01897
1.01895
1.01893
1.01891
1.01888
1.01885
1.01884
1.01885
1.01887
1.01891
1.01894
1.01897
1.019
1.01902
1.01904
1.01905
1.01907
1.01908
1.0191
1.01913
1.01914
1.01915
1.01915
1.01916
1.01916
1.01915
1.01914
1.01914
1.01913
1.01913
1.01912
1.01911
1.0191
1.01908
1.01907
1.01907
1.01906
1.01906
1.01906
1.01906
1.01906
1.01904
1.01904
1.01903
1.01902
1.01902
1.01903
1.01904
1.01907
1.01908
1.01908
1.01909
1.01909
1.01908
1.01908
1.01908
1.01908
1.01909
1.01911
1.01911
1.01911
1.01911
1.01911
1.01911
1.0191
1.0191
1.0191
1.01911
1.01911
1.0191
1.01909
1.01909
1.01908
1.01908
1.01908
1.01908
1.01909
1.0191
1.01909
1.01909
1.01908
1.01907
1.01906
1.01906
1.01905
1.01906
1.01907
1.01907
1.01907
1.01907
1.01907
1.01907
1.01907
1.01908
1.01908
1.01909
1.01909
1.01908
1.01907
1.01906
1.01902
1.01897
1.01888
1.01872
1.01844
1.01793
1.01705
1.01558
1.01317
1.00936
1.00354
0.994956
0.982819
0.966401
0.945244
0.919421
0.889751
0.85794
0.826692
0.799556
0.779512
0.768848
0.766346
0.765681
0.765327
0.765261
0.765303
0.765458
0.765749
0.766133
0.766528
0.766927
0.767182
0.76719
0.76715
0.767254
0.767841
0.769493
0.772246
0.775121
0.777301
0.778546
0.779136
0.779379
0.77939
0.779176
0.778932
0.778686
0.778411
0.778069
0.777687
0.777296
0.776898
0.776053
0.774028
0.773026
0.772092
0.771276
0.770525
0.769844
0.769238
0.768702
0.768232
0.767838
0.767562
0.767376
0.767235
0.767122
0.767008
0.766884
0.766757
0.76662
0.76646
0.766282
0.766117
0.766002
0.765933
0.765887
0.765857
0.765831
0.765784
0.765715
0.765639
0.765552
0.765446
0.76533
0.765248
0.765218
0.765217
0.765251
0.76533
0.765444
0.765574
0.765708
0.765833
0.765921
0.765997
0.76606
0.766117
0.766151
0.766149
0.766087
0.766034
0.765998
0.765905
0.765769
0.765606
0.765497
0.76545
0.765448
0.765508
0.765573
0.765641
0.765705
0.765761
0.765789
0.765762
0.765703
0.765636
0.765571
0.765517
0.765465
0.765425
0.765417
0.76543
0.765445
0.765457
0.765455
0.765439
0.765411
0.765372
0.765323
0.765268
0.7652
0.765034
0.764267
0.759743
0.732786
0.598465
0.233894
0.0123303
4.90051e-05
1.1512e-08
3.17772e-13
3.95752e-14
4.19247e-14
3.63767e-14
2.45501e-14
1.94884e-14
1.50493e-14
1.27013e-14
1.72131e-14
2.28411e-14
1.96813e-14
1.3583e-14
1.13063e-14
6.41401e-15
9.86472e-15
1.40286e-14
2.0521e-14
2.17905e-14
2.65847e-14
3.1083e-14
3.3763e-14
3.05531e-14
3.42264e-14
3.39032e-14
3.20803e-14
3.53182e-14
3.72605e-14
3.13805e-14
2.34313e-14
2.30273e-14
2.1903e-14
1.93258e-14
1.91796e-14
1.86183e-14
1.52004e-14
1.57663e-14
2.44476e-14
3.07595e-14
3.25479e-14
2.8872e-14
2.59078e-14
1.92343e-14
1.25971e-14
2.38309e-15
1.25583e-14
1.85072e-14
1.74813e-14
1.71025e-14
1.60542e-14
1.11025e-14
1.13423e-14
1.4575e-14
1.51313e-14
1.50826e-14
1.4446e-14
2.00387e-14
2.20294e-14
2.74097e-14
3.2017e-14
3.62038e-14
3.9413e-14
4.03987e-14
3.67795e-14
2.99802e-14
2.11528e-14
1.99975e-14
1.43862e-14
1.17798e-14
6.66203e-15
1.38234e-14
1.4158e-14
1.44733e-14
1.48983e-14
1.36097e-14
1.63275e-14
2.3875e-14
2.3313e-14
2.69157e-14
2.79563e-14
2.78765e-14
1.85825e-14
1.31015e-14
1.23381e-14
1.15987e-14
7.37668e-15
4.64044e-15
5.34991e-15
8.59892e-15
8.49149e-15
7.25072e-15
7.49598e-15
3.60708e-15
4.16959e-15
7.93034e-15
7.08667e-15
9.59873e-15
1.12924e-14
1.52387e-14
1.9303e-14
1.50428e-14
1.54646e-14
2.13447e-14
2.76518e-14
2.64648e-14
3.31636e-14
5.10475e-14
6.7433e-14
7.03233e-14
6.32168e-14
5.35015e-14
3.64938e-14
2.18057e-14
1.75053e-14
1.52206e-14
1.539e-14
1.5109e-14
1.19974e-14
1.34389e-14
2.14833e-14
2.65127e-14
3.20883e-14
3.71127e-14
3.56183e-14
3.41034e-14
3.3287e-14
1.97523e-14
6.15174e-15
5.0197e-15
4.13484e-15
1.17964e-14
1.91337e-14
2.00811e-14
1.22503e-14
1.59726e-14
2.50942e-14
2.54684e-14
2.43133e-14
1.56394e-14
1.7301e-14
1.43351e-14
1.33322e-14
1.32552e-14
1.05012e-14
1.01298e-14
1.04259e-14
1.16132e-14
1.62465e-14
1.62635e-14
1.60561e-14
2.25573e-14
2.26591e-14
1.70702e-14
1.07785e-14
8.67109e-15
1.24377e-14
1.5574e-14
1.2451e-14
7.69485e-15
6.9088e-15
1.19079e-14
1.49571e-14
1.62327e-14
2.04956e-14
2.09635e-14
1.60706e-14
1.35923e-14
1.69862e-14
2.52111e-14
3.02932e-14
3.08921e-14
2.91437e-14
2.42432e-14
2.14596e-14
1.92863e-14
2.21168e-14
2.40182e-14
2.74512e-14
2.71892e-14
2.9335e-14
3.64136e-14
3.83258e-14
3.57872e-14
2.97667e-14
3.08365e-14
2.78192e-14
2.77094e-14
2.95762e-14
3.142e-14
3.03393e-14
2.3136e-14
1.29087e-14
2.79965e-15
7.87548e-15
1.66073e-14
2.2323e-14
2.04521e-14
1.89103e-14
2.17326e-14
2.4762e-14
2.26358e-14
2.43062e-14
2.5012e-14
2.24323e-14
2.20347e-14
2.37669e-14
2.33966e-14
1.98966e-14
2.2401e-14
2.29105e-14
1.85156e-14
1.73094e-14
1.44701e-14
1.25255e-14
1.415e-14
1.9887e-14
2.09949e-14
2.63241e-14
3.40359e-14
4.31575e-14
5.27608e-14
6.21596e-14
6.45878e-14
6.05865e-14
4.21457e-14
2.31234e-14
1.08259e-14
1.14759e-14
9.30591e-15
1.69026e-14
1.80975e-14
1.2463e-14
1.06987e-14
1.85287e-14
2.8067e-14
3.33523e-14
2.65882e-14
1.60847e-14
1.21999e-14
6.5927e-15
9.43528e-15
1.63901e-14
1.64815e-14
1.27747e-14
8.10091e-15
1.06183e-14
1.0917e-14
1.17064e-14
1.10562e-14
9.67943e-15
1.34331e-14
1.5034e-14
1.24528e-14
1.78554e-14
2.44388e-14
2.42655e-14
2.64452e-14
3.12812e-14
3.69524e-14
4.09048e-14
3.62282e-14
3.95469e-14
4.1336e-14
4.08391e-14
4.52305e-14
4.40968e-14
4.67306e-14
4.85944e-14
4.61013e-14
3.6737e-14
2.49822e-14
1.88831e-14
1.16621e-14
2.58137e-15
7.69808e-15
7.68434e-15
7.98483e-15
1.06722e-14
1.2029e-14
2.15783e-14
3.26653e-14
3.8221e-14
4.2449e-14
3.44969e-14
3.01654e-14
3.50177e-14
4.33149e-14
3.86057e-14
4.24921e-14
4.37955e-14
3.71683e-14
3.63704e-14
3.04937e-14
2.97922e-14
3.01325e-14
2.90734e-14
2.52888e-14
2.04739e-14
1.97364e-14
1.52114e-14
1.13695e-14
1.12902e-14
1.37651e-14
1.85314e-14
2.42199e-14
2.89957e-14
3.08914e-14
2.95096e-14
2.64214e-14
2.73839e-14
3.12771e-14
3.76661e-14
4.39885e-14
4.92879e-14
4.66292e-14
4.30883e-14
3.87088e-14
3.74834e-14
3.46477e-14
2.69933e-14
2.54354e-14
2.2384e-14
2.51338e-14
3.0084e-14
2.95216e-14
3.07391e-14
2.85912e-14
2.78521e-14
3.57676e-14
4.09156e-14
4.14595e-14
3.79166e-14
3.18289e-14
2.44174e-14
2.09986e-14
2.06712e-14
1.38331e-14
1.26349e-14
1.71223e-14
1.57813e-14
1.11914e-14
1.16828e-14
1.21153e-14
1.12119e-14
1.02241e-14
8.64974e-15
1.03789e-14
1.05722e-14
1.40666e-14
1.79466e-14
2.46985e-14
1.61218e-14
5.85084e-15
3.30094e-15
5.29027e-15
1.51978e-14
1.53113e-14
1.92775e-14
2.23659e-14
2.27826e-14
1.8373e-14
1.90081e-14
2.51979e-14
3.10889e-14
3.04789e-14
2.56058e-14
2.45959e-14
2.70204e-14
3.02477e-14
2.40417e-14
1.89323e-14
1.42635e-14
1.4119e-14
1.31445e-14
1.44924e-14
2.04554e-14
2.57855e-14
2.68186e-14
2.71897e-14
2.53563e-14
2.90014e-14
3.42768e-14
3.40857e-14
3.68128e-14
3.79476e-14
3.12488e-14
2.36855e-14
1.8799e-14
1.71963e-14
1.89161e-14
1.55511e-14
1.50852e-14
1.62725e-14
1.50877e-14
1.23907e-14
1.4233e-14
1.82876e-14
1.83403e-14
2.16387e-14
2.91641e-14
3.42215e-14
4.22388e-14
5.12368e-14
4.51117e-14
3.76706e-14
3.24953e-14
2.37643e-14
1.84462e-14
2.42574e-14
2.50011e-14
2.28269e-14
2.28063e-14
2.3418e-14
1.70773e-14
8.60266e-15
1.00951e-14
1.02566e-14
1.36172e-14
1.82904e-14
2.46614e-14
1.132
1.132
1.132
1.132
1.132
1.132
1.132
1.132
1.132
1.13184
1.12779
1.08126
1.02475
1.02064
1.02055
1.02043
1.02033
1.02026
1.02018
1.02006
1.0199
1.01977
1.01965
1.01954
1.01941
1.01931
1.01925
1.0192
1.01914
1.01908
1.01903
1.019
1.01899
1.01897
1.01895
1.01893
1.01891
1.01888
1.01885
1.01884
1.01885
1.01887
1.01891
1.01894
1.01897
1.019
1.01902
1.01904
1.01905
1.01907
1.01908
1.0191
1.01913
1.01914
1.01915
1.01915
1.01916
1.01916
1.01915
1.01914
1.01914
1.01913
1.01913
1.01912
1.01911
1.0191
1.01908
1.01907
1.01907
1.01906
1.01906
1.01906
1.01906
1.01906
1.01904
1.01904
1.01903
1.01902
1.01902
1.01903
1.01904
1.01907
1.01908
1.01908
1.01909
1.01909
1.01908
1.01908
1.01908
1.01908
1.01909
1.01911
1.01911
1.01911
1.01911
1.01911
1.01911
1.0191
1.0191
1.0191
1.01911
1.01911
1.0191
1.01909
1.01909
1.01908
1.01908
1.01908
1.01908
1.01909
1.0191
1.01909
1.01909
1.01908
1.01907
1.01906
1.01906
1.01905
1.01906
1.01907
1.01907
1.01907
1.01907
1.01907
1.01907
1.01907
1.01908
1.01908
1.01909
1.01909
1.01908
1.01907
1.01906
1.01902
1.01897
1.01888
1.01872
1.01844
1.01793
1.01705
1.01558
1.01317
1.00936
1.00354
0.994956
0.982819
0.966401
0.945244
0.919421
0.889751
0.85794
0.826692
0.799556
0.779512
0.768848
0.766346
0.765681
0.765327
0.765261
0.765303
0.765458
0.765749
0.766133
0.766529
0.766928
0.767182
0.767189
0.767145
0.767238
0.767808
0.769442
0.77222
0.775132
0.777325
0.778562
0.779147
0.779387
0.779395
0.779172
0.778914
0.778646
0.778339
0.777959
0.777529
0.777075
0.77658
0.775686
0.774104
0.773043
0.772101
0.771285
0.770538
0.769858
0.769252
0.768715
0.768244
0.767848
0.767568
0.767376
0.767232
0.767117
0.767003
0.766878
0.766751
0.766613
0.766453
0.766274
0.766108
0.765992
0.765923
0.765878
0.765849
0.765824
0.765777
0.765709
0.765633
0.765547
0.765442
0.765328
0.765245
0.765214
0.765212
0.765245
0.765324
0.765442
0.765582
0.765729
0.765862
0.765958
0.766042
0.766111
0.766173
0.76621
0.766201
0.766124
0.766054
0.766
0.765896
0.765753
0.765589
0.765474
0.765415
0.765418
0.765488
0.765563
0.765637
0.765705
0.765762
0.765791
0.765763
0.765705
0.765636
0.765572
0.765516
0.765464
0.765426
0.765419
0.765431
0.765445
0.765456
0.765455
0.76544
0.765412
0.765374
0.765325
0.765275
0.765213
0.765057
0.764302
0.759787
0.732839
0.598528
0.233944
0.0123346
4.90252e-05
1.15168e-08
3.18514e-13
3.90512e-14
3.81097e-14
3.22463e-14
2.30085e-14
1.54235e-14
1.21033e-14
1.24158e-14
1.71599e-14
2.31325e-14
1.91637e-14
1.42789e-14
9.4099e-15
4.64905e-15
7.18222e-15
1.22227e-14
1.72554e-14
1.82808e-14
2.21861e-14
2.59361e-14
2.99528e-14
2.84361e-14
3.23376e-14
3.09683e-14
3.07463e-14
3.05392e-14
3.09234e-14
2.58264e-14
2.1124e-14
2.12647e-14
1.97753e-14
1.86966e-14
1.98814e-14
1.99598e-14
1.6895e-14
1.44223e-14
2.13641e-14
2.81805e-14
3.19667e-14
2.92729e-14
2.47494e-14
1.63439e-14
1.2165e-14
3.44965e-15
1.11149e-14
1.50351e-14
1.66958e-14
1.69638e-14
1.58749e-14
1.37717e-14
1.20728e-14
1.50031e-14
1.49539e-14
1.60235e-14
1.62967e-14
2.09267e-14
2.1834e-14
2.52671e-14
3.08629e-14
3.73138e-14
3.63253e-14
3.46782e-14
3.28507e-14
2.74931e-14
1.93557e-14
1.56909e-14
1.15616e-14
1.01878e-14
4.87315e-15
7.68866e-15
1.21658e-14
9.35864e-15
8.67043e-15
9.27957e-15
1.12495e-14
1.70096e-14
1.74859e-14
2.18067e-14
2.47255e-14
2.23287e-14
1.58333e-14
1.26282e-14
1.01355e-14
8.05376e-15
2.61999e-15
4.51401e-15
6.5532e-15
9.12824e-15
9.57384e-15
9.43025e-15
6.31394e-15
5.30397e-15
5.34758e-15
6.06102e-15
7.51145e-15
1.14335e-14
1.15454e-14
1.23082e-14
1.67003e-14
1.6255e-14
1.83435e-14
2.15116e-14
2.73858e-14
2.89259e-14
2.9149e-14
4.35786e-14
5.69623e-14
6.03767e-14
5.51206e-14
4.62494e-14
3.20673e-14
2.02975e-14
1.45685e-14
1.13283e-14
1.09799e-14
1.39099e-14
1.38841e-14
1.56295e-14
2.17617e-14
2.44935e-14
3.06817e-14
3.5389e-14
3.42599e-14
3.28727e-14
3.09473e-14
2.19533e-14
8.58535e-15
6.7327e-15
3.90068e-15
7.43791e-15
1.30712e-14
1.33644e-14
6.38563e-15
1.32798e-14
2.08583e-14
2.32687e-14
2.22087e-14
1.55003e-14
1.75289e-14
1.30058e-14
1.24193e-14
9.69773e-15
8.27808e-15
1.03583e-14
1.26757e-14
1.29486e-14
1.56003e-14
1.34736e-14
1.68755e-14
2.09957e-14
1.95686e-14
1.69916e-14
1.41064e-14
1.26019e-14
1.39854e-14
1.17733e-14
7.67215e-15
3.88498e-15
6.907e-15
1.06034e-14
1.53522e-14
1.73631e-14
2.07222e-14
1.91587e-14
1.55849e-14
1.23113e-14
1.42442e-14
2.13796e-14
2.47495e-14
2.73167e-14
2.6161e-14
2.42918e-14
2.16387e-14
1.96931e-14
2.19834e-14
2.36662e-14
2.61566e-14
2.52922e-14
2.92764e-14
3.31868e-14
3.18448e-14
3.1384e-14
2.97929e-14
2.99406e-14
2.75095e-14
2.69992e-14
2.97472e-14
3.19452e-14
2.77995e-14
2.03438e-14
1.24493e-14
3.75373e-15
6.9404e-15
1.32148e-14
1.72341e-14
1.92277e-14
1.91377e-14
2.06676e-14
2.4e-14
2.55722e-14
2.56681e-14
2.68292e-14
2.59731e-14
2.8797e-14
2.63229e-14
2.17555e-14
1.81281e-14
2.02151e-14
2.23696e-14
1.78855e-14
1.63815e-14
1.46643e-14
1.13392e-14
1.75736e-14
2.10854e-14
2.18887e-14
2.46519e-14
3.28243e-14
4.37186e-14
4.7431e-14
5.29487e-14
5.53765e-14
5.08774e-14
3.77936e-14
2.32429e-14
1.41161e-14
1.34862e-14
1.02436e-14
1.38805e-14
1.53136e-14
1.26316e-14
1.12874e-14
1.54738e-14
2.20162e-14
2.50084e-14
2.22469e-14
1.7733e-14
1.27457e-14
3.78395e-15
1.01741e-14
1.44426e-14
1.57247e-14
1.47924e-14
1.14185e-14
1.21809e-14
1.32322e-14
1.14257e-14
1.25208e-14
1.30452e-14
1.54537e-14
1.69388e-14
1.24672e-14
1.38241e-14
1.97125e-14
2.07021e-14
2.171e-14
2.6784e-14
3.14364e-14
3.43859e-14
3.27795e-14
3.52098e-14
3.66067e-14
4.21536e-14
4.30163e-14
4.49677e-14
4.91687e-14
4.65212e-14
4.40431e-14
4.02413e-14
2.89353e-14
1.84192e-14
8.88843e-15
4.42428e-15
5.35492e-15
3.82483e-15
4.76427e-15
7.80947e-15
1.03364e-14
2.01671e-14
3.02986e-14
3.54872e-14
3.76661e-14
3.47822e-14
3.15616e-14
3.4976e-14
3.95117e-14
3.3538e-14
3.67166e-14
3.79051e-14
3.18824e-14
3.37325e-14
2.93336e-14
2.52579e-14
2.67081e-14
2.38442e-14
2.18121e-14
1.67861e-14
1.63275e-14
1.19665e-14
1.05532e-14
9.09836e-15
1.38911e-14
1.62681e-14
1.88256e-14
2.61416e-14
2.66792e-14
2.56319e-14
2.4912e-14
2.65727e-14
2.8747e-14
3.75613e-14
4.47517e-14
4.82888e-14
4.63652e-14
4.50557e-14
4.13506e-14
3.72392e-14
3.38912e-14
2.86549e-14
2.53255e-14
2.38955e-14
2.62381e-14
3.0946e-14
3.0647e-14
3.31351e-14
3.67875e-14
3.59754e-14
3.98092e-14
4.10729e-14
3.79858e-14
3.21704e-14
2.90783e-14
2.29752e-14
1.45515e-14
1.46673e-14
1.07682e-14
9.78138e-15
1.36615e-14
1.29027e-14
7.19968e-15
7.03685e-15
6.91365e-15
1.13832e-14
9.78249e-15
9.69909e-15
1.0995e-14
8.22059e-15
1.00275e-14
1.531e-14
1.85027e-14
1.50342e-14
8.66767e-15
6.11476e-15
6.31009e-15
1.18046e-14
1.43467e-14
1.96042e-14
2.05344e-14
2.13871e-14
1.81581e-14
1.9926e-14
2.51078e-14
2.73837e-14
2.58702e-14
2.57958e-14
2.78757e-14
2.86516e-14
2.675e-14
2.14448e-14
1.96887e-14
1.50547e-14
1.39551e-14
1.32819e-14
1.73615e-14
2.37805e-14
2.59467e-14
2.53387e-14
2.69691e-14
2.67063e-14
2.85885e-14
3.22462e-14
3.28259e-14
3.38992e-14
3.20058e-14
2.82998e-14
2.14917e-14
1.39989e-14
1.38062e-14
1.58369e-14
1.55375e-14
1.62386e-14
1.50092e-14
1.4615e-14
1.40321e-14
1.44806e-14
1.72043e-14
1.93339e-14
1.97183e-14
2.5117e-14
3.17241e-14
3.7257e-14
4.16288e-14
3.87278e-14
3.30849e-14
2.83326e-14
2.28135e-14
2.18067e-14
2.32996e-14
2.32614e-14
2.27105e-14
2.12821e-14
2.23083e-14
1.85611e-14
1.06957e-14
7.77068e-15
1.18003e-14
1.71251e-14
1.7601e-14
2.58165e-14
1.132
1.132
1.132
1.132
1.132
1.132
1.132
1.132
1.132
1.13184
1.12779
1.08126
1.02475
1.02064
1.02055
1.02043
1.02033
1.02026
1.02018
1.02006
1.0199
1.01977
1.01965
1.01954
1.01941
1.01931
1.01925
1.0192
1.01914
1.01908
1.01903
1.019
1.01899
1.01897
1.01895
1.01893
1.01891
1.01888
1.01885
1.01884
1.01885
1.01887
1.01891
1.01894
1.01897
1.019
1.01902
1.01904
1.01905
1.01907
1.01908
1.0191
1.01913
1.01914
1.01915
1.01915
1.01916
1.01916
1.01915
1.01914
1.01914
1.01913
1.01913
1.01912
1.01911
1.0191
1.01908
1.01907
1.01907
1.01906
1.01906
1.01906
1.01906
1.01906
1.01904
1.01904
1.01903
1.01902
1.01902
1.01903
1.01904
1.01907
1.01908
1.01908
1.01909
1.01909
1.01908
1.01908
1.01908
1.01908
1.01909
1.01911
1.01911
1.01911
1.01911
1.01911
1.01911
1.0191
1.0191
1.0191
1.01911
1.01911
1.0191
1.01909
1.01909
1.01908
1.01908
1.01908
1.01908
1.01909
1.0191
1.01909
1.01909
1.01908
1.01907
1.01906
1.01906
1.01905
1.01906
1.01907
1.01907
1.01907
1.01907
1.01907
1.01907
1.01907
1.01908
1.01908
1.01909
1.01909
1.01908
1.01907
1.01906
1.01902
1.01897
1.01888
1.01872
1.01844
1.01793
1.01705
1.01558
1.01317
1.00936
1.00354
0.994956
0.982819
0.966401
0.945244
0.919421
0.889751
0.85794
0.826692
0.799556
0.779512
0.768848
0.766346
0.765681
0.765327
0.765261
0.765303
0.765458
0.765749
0.766133
0.766529
0.766929
0.767183
0.767188
0.76714
0.767223
0.767778
0.769398
0.7722
0.775145
0.777345
0.778572
0.779151
0.779389
0.779395
0.779166
0.778899
0.778614
0.778279
0.777864
0.777392
0.776888
0.776307
0.775451
0.77419
0.773168
0.77222
0.771392
0.770632
0.76994
0.769324
0.768778
0.768298
0.767892
0.767601
0.7674
0.767246
0.767122
0.767002
0.766873
0.766742
0.766601
0.766438
0.766257
0.766089
0.765969
0.7659
0.765855
0.765827
0.765804
0.76576
0.765693
0.76562
0.765536
0.765434
0.765321
0.765239
0.765207
0.765204
0.765239
0.765322
0.765452
0.765615
0.765789
0.765951
0.766076
0.766183
0.766269
0.766342
0.766383
0.766352
0.766243
0.766121
0.766017
0.765888
0.765718
0.765536
0.765392
0.765322
0.765351
0.765445
0.765536
0.765624
0.765702
0.765761
0.765792
0.765763
0.765703
0.765636
0.765574
0.76552
0.765471
0.765438
0.765433
0.765444
0.765457
0.765463
0.765455
0.765437
0.765408
0.765369
0.765322
0.765274
0.765214
0.765058
0.7643
0.759784
0.732839
0.598542
0.233965
0.0123366
4.90344e-05
1.15186e-08
3.16739e-13
3.13783e-14
2.88721e-14
2.64569e-14
1.99192e-14
1.40154e-14
1.19991e-14
1.20218e-14
1.51261e-14
2.24457e-14
1.64024e-14
1.37183e-14
8.72792e-15
8.34868e-15
8.70729e-15
1.17356e-14
1.24647e-14
1.45726e-14
1.71655e-14
2.04413e-14
2.46983e-14
2.70178e-14
2.76379e-14
2.92555e-14
2.97183e-14
2.60182e-14
2.23977e-14
2.13187e-14
2.02353e-14
1.98294e-14
1.8543e-14
1.96695e-14
2.25575e-14
1.92024e-14
1.3239e-14
1.27685e-14
2.07828e-14
2.80201e-14
2.97977e-14
2.86818e-14
2.38386e-14
1.74171e-14
1.37944e-14
8.24893e-15
8.86043e-15
1.16274e-14
1.36033e-14
1.55478e-14
1.63143e-14
1.51657e-14
1.44648e-14
1.39734e-14
1.55433e-14
1.88732e-14
1.85337e-14
1.98036e-14
2.20965e-14
2.60088e-14
2.98673e-14
3.3918e-14
3.56877e-14
3.50049e-14
2.8556e-14
2.26495e-14
2.05e-14
1.51131e-14
1.25323e-14
1.00427e-14
6.62539e-15
3.8573e-15
6.85354e-15
4.17441e-15
2.37337e-15
3.39132e-15
7.97402e-15
9.87111e-15
1.14848e-14
1.40678e-14
1.73825e-14
1.6212e-14
1.22005e-14
8.20179e-15
3.49768e-15
4.64638e-15
1.60608e-15
3.33058e-15
4.3438e-15
5.12494e-15
7.49281e-15
1.00921e-14
7.5367e-15
6.69192e-15
7.11631e-15
8.75388e-15
6.55683e-15
1.15e-14
1.14312e-14
1.14949e-14
1.40305e-14
1.59354e-14
1.69371e-14
2.37509e-14
3.12418e-14
2.79588e-14
2.33206e-14
3.45057e-14
4.23375e-14
4.39232e-14
4.14098e-14
3.53036e-14
2.61092e-14
1.44005e-14
1.15775e-14
1.00706e-14
7.91441e-15
1.12068e-14
1.63819e-14
1.64408e-14
2.05873e-14
2.31506e-14
2.75669e-14
3.33248e-14
3.51204e-14
3.11828e-14
2.89613e-14
2.61876e-14
1.52951e-14
9.82311e-15
9.64554e-15
5.20651e-15
6.04277e-15
8.64016e-15
3.77787e-15
1.1359e-14
1.57832e-14
2.02225e-14
2.23089e-14
1.60763e-14
1.50078e-14
1.02321e-14
7.38284e-15
7.90131e-15
6.92894e-15
1.00799e-14
1.19957e-14
1.38839e-14
1.19402e-14
1.20128e-14
1.78243e-14
2.07579e-14
2.12686e-14
2.09955e-14
1.95298e-14
1.6783e-14
1.209e-14
7.52198e-15
6.25414e-15
6.94581e-15
1.28414e-14
1.20898e-14
1.36583e-14
1.89214e-14
2.2384e-14
1.94707e-14
1.55125e-14
1.13979e-14
1.45624e-14
2.04277e-14
2.04464e-14
2.13514e-14
2.03088e-14
1.79813e-14
1.73295e-14
1.75559e-14
1.77321e-14
1.91312e-14
2.00687e-14
1.78462e-14
2.28017e-14
2.2909e-14
2.53052e-14
2.8687e-14
2.74035e-14
2.7516e-14
2.81391e-14
2.75499e-14
3.11232e-14
3.00174e-14
2.37723e-14
1.74612e-14
1.4074e-14
7.3867e-15
6.05499e-15
9.94773e-15
1.35504e-14
1.47981e-14
1.62214e-14
1.87423e-14
2.22628e-14
2.38981e-14
2.66888e-14
3.01015e-14
3.15679e-14
3.35522e-14
2.82691e-14
2.37591e-14
1.78889e-14
2.17372e-14
2.39051e-14
1.63776e-14
1.54504e-14
1.72519e-14
1.63909e-14
2.64088e-14
2.55816e-14
2.26332e-14
1.77299e-14
2.77098e-14
3.54792e-14
3.73286e-14
3.78089e-14
3.91116e-14
3.88638e-14
3.34723e-14
2.48325e-14
1.90847e-14
1.45216e-14
1.23938e-14
1.26611e-14
1.31416e-14
1.141e-14
1.09931e-14
1.07901e-14
1.41414e-14
1.50305e-14
1.53155e-14
1.46402e-14
1.36724e-14
5.30113e-15
9.60389e-15
8.84765e-15
1.21314e-14
1.27519e-14
1.15095e-14
1.1243e-14
1.19289e-14
1.33332e-14
1.63624e-14
1.28486e-14
1.50901e-14
1.84135e-14
1.58711e-14
1.09495e-14
1.2903e-14
1.20797e-14
1.18354e-14
1.75096e-14
2.21185e-14
2.62445e-14
2.67528e-14
2.83986e-14
3.25526e-14
4.01199e-14
4.06309e-14
4.62141e-14
5.16627e-14
4.62771e-14
4.23928e-14
3.86166e-14
3.07828e-14
2.33964e-14
1.39287e-14
7.46827e-15
4.32697e-15
4.79107e-15
4.88651e-15
9.67328e-15
1.21335e-14
1.67824e-14
2.31677e-14
2.70966e-14
2.92488e-14
2.97389e-14
3.11281e-14
3.56838e-14
3.55563e-14
3.03967e-14
3.23228e-14
3.08916e-14
2.3361e-14
2.27726e-14
2.17466e-14
1.78666e-14
1.7382e-14
1.93852e-14
1.54271e-14
1.02571e-14
8.32013e-15
1.21598e-14
8.14565e-15
4.05519e-15
9.97505e-15
1.13455e-14
1.03874e-14
1.77726e-14
1.96211e-14
2.25248e-14
2.36758e-14
2.36527e-14
2.94442e-14
3.77926e-14
4.0497e-14
4.37198e-14
4.57299e-14
4.46664e-14
4.09416e-14
3.70896e-14
3.37603e-14
2.80908e-14
2.60844e-14
2.59323e-14
2.72559e-14
3.19817e-14
3.2901e-14
3.45808e-14
3.82193e-14
4.05794e-14
4.55195e-14
3.95982e-14
3.51065e-14
3.1721e-14
2.63249e-14
1.77902e-14
4.94113e-15
7.58734e-15
7.32779e-15
6.46921e-15
8.29025e-15
1.16583e-14
5.41957e-15
3.23348e-15
1.26962e-14
1.78626e-14
1.11727e-14
1.0977e-14
1.44103e-14
8.79427e-15
8.56396e-15
1.26232e-14
1.25901e-14
1.15273e-14
1.12003e-14
1.08421e-14
8.89989e-15
1.09233e-14
1.56706e-14
2.31008e-14
2.2042e-14
1.97137e-14
1.71221e-14
2.13711e-14
2.48142e-14
2.57648e-14
2.63442e-14
2.54854e-14
2.79717e-14
3.03078e-14
2.75658e-14
2.10707e-14
1.92572e-14
1.82072e-14
1.72087e-14
1.65855e-14
2.23306e-14
2.78804e-14
2.37217e-14
2.27773e-14
2.5728e-14
2.53879e-14
2.81092e-14
3.09424e-14
3.16502e-14
3.45434e-14
2.81229e-14
2.19196e-14
2.35935e-14
1.41858e-14
8.25418e-15
1.13363e-14
1.3693e-14
1.79091e-14
1.35791e-14
1.00308e-14
1.25708e-14
1.4855e-14
1.5055e-14
1.81958e-14
1.84453e-14
2.09925e-14
2.5558e-14
2.80871e-14
2.87113e-14
2.88178e-14
2.57856e-14
2.21733e-14
2.15901e-14
1.85814e-14
2.15576e-14
2.22735e-14
2.16599e-14
2.25562e-14
2.28215e-14
2.13264e-14
1.50135e-14
3.416e-15
1.088e-14
2.00797e-14
2.04533e-14
2.67709e-14
1.132
1.132
1.132
1.132
1.132
1.132
1.132
1.132
1.132
1.13184
1.12779
1.08126
1.02475
1.02064
1.02055
1.02043
1.02033
1.02026
1.02018
1.02006
1.0199
1.01977
1.01965
1.01954
1.01941
1.01931
1.01925
1.0192
1.01914
1.01908
1.01903
1.019
1.01899
1.01897
1.01895
1.01893
1.01891
1.01888
1.01885
1.01884
1.01885
1.01887
1.01891
1.01894
1.01897
1.019
1.01902
1.01904
1.01905
1.01907
1.01908
1.0191
1.01913
1.01914
1.01915
1.01915
1.01916
1.01916
1.01915
1.01914
1.01914
1.01913
1.01913
1.01912
1.01911
1.0191
1.01908
1.01907
1.01907
1.01906
1.01906
1.01906
1.01906
1.01906
1.01904
1.01904
1.01903
1.01902
1.01902
1.01903
1.01904
1.01907
1.01908
1.01908
1.01909
1.01909
1.01908
1.01908
1.01908
1.01908
1.01909
1.01911
1.01911
1.01911
1.01911
1.01911
1.01911
1.0191
1.0191
1.0191
1.01911
1.01911
1.0191
1.01909
1.01909
1.01908
1.01908
1.01908
1.01908
1.01909
1.0191
1.01909
1.01909
1.01908
1.01907
1.01906
1.01906
1.01905
1.01906
1.01907
1.01907
1.01907
1.01907
1.01907
1.01907
1.01907
1.01908
1.01908
1.01909
1.01909
1.01908
1.01907
1.01906
1.01902
1.01897
1.01888
1.01872
1.01844
1.01793
1.01705
1.01558
1.01317
1.00936
1.00354
0.994956
0.982819
0.966401
0.945244
0.919421
0.889751
0.85794
0.826692
0.799556
0.779512
0.768848
0.766346
0.765681
0.765327
0.765261
0.765303
0.765458
0.765749
0.766133
0.76653
0.76693
0.767184
0.767188
0.767135
0.767209
0.767751
0.76936
0.772184
0.775159
0.777363
0.778578
0.779151
0.779388
0.779392
0.77916
0.778887
0.778587
0.77823
0.777787
0.777279
0.776734
0.776094
0.775266
0.774177
0.773209
0.772291
0.771474
0.770715
0.770013
0.769388
0.768829
0.768336
0.767916
0.767612
0.767404
0.767244
0.767116
0.766994
0.766866
0.766738
0.766599
0.766436
0.766253
0.766081
0.765958
0.765887
0.76584
0.765812
0.765788
0.765745
0.76568
0.765609
0.765528
0.765428
0.765317
0.765236
0.765205
0.765202
0.765239
0.765331
0.765482
0.765675
0.765887
0.766099
0.766281
0.766435
0.766555
0.766646
0.766688
0.766632
0.76648
0.766285
0.766062
0.765849
0.76563
0.765414
0.765225
0.76516
0.765237
0.76537
0.765496
0.765609
0.765696
0.765763
0.765798
0.765766
0.765701
0.76563
0.765569
0.765524
0.765483
0.765461
0.765465
0.765476
0.765484
0.765483
0.765466
0.765437
0.765399
0.765351
0.765302
0.765256
0.765198
0.765045
0.76429
0.75978
0.732847
0.598573
0.233997
0.0123391
4.90436e-05
1.15199e-08
3.1339e-13
2.0846e-14
1.96921e-14
2.01397e-14
1.85206e-14
1.53484e-14
1.11901e-14
8.3186e-15
9.06867e-15
1.35117e-14
1.08599e-14
9.16241e-15
9.67211e-15
9.99378e-15
9.92214e-15
7.90603e-15
7.16592e-15
7.52235e-15
1.06489e-14
1.61197e-14
2.08346e-14
2.26277e-14
2.36627e-14
2.51572e-14
2.42164e-14
2.25579e-14
2.11342e-14
1.89937e-14
1.92466e-14
2.02677e-14
1.91304e-14
2.03643e-14
2.05761e-14
1.67258e-14
1.41982e-14
1.05073e-14
1.61134e-14
2.46081e-14
2.59642e-14
2.5601e-14
2.30541e-14
1.94241e-14
1.71801e-14
1.31076e-14
1.35333e-14
1.17917e-14
1.4504e-14
1.65574e-14
1.64257e-14
1.74833e-14
1.84575e-14
1.70986e-14
1.95447e-14
2.1219e-14
1.98553e-14
1.9164e-14
2.36645e-14
2.85718e-14
2.76055e-14
2.68817e-14
3.11221e-14
3.09088e-14
2.41593e-14
1.82278e-14
1.61752e-14
1.4124e-14
1.49208e-14
1.05848e-14
5.67125e-15
3.12288e-15
2.61406e-15
4.13717e-15
2.68473e-15
4.77916e-15
6.61355e-15
5.97287e-15
7.73401e-15
1.03817e-14
1.27427e-14
1.18419e-14
9.64997e-15
7.42078e-15
5.22725e-15
2.74453e-15
4.18248e-15
4.58601e-15
5.8726e-15
8.6199e-15
6.57945e-15
8.28703e-15
8.36637e-15
7.1018e-15
9.21202e-15
9.56246e-15
9.89243e-15
1.20457e-14
1.36166e-14
1.34639e-14
1.49849e-14
1.64648e-14
1.82711e-14
2.5644e-14
2.96139e-14
2.67566e-14
2.44722e-14
2.67224e-14
3.05896e-14
3.06128e-14
3.15183e-14
2.81698e-14
2.18197e-14
1.57287e-14
1.22024e-14
8.79075e-15
1.08975e-14
1.25645e-14
1.37731e-14
1.4878e-14
1.79323e-14
2.14884e-14
2.46556e-14
2.8202e-14
2.98365e-14
2.78137e-14
2.64416e-14
2.61125e-14
1.97834e-14
1.4721e-14
1.19708e-14
8.72521e-15
9.34456e-15
8.40135e-15
6.46737e-15
7.89527e-15
1.50625e-14
1.6646e-14
1.59202e-14
1.26243e-14
1.29785e-14
9.90736e-15
8.7186e-15
9.0709e-15
9.09735e-15
9.1068e-15
9.76047e-15
1.15101e-14
1.22925e-14
1.31515e-14
1.79796e-14
2.02898e-14
2.22095e-14
2.22198e-14
1.94588e-14
1.98447e-14
1.84591e-14
1.2456e-14
8.00409e-15
6.91047e-15
9.45724e-15
1.02744e-14
1.10218e-14
1.45631e-14
1.62384e-14
1.50309e-14
1.39371e-14
1.20689e-14
1.55189e-14
1.85989e-14
1.79692e-14
1.74139e-14
1.91284e-14
1.66012e-14
1.45466e-14
1.45746e-14
1.38469e-14
1.44587e-14
1.20097e-14
1.07469e-14
1.59423e-14
1.9343e-14
2.10999e-14
2.60336e-14
2.83982e-14
2.82403e-14
2.72868e-14
2.64422e-14
2.88869e-14
2.9042e-14
2.43311e-14
1.77728e-14
1.37256e-14
9.95762e-15
7.70786e-15
1.00306e-14
1.23574e-14
1.55138e-14
1.72947e-14
2.14809e-14
2.43845e-14
2.38401e-14
2.80903e-14
3.39544e-14
3.44855e-14
3.18508e-14
2.94663e-14
2.5673e-14
2.03406e-14
2.19097e-14
2.34703e-14
1.79429e-14
1.46476e-14
1.68573e-14
1.88053e-14
2.40971e-14
2.73665e-14
2.48124e-14
2.08144e-14
2.5628e-14
2.85349e-14
2.97546e-14
2.92578e-14
2.96906e-14
3.13313e-14
3.05939e-14
2.59385e-14
2.19281e-14
1.54297e-14
1.35361e-14
1.48241e-14
1.4265e-14
1.37163e-14
1.26975e-14
1.04176e-14
1.10003e-14
1.47751e-14
1.45946e-14
1.20519e-14
9.95814e-15
4.819e-15
5.67258e-15
9.56551e-15
1.29141e-14
1.29466e-14
1.24154e-14
1.12848e-14
1.15785e-14
1.36011e-14
1.40278e-14
1.24164e-14
1.53221e-14
1.58938e-14
1.27044e-14
9.69737e-15
7.11675e-15
3.16197e-15
5.70085e-15
1.40267e-14
1.99844e-14
2.39644e-14
2.61819e-14
2.69696e-14
2.93621e-14
3.46285e-14
3.92696e-14
4.47512e-14
4.66534e-14
4.24408e-14
3.88862e-14
4.07185e-14
3.2817e-14
2.20877e-14
1.51633e-14
1.30746e-14
1.0134e-14
1.01762e-14
8.4185e-15
1.31684e-14
1.27399e-14
1.37157e-14
1.79856e-14
2.30007e-14
2.48947e-14
2.9716e-14
3.27263e-14
3.27642e-14
3.03446e-14
2.75256e-14
2.86858e-14
2.39082e-14
1.83054e-14
1.64636e-14
1.47035e-14
1.0985e-14
8.75692e-15
1.08365e-14
1.01706e-14
4.89379e-15
3.87766e-15
8.29813e-15
8.49929e-15
9.26123e-15
1.52302e-14
1.47783e-14
1.50547e-14
1.71012e-14
1.64401e-14
1.99198e-14
1.97883e-14
2.22756e-14
2.70941e-14
3.09921e-14
3.46876e-14
4.0538e-14
4.26811e-14
4.25253e-14
4.00334e-14
3.62031e-14
3.31319e-14
2.80387e-14
2.8401e-14
2.84042e-14
2.78277e-14
3.29904e-14
3.37001e-14
3.58923e-14
3.84359e-14
3.82997e-14
3.94537e-14
3.58583e-14
3.48233e-14
3.12106e-14
2.60594e-14
1.80104e-14
1.03582e-14
1.07727e-14
1.06429e-14
9.45976e-15
1.10612e-14
8.71626e-15
6.42164e-15
5.68263e-15
1.07145e-14
1.22506e-14
1.01279e-14
1.05006e-14
1.43528e-14
1.24161e-14
1.28465e-14
1.38512e-14
1.23028e-14
9.05821e-15
1.20322e-14
1.50053e-14
1.22772e-14
1.35548e-14
1.50618e-14
1.92304e-14
2.09859e-14
1.93072e-14
2.08694e-14
2.19485e-14
2.51693e-14
2.88462e-14
2.99105e-14
2.87859e-14
2.9551e-14
3.00826e-14
3.02796e-14
2.58087e-14
2.0593e-14
1.83174e-14
1.97096e-14
1.89283e-14
2.41228e-14
2.52525e-14
2.09783e-14
2.29663e-14
2.51718e-14
2.73294e-14
3.0025e-14
3.4724e-14
3.37207e-14
3.05856e-14
2.77151e-14
2.28411e-14
1.93363e-14
1.65935e-14
1.53747e-14
1.35772e-14
1.30858e-14
1.52402e-14
1.24534e-14
9.33823e-15
1.20114e-14
1.24027e-14
1.38773e-14
1.84604e-14
1.94779e-14
2.17056e-14
1.92362e-14
2.12051e-14
2.21564e-14
2.30548e-14
2.51055e-14
2.02263e-14
1.97446e-14
2.0984e-14
2.27808e-14
2.4534e-14
2.31339e-14
2.31051e-14
2.36648e-14
2.22118e-14
1.64579e-14
6.81979e-15