/*--------------------------------*- C++ -*----------------------------------*\
| =========                 |                                                 |
| \\      /  F ield         | OpenFOAM: The Open Source CFD Toolbox           |
|  \\    /   O peration     | Version:  2406                                  |
|   \\  /    A nd           | Website:  www.openfoam.com                      |
|    \\/     M anipulation  |                                                 |
\*---------------------------------------------------------------------------*/
FoamFile
{
    version     2.0;
    format      ascii;
    arch        "LSB;label=32;scalar=64";
    class       volVectorField;
    location    "0.02";
    object      U;
}
// * * * * * * * * * * * * * * * * * * * * * * * * * * * * * * * * * * * * * //

dimensions      [0 1 -1 0 0 0 0];

internalField   nonuniform List<vector> 
83682
(
(347.059 -2.45679e-11 -1.26814e-11)
(347.059 -2.53418e-11 -1.21847e-11)
(347.059 -2.48195e-11 -1.00691e-11)
(347.059 -2.5029e-11 -9.18495e-12)
(347.059 -2.75312e-11 -3.91143e-12)
(347.059 -8.105e-11 -1.00126e-10)
(347.059 5.48342e-10 1.35682e-09)
(347.059 -4.39207e-09 -1.2199e-08)
(347.058 -2.13142e-08 3.73988e-09)
(347.017 1.37852e-07 6.20148e-07)
(346.006 4.5847e-05 5.8465e-05)
(334.259 -0.00068031 -0.00104809)
(319.784 6.54891e-05 0.000323017)
(318.75 0.000853482 0.00138753)
(318.72 0.00057854 0.000866503)
(318.681 7.11524e-05 -7.37107e-05)
(318.646 -0.000425387 -0.000975628)
(318.617 -0.00064683 -0.001357)
(318.59 -0.000780495 -0.00155435)
(318.556 -0.000721287 -0.0013588)
(318.52 -0.000333663 -0.000549975)
(318.492 -0.000113591 -0.000118413)
(318.47 0.000306326 0.000692823)
(318.445 0.000533634 0.0011289)
(318.413 0.000527219 0.00106325)
(318.387 0.000434908 0.000817137)
(318.368 0.000366217 0.000680965)
(318.352 0.000193899 0.000360452)
(318.336 3.25204e-05 6.00317e-05)
(318.317 -6.48743e-05 -0.000108366)
(318.302 -9.68302e-05 -0.000151454)
(318.296 -9.20467e-05 -0.000131877)
(318.294 -7.07816e-05 -8.97538e-05)
(318.291 -4.16084e-05 -4.12612e-05)
(318.287 -1.8762e-05 -5.99632e-06)
(318.282 -7.0753e-06 1.00801e-05)
(318.278 4.71597e-06 2.2876e-05)
(318.27 9.75873e-06 2.42748e-05)
(318.262 8.5023e-06 1.75623e-05)
(318.259 4.41793e-06 8.83099e-06)
(318.26 2.15209e-06 4.29266e-06)
(318.266 3.99972e-07 4.46957e-07)
(318.275 -7.02681e-07 -2.77444e-06)
(318.284 -2.5725e-07 -3.64697e-06)
(318.291 1.22943e-06 -2.9195e-06)
(318.297 2.61247e-06 -1.65962e-06)
(318.303 2.96118e-06 -1.10595e-06)
(318.308 3.37729e-06 -2.35036e-07)
(318.313 3.50531e-06 4.51569e-07)
(318.316 3.13245e-06 6.73806e-07)
(318.32 2.35399e-06 5.35647e-07)
(318.326 1.65472e-06 3.24801e-07)
(318.333 1.15505e-06 1.72797e-07)
(318.337 3.35444e-07 -5.64613e-08)
(318.338 -4.95404e-07 -2.02488e-07)
(318.339 -1.16106e-06 -2.49688e-07)
(318.34 -1.69563e-06 -2.3981e-07)
(318.34 -1.83002e-06 -1.96895e-07)
(318.338 -1.77802e-06 -1.68871e-07)
(318.337 -1.60507e-06 -1.08314e-07)
(318.335 -1.38474e-06 -4.08556e-08)
(318.335 -1.16543e-06 6.91453e-09)
(318.334 -8.95171e-07 3.60995e-08)
(318.331 -5.85913e-07 4.38023e-08)
(318.327 -3.60113e-07 3.86409e-08)
(318.324 -2.90432e-07 3.42773e-08)
(318.321 -1.7729e-07 2.53522e-08)
(318.318 -5.6225e-08 1.58948e-08)
(318.316 4.02082e-08 1.00197e-08)
(318.315 1.10647e-07 6.50199e-09)
(318.314 1.4687e-07 4.64848e-09)
(318.315 1.54326e-07 3.97949e-09)
(318.315 1.59086e-07 3.20229e-09)
(318.313 1.61751e-07 2.44506e-09)
(318.311 1.60076e-07 1.80853e-09)
(318.308 1.50448e-07 1.37127e-09)
(318.307 1.37778e-07 1.34969e-09)
(318.306 1.28345e-07 1.33612e-09)
(318.306 1.09721e-07 9.82617e-10)
(318.308 8.78015e-08 4.48933e-10)
(318.312 6.665e-08 3.50903e-11)
(318.318 4.79913e-08 -1.38454e-10)
(318.321 3.46295e-08 -1.73925e-10)
(318.322 2.92438e-08 -1.25648e-10)
(318.323 1.8359e-08 -3.46172e-11)
(318.323 4.51693e-09 1.16069e-10)
(318.321 -8.98711e-09 5.71337e-10)
(318.32 -2.09437e-08 1.10865e-09)
(318.319 -3.24571e-08 1.7183e-09)
(318.32 -3.7561e-08 1.99547e-09)
(318.323 -3.72187e-08 1.97374e-09)
(318.327 -3.5054e-08 1.85478e-09)
(318.328 -3.14734e-08 1.67847e-09)
(318.328 -2.58721e-08 1.36804e-09)
(318.328 -1.82794e-08 9.73252e-10)
(318.328 -1.20856e-08 5.50554e-10)
(318.327 -1.11538e-08 4.06903e-10)
(318.326 -1.05913e-08 4.05182e-10)
(318.325 -9.77076e-09 2.43855e-10)
(318.325 -9.48254e-09 2.22541e-10)
(318.326 -1.31704e-08 6.97022e-10)
(318.327 -9.04528e-09 8.88334e-10)
(318.325 2.15934e-09 6.57958e-10)
(318.324 8.568e-09 3.13357e-10)
(318.323 1.24366e-08 8.59431e-12)
(318.322 2.23684e-08 -6.56522e-10)
(318.321 2.20846e-08 -8.12179e-10)
(318.321 1.35179e-08 -4.62451e-10)
(318.321 1.62777e-08 -5.9388e-10)
(318.323 9.86431e-10 7.56485e-11)
(318.325 -2.47349e-08 9.6678e-10)
(318.324 -2.63584e-08 1.04503e-09)
(318.322 -7.83854e-09 6.07699e-10)
(318.321 4.606e-09 1.63064e-11)
(318.319 5.24465e-08 -1.31522e-09)
(318.317 7.7033e-08 -2.58857e-09)
(318.316 1.09438e-07 -4.00985e-09)
(318.315 9.3903e-08 -4.25221e-09)
(318.316 6.57077e-09 -1.06399e-09)
(318.318 -3.61075e-08 1.95046e-10)
(318.318 -5.20261e-08 5.68996e-10)
(318.318 -2.76514e-08 4.3959e-10)
(318.319 -7.07026e-08 2.90273e-09)
(318.319 1.20404e-08 7.05822e-10)
(318.319 2.12978e-07 -6.92846e-09)
(318.319 4.22396e-07 -1.55753e-08)
(318.32 4.63012e-07 -1.77578e-08)
(318.322 5.48643e-07 -2.13206e-08)
(318.325 6.69261e-07 -2.65131e-08)
(318.325 8.69645e-07 -3.52156e-08)
(318.325 9.27116e-07 -3.83698e-08)
(318.325 1.26602e-06 -5.17895e-08)
(318.324 1.47481e-06 -6.04475e-08)
(318.323 1.94711e-06 -7.99806e-08)
(318.323 2.07138e-06 -8.8775e-08)
(318.323 2.35752e-06 -1.03047e-07)
(318.325 2.22395e-06 -1.00286e-07)
(318.328 1.78768e-06 -8.8187e-08)
(318.328 1.01682e-06 -6.01353e-08)
(318.327 7.64252e-08 -2.24014e-08)
(318.327 -1.39215e-06 4.47939e-08)
(318.327 -2.12985e-06 6.51739e-09)
(318.327 -3.73116e-06 1.23163e-07)
(318.329 -3.25032e-06 1.20733e-07)
(318.338 -3.11174e-06 1.22161e-07)
(318.356 -3.53912e-06 1.60926e-07)
(318.388 -1.93953e-06 1.29705e-07)
(318.434 -7.0501e-07 5.0193e-08)
(318.493 -3.04926e-07 3.49416e-08)
(318.56 -3.21712e-08 7.44712e-08)
(318.612 1.53481e-06 5.25748e-08)
(318.628 2.19604e-06 -2.46275e-08)
(318.614 5.3762e-06 -2.57451e-07)
(318.349 4.82042e-06 -1.01176e-07)
(318.199 2.20792e-06 4.57864e-08)
(318.586 4.01228e-07 8.22273e-08)
(318.486 1.05518e-06 -2.05738e-08)
(318.328 -6.47007e-07 3.64407e-08)
(318.272 3.5374e-06 -1.01563e-07)
(318.24 1.08157e-05 -1.84665e-07)
(318.216 2.94531e-05 -8.57084e-07)
(318.21 6.19794e-05 -1.66298e-06)
(318.219 3.65524e-05 -2.24536e-06)
(318.25 -1.52038e-05 4.65112e-07)
(318.337 -0.000317221 7.38489e-06)
(318.413 -0.00096457 3.65108e-05)
(318.412 -0.000585728 2.32143e-05)
(318.398 0.000210252 4.02698e-06)
(318.434 0.00135131 9.14073e-06)
(318.64 0.0165265 -0.000564533)
(319.24 0.0300983 -0.000965027)
(320.239 0.0455219 -0.0023923)
(321.286 0.0368148 -0.000836018)
(322.087 0.0412046 -0.00144321)
(322.555 0.0410312 -0.00259326)
(322.797 0.0254041 -0.00159452)
(322.908 0.015376 -0.000481836)
(322.931 0.0161094 -0.000426577)
(322.858 0.0206583 -0.000743292)
(322.768 0.0266379 -0.00122232)
(322.667 0.0357924 -0.00166454)
(322.551 0.0530437 -0.00219296)
(322.406 0.0863545 -0.003356)
(322.247 0.134551 -0.00528807)
(322.088 0.200172 -0.00788927)
(321.936 0.312947 -0.0124413)
(321.617 0.575467 -0.0226701)
(320.885 0.528089 -0.0220094)
(320.524 0.475809 -0.0204867)
(320.189 0.416407 -0.0203982)
(319.896 0.357777 -0.0169939)
(319.624 0.332961 -0.0124185)
(319.375 0.291642 -0.0124361)
(319.15 0.249519 -0.0130167)
(318.947 0.226735 -0.011089)
(318.767 0.206224 -0.00921632)
(318.615 0.178947 -0.00810505)
(318.515 0.151702 -0.00666552)
(318.453 0.135508 -0.00579589)
(318.407 0.120979 -0.00570546)
(318.37 0.110342 -0.00605076)
(318.329 0.0983674 -0.00552206)
(318.282 0.0857503 -0.00430771)
(318.23 0.0747309 -0.00312084)
(318.173 0.0677314 -0.00253584)
(318.104 0.0649196 -0.00263224)
(318.025 0.0624124 -0.00288563)
(317.953 0.0550967 -0.0028665)
(317.906 0.0417773 -0.00246669)
(317.882 0.0292838 -0.00197052)
(317.87 0.0195131 -0.00149009)
(317.867 0.0138256 -0.00109558)
(317.867 0.0109067 -0.000789152)
(317.858 0.0086608 -0.000565013)
(317.838 0.00728673 -0.000466665)
(317.813 0.00569218 -0.000403213)
(317.782 0.00485904 -0.000466397)
(317.74 0.00488664 -0.000612795)
(317.69 0.00460205 -0.000708616)
(317.654 0.00143754 -0.000642096)
(317.642 -0.00369589 -0.000438688)
(317.64 -0.0161736 0.000113394)
(317.653 -0.0429063 0.00126801)
(317.686 -0.0830276 0.00287954)
(317.734 -0.131851 0.00506922)
(317.79 -0.177702 0.00745869)
(317.849 -0.202769 0.00882319)
(317.904 -0.205895 0.00890151)
(317.946 -0.196363 0.00823063)
(317.985 -0.178831 0.00749223)
(318.012 -0.142729 0.00661065)
(318.034 -0.0790451 0.0051244)
(318.042 0.01934 0.00215243)
(318.031 0.150533 -0.00275709)
(317.983 0.297199 -0.00964325)
(317.931 0.402149 -0.0155784)
(317.877 0.43078 -0.0176023)
(317.793 0.425383 -0.0175893)
(317.705 0.391814 -0.0163087)
(317.624 0.29007 -0.0121816)
(317.577 0.120197 -0.00505275)
(317.558 -0.061264 0.00252926)
(317.558 -0.184527 0.00787024)
(317.588 -0.224159 0.00987508)
(317.624 -0.223461 0.0100367)
(317.662 -0.206162 0.00949132)
(317.699 -0.163566 0.00768175)
(317.732 -0.0960542 0.00442053)
(317.752 -0.0195428 0.000649118)
(317.747 0.0311952 -0.00163381)
(317.73 0.0487765 -0.0021945)
(317.708 0.0456469 -0.00168841)
(317.687 0.0265488 -0.000538959)
(317.668 -0.00121723 0.000674239)
(317.646 -0.0231572 0.001484)
(317.628 -0.0327771 0.00178014)
(317.624 -0.0329469 0.00171362)
(317.629 -0.0293549 0.00151276)
(317.636 -0.0194751 0.00102042)
(317.642 -0.00326761 0.000257849)
(317.642 0.010795 -0.000410316)
(317.637 0.0183206 -0.000788531)
(317.627 0.0198849 -0.000889036)
(317.613 0.016337 -0.000738538)
(317.593 0.0102787 -0.000441256)
(317.571 0.00426932 -0.000171263)
(317.54 0.000252421 4.24167e-05)
(317.46 -0.00119484 0.000166928)
(317.083 -0.000914831 0.000278533)
(314.863 0.000716892 0.0003263)
(301.717 0.00286294 0.00027513)
(238.504 0.00363087 0.000147916)
(85.3266 0.00156458 2.503e-05)
(4.25033 7.64883e-05 7.22853e-08)
(0.0168415 2.78148e-07 -2.93256e-09)
(3.95625e-06 5.89371e-11 -1.07943e-11)
(1.08564e-10 2.11564e-12 -1.1642e-11)
(-2.78491e-12 1.7636e-12 -1.3195e-11)
(-1.77483e-12 2.7067e-12 -1.40397e-11)
(-9.0276e-13 2.98997e-12 -1.21049e-11)
(-2.03352e-12 3.08665e-12 -7.58421e-12)
(-4.28616e-12 1.40262e-12 -4.95152e-12)
(-3.26272e-12 -6.2331e-13 -3.96418e-12)
(-6.42102e-13 -5.48129e-13 -4.28256e-12)
(1.44727e-12 -9.13668e-13 -5.66252e-12)
(2.49896e-12 -1.615e-12 -7.2639e-12)
(3.4929e-12 -1.19542e-12 -5.66736e-12)
(3.15429e-12 -1.25838e-12 -3.20265e-12)
(2.78714e-12 -2.4928e-12 -1.05619e-12)
(9.03747e-13 -1.95233e-12 4.80039e-13)
(-9.3851e-13 -2.97219e-12 1.33357e-12)
(4.60411e-13 -3.90698e-12 2.7869e-12)
(1.14552e-12 -5.06482e-12 4.77189e-12)
(-1.1677e-13 -5.69036e-12 4.86678e-12)
(-2.92472e-13 -6.96861e-12 5.9011e-12)
(2.62524e-12 -7.52331e-12 7.11445e-12)
(5.47499e-12 -6.40191e-12 7.9795e-12)
(5.6296e-12 -4.27882e-12 7.76205e-12)
(7.59352e-12 -4.01381e-12 8.03626e-12)
(8.15806e-12 -2.20345e-12 8.02149e-12)
(6.41868e-12 -1.69308e-12 8.80234e-12)
(5.1068e-12 -2.12412e-12 1.08042e-11)
(4.6198e-12 -3.22382e-12 1.14994e-11)
(4.47971e-12 -3.75743e-12 9.06179e-12)
(2.85804e-12 -3.84082e-12 6.47476e-12)
(3.91861e-12 -4.5679e-12 5.13853e-12)
(5.21795e-12 -3.24863e-12 4.34505e-12)
(5.01682e-12 -2.07645e-12 3.82501e-12)
(5.6023e-12 -1.62771e-12 3.06766e-12)
(5.79935e-12 -1.59431e-12 2.18311e-12)
(4.19899e-12 -2.79748e-12 1.3532e-12)
(3.44576e-12 -3.85021e-12 -1.63114e-12)
(5.08446e-12 -4.20605e-12 -5.20068e-12)
(7.29489e-12 -1.76358e-12 -7.44442e-12)
(7.44734e-12 -3.81876e-13 -8.33712e-12)
(6.32316e-12 5.62322e-13 -7.62578e-12)
(4.34672e-12 8.8366e-13 -7.72003e-12)
(4.19067e-12 5.42506e-13 -5.08309e-12)
(2.5647e-12 1.97922e-12 -2.87173e-12)
(-4.07057e-13 6.31485e-13 -3.25982e-13)
(-3.68317e-12 -2.76351e-13 2.23259e-12)
(-4.86617e-12 -2.51841e-12 3.22967e-12)
(-1.83506e-12 -4.17154e-12 3.91446e-12)
(-1.11735e-12 -3.68823e-12 4.43776e-12)
(-1.48294e-12 -3.16945e-12 4.26563e-12)
(-7.18368e-13 -3.0278e-12 2.20786e-12)
(-1.71075e-12 -3.06972e-12 1.68648e-12)
(-1.80281e-12 -3.23818e-12 3.36945e-12)
(-1.65857e-12 -1.87314e-12 4.55866e-12)
(-7.95249e-13 -1.50625e-12 4.89549e-12)
(-1.24876e-12 6.14542e-13 4.76549e-12)
(-4.72679e-12 1.71802e-12 4.70435e-12)
(-5.2579e-12 2.92347e-12 4.59606e-12)
(-7.84823e-12 1.84807e-12 4.87044e-12)
(-9.05445e-12 -3.0809e-13 6.24417e-12)
(-1.09241e-11 -8.41733e-13 5.89561e-12)
(-1.27165e-11 -2.60382e-12 3.86963e-12)
(-1.2093e-11 -6.0851e-12 3.07989e-12)
(-9.20297e-12 -8.58377e-12 1.17853e-12)
(-5.54454e-12 -8.59898e-12 -1.21238e-12)
(-2.93749e-12 -5.42296e-12 -3.84804e-12)
(1.67438e-13 -3.35398e-12 -5.99607e-12)
(1.09928e-12 -1.53199e-12 -4.57034e-12)
(-5.26933e-13 -3.50345e-13 -3.99854e-12)
(-2.23047e-12 -2.46082e-13 -4.54144e-13)
(-3.05086e-12 -2.38151e-12 2.75481e-12)
(-1.54475e-12 -4.02307e-12 2.25893e-12)
(6.75411e-13 -4.3452e-12 2.32446e-12)
(6.67333e-13 -3.87653e-12 3.27745e-12)
(3.62955e-13 -3.66027e-12 2.88906e-12)
(8.28366e-13 -3.79791e-12 4.04661e-12)
(1.42779e-12 -4.63767e-12 6.6163e-12)
(1.8365e-12 -5.27028e-12 5.74813e-12)
(2.90592e-12 -5.39398e-12 6.92979e-12)
(4.77068e-12 -5.72855e-12 6.06053e-12)
(5.86447e-12 -4.94116e-12 5.74214e-12)
(3.65022e-12 -3.6851e-12 3.72539e-12)
(1.15957e-12 -3.64356e-12 2.37747e-12)
(9.14644e-13 -4.05308e-12 8.45516e-13)
(1.87912e-12 -3.46648e-12 -5.83899e-13)
(2.3174e-12 -9.96568e-13 2.51506e-13)
(8.26383e-13 1.11172e-12 7.90192e-13)
(1.03909e-12 1.50103e-12 2.18045e-13)
(6.24826e-13 2.76349e-12 -8.39978e-13)
(9.11389e-14 2.20255e-12 -1.9122e-12)
(-9.32302e-13 1.89932e-12 -1.31625e-12)
(-2.05279e-12 1.25621e-12 -9.18849e-13)
(-8.38485e-13 4.28568e-13 -8.06187e-13)
(-8.83714e-13 5.80084e-13 -9.67401e-13)
(-2.60675e-12 -3.84624e-14 -7.94376e-13)
(-2.30958e-12 -6.88361e-13 -3.51204e-13)
(-3.26849e-12 -2.69975e-13 -3.54669e-13)
(-3.70092e-12 1.19503e-14 1.1677e-12)
(-4.7768e-12 -9.65346e-13 1.91741e-12)
(-5.94955e-12 -2.50591e-12 1.52637e-12)
(-4.17571e-12 -2.98233e-12 6.28108e-13)
(-4.5227e-12 -2.25966e-12 -1.63843e-12)
(-6.8463e-12 -8.95272e-13 -2.47683e-12)
(-8.75379e-12 -1.62237e-12 -3.32334e-12)
(-6.93227e-12 -8.40591e-13 -5.82718e-12)
(-5.21601e-12 2.98151e-13 -1.01291e-11)
(-9.03506e-12 -1.22509e-12 -1.49877e-11)
(-9.54511e-12 -3.65214e-12 -2.07991e-11)
(-8.07887e-12 -5.75734e-12 -2.20376e-11)
(-7.47922e-12 -7.42276e-12 -1.89988e-11)
(-2.97932e-12 -8.45173e-12 -1.60548e-11)
(-2.05235e-12 -6.42485e-12 -1.05736e-11)
(-2.25044e-12 -5.97966e-12 -3.91624e-12)
(7.04471e-13 -4.86799e-12 -3.46383e-12)
(3.48592e-12 -1.83615e-12 -3.44062e-12)
(4.47445e-12 1.81759e-12 -2.15618e-12)
(4.02621e-12 2.92504e-12 1.48158e-12)
(2.74381e-12 3.06795e-12 2.42868e-13)
(3.50691e-12 1.8448e-12 -2.37245e-12)
(5.48402e-12 1.88501e-12 -4.56965e-12)
(4.87112e-12 1.30293e-12 -7.58904e-12)
(4.56443e-12 3.01544e-12 -9.57503e-12)
(3.86341e-12 2.44168e-12 -1.19073e-11)
(4.15257e-12 1.40694e-12 -1.14286e-11)
(4.30049e-12 1.59376e-12 -1.07855e-11)
(4.15655e-12 2.30813e-12 -1.04047e-11)
(1.79746e-12 2.3648e-12 -6.10375e-12)
(1.06544e-12 1.4376e-12 -1.12592e-12)
(1.26937e-12 8.74371e-13 7.74671e-13)
(-1.14851e-12 7.18633e-14 8.33669e-13)
(-2.84359e-12 -1.82276e-12 2.24196e-12)
(-4.05905e-12 -3.26749e-12 4.01072e-12)
(-2.54945e-12 -3.3957e-12 5.44019e-12)
(4.78833e-13 -3.12137e-12 2.78421e-12)
(2.665e-12 -3.73556e-12 -3.01245e-12)
(5.54364e-12 -3.28403e-12 -5.73205e-12)
(5.75663e-12 -2.73215e-12 -6.00035e-12)
(4.46379e-12 -2.96946e-12 -6.40883e-12)
(2.6361e-12 -3.06626e-12 -3.54069e-12)
(3.84679e-12 -4.36408e-12 -1.22827e-12)
(3.43649e-12 -3.5015e-12 -4.47307e-13)
(2.43202e-12 -3.86517e-12 -3.72254e-13)
(3.47617e-12 -2.81973e-12 8.46429e-13)
(3.26745e-12 -7.43771e-13 1.33965e-12)
(3.24851e-12 6.16786e-13 1.08901e-12)
(3.38891e-12 -8.6287e-13 7.8014e-13)
(3.44942e-12 -1.95258e-12 -4.66317e-13)
(4.52012e-12 -3.22788e-12 -5.68282e-13)
(4.78286e-12 -2.82499e-12 -6.18461e-13)
(4.54038e-12 -3.03748e-12 -7.78325e-13)
(7.05917e-12 -3.11005e-12 -7.69111e-13)
(7.45472e-12 -1.87013e-12 -1.25261e-12)
(5.61578e-12 -6.8612e-13 -1.55151e-12)
(3.20296e-12 -1.00598e-12 -1.56521e-12)
(2.10229e-12 -1.89058e-12 -9.41353e-13)
(2.75058e-12 -3.23756e-12 -4.72025e-13)
(4.05467e-12 -3.49042e-12 -1.51818e-13)
(3.36963e-12 -2.56871e-12 -5.97218e-13)
(8.98938e-13 -2.30487e-12 -9.34106e-13)
(-8.01373e-13 -2.04378e-12 9.04501e-13)
(-2.18329e-12 -2.50772e-12 2.38573e-12)
(-1.58137e-12 -2.9871e-12 3.87276e-12)
(-1.3732e-12 -8.32227e-13 5.34252e-12)
(-2.13707e-12 -4.88019e-13 6.6938e-12)
(-1.59632e-12 -2.32931e-13 7.02145e-12)
(-1.3267e-12 6.2029e-13 5.32517e-12)
(-2.84144e-12 1.09297e-12 3.54284e-12)
(-5.10375e-12 -6.87953e-13 2.74875e-12)
(-8.48757e-12 -1.63354e-12 6.00198e-13)
(-9.17271e-12 -4.33527e-12 -2.3343e-12)
(-7.53037e-12 -7.16196e-12 -2.17029e-12)
(-4.81054e-12 -8.4353e-12 -2.453e-12)
(-3.11399e-12 -7.32646e-12 -2.45766e-12)
(-2.23169e-12 -6.7873e-12 -1.82784e-12)
(-2.4293e-12 -5.58293e-12 -2.61912e-12)
(-2.78543e-12 -6.01246e-12 -3.72331e-12)
(-4.23119e-12 -5.58673e-12 -4.36085e-12)
(-5.1799e-12 -6.44363e-12 -4.54407e-12)
(-2.80228e-12 -8.25534e-12 -3.36247e-12)
(8.98139e-14 -9.62817e-12 -2.98748e-12)
(4.64156e-12 -1.14284e-11 -2.10951e-12)
(9.33359e-12 -9.09449e-12 -1.91181e-12)
(1.05436e-11 -5.86978e-12 -2.37447e-12)
(8.96167e-12 -4.16725e-12 -2.6401e-12)
(9.45014e-12 -3.72207e-12 -3.02423e-12)
(8.41149e-12 -3.09154e-12 -3.33037e-12)
(7.88216e-12 -3.6833e-12 -3.87132e-12)
(8.46563e-12 -3.03162e-12 -4.73864e-12)
(8.25261e-12 -3.79661e-12 -5.83743e-12)
(8.91645e-12 -3.0879e-12 -4.4356e-12)
(7.47877e-12 -1.62446e-12 -2.15588e-12)
(4.41596e-12 -4.1346e-13 -9.42799e-14)
(7.94494e-13 5.37669e-13 7.35018e-14)
(-2.38488e-12 -6.28159e-13 -1.11491e-12)
(-4.62207e-12 -2.23473e-12 -2.49322e-12)
(-4.59006e-12 -3.75317e-12 -4.86813e-12)
(-4.24929e-12 -4.16505e-12 -3.74137e-12)
(-3.88929e-12 -4.27737e-12 -2.96851e-12)
(-5.20811e-12 -4.17995e-12 -3.34441e-12)
(-6.00965e-12 -4.52563e-12 -3.9774e-12)
(-4.88466e-12 -4.21379e-12 -4.34727e-12)
(-6.09755e-12 -3.28116e-12 -4.67217e-12)
(-6.73178e-12 -3.48957e-12 -4.04874e-12)
(-6.45959e-12 -2.08182e-12 -3.65666e-12)
(-6.89598e-12 -4.00847e-13 -3.10288e-12)
(-7.56194e-12 1.16594e-12 -2.85848e-12)
(-7.67091e-12 2.83257e-13 -2.3932e-12)
(-6.46987e-12 -3.95441e-13 -2.17694e-12)
(-7.36441e-12 -1.1119e-12 -1.94801e-12)
(-7.46876e-12 -1.80987e-12 -1.71298e-12)
(-6.09754e-12 -1.42044e-12 -1.13657e-12)
(-5.40014e-12 -2.33091e-12 -8.89648e-13)
(-4.618e-12 -1.67979e-12 -7.62702e-13)
(-2.95431e-12 -2.43143e-12 -1.97215e-12)
(-2.50365e-12 -1.66737e-12 -3.82086e-12)
(-3.27449e-12 -8.97972e-13 -5.93135e-12)
(-1.81916e-12 -3.24525e-13 -6.97454e-12)
(-3.06106e-12 1.84724e-13 -8.51103e-12)
(-2.7639e-12 -4.37617e-13 -1.13573e-11)
(-4.27173e-13 -1.34712e-12 -1.47642e-11)
(-1.46498e-12 -3.81739e-12 -1.7665e-11)
(4.69925e-13 -4.01979e-12 -2.09752e-11)
(4.40387e-12 -4.36301e-12 -2.13133e-11)
(5.98285e-12 -2.09461e-12 -1.9833e-11)
(6.6998e-12 -1.18814e-13 -1.28407e-11)
(4.98472e-12 2.0413e-12 -5.84255e-12)
(2.04543e-12 2.29752e-12 -2.09271e-12)
(-1.05691e-13 3.32593e-12 -2.11682e-12)
(-2.10176e-12 1.98878e-12 -1.36208e-12)
(-5.38687e-12 6.54263e-13 -2.07261e-12)
(-5.59442e-12 -1.4758e-12 -2.28168e-12)
(-3.24513e-12 -1.78917e-12 -2.14776e-12)
(-3.08847e-12 -1.94573e-12 -4.404e-13)
(-5.63237e-12 -2.11456e-12 -2.08611e-12)
(-6.14069e-12 -4.75563e-12 -5.71961e-12)
(-4.57533e-12 -5.02314e-12 -9.23102e-12)
(-2.74556e-12 -5.33073e-12 -6.89475e-12)
(-2.98066e-12 -3.61689e-12 -2.93084e-12)
(-3.1638e-12 -2.75068e-12 5.11983e-14)
(-7.03155e-13 -1.9669e-12 8.7759e-13)
(1.6834e-12 -1.99268e-12 1.92604e-12)
(4.66387e-12 -2.68706e-12 1.65993e-12)
(5.56562e-12 -5.99978e-13 8.63756e-13)
(3.93696e-12 1.42695e-12 1.31839e-12)
(7.33496e-13 2.67984e-12 1.76209e-13)
(-3.72555e-13 3.44404e-12 1.14715e-12)
(7.18746e-14 3.68833e-12 6.83348e-13)
(-3.24761e-12 2.27639e-12 -6.75349e-13)
(-2.92922e-12 1.79243e-13 -2.41342e-12)
(-2.69366e-12 4.03775e-14 -1.95141e-12)
(-4.29792e-12 -8.63939e-13 -1.44681e-12)
(-5.0024e-12 -1.10369e-12 -6.72427e-13)
(-3.56577e-12 -1.94801e-12 -1.34358e-12)
(-3.92993e-12 -4.08327e-12 -2.35289e-12)
(-4.40291e-12 -6.57514e-12 -2.81438e-12)
(-6.7463e-13 -7.80689e-12 -2.8529e-12)
(1.99081e-12 -8.86665e-12 1.24962e-13)
(3.5672e-12 -9.57708e-12 3.335e-12)
(6.77964e-12 -9.96826e-12 3.99248e-12)
(1.00855e-11 -8.3832e-12 5.06152e-12)
(9.60289e-12 -5.70482e-12 5.50001e-12)
(1.03567e-11 -4.40722e-12 7.61755e-12)
(1.1179e-11 -1.11954e-12 8.69367e-12)
(9.05967e-12 2.63454e-13 1.0716e-11)
(8.83027e-12 2.48174e-13 1.279e-11)
(8.06763e-12 1.15002e-12 1.27769e-11)
(8.59995e-12 8.91055e-13 1.35336e-11)
(9.09625e-12 2.02936e-12 1.38577e-11)
(6.75208e-12 2.81925e-12 1.40525e-11)
(4.82123e-12 9.25592e-13 1.16316e-11)
(4.01361e-12 -1.51204e-12 7.43741e-12)
(4.06288e-12 -1.42035e-12 4.85682e-12)
(3.39638e-12 -2.18243e-13 2.11658e-12)
(-1.55598e-14 8.71473e-13 1.65167e-13)
(-2.61888e-12 1.23555e-13 -3.53761e-13)
(-2.27198e-12 -1.04192e-12 -8.52358e-13)
(-1.53961e-12 -2.1372e-12 7.69461e-13)
(-1.42282e-12 -3.08331e-12 1.38579e-12)
(-6.473e-13 -2.43059e-12 3.28064e-12)
(-2.21107e-12 -1.50605e-12 6.91632e-12)
(-2.80909e-12 -8.47087e-13 1.08357e-11)
(-5.82995e-12 -4.61503e-13 1.17615e-11)
(-7.93405e-12 -1.19168e-12 1.21839e-11)
(-6.44331e-12 -7.08762e-13 9.92624e-12)
(-7.24892e-12 1.71216e-12 7.21049e-12)
(-1.09687e-11 1.8526e-12 4.59133e-12)
(-1.43277e-11 1.40638e-12 3.78484e-12)
(-1.27851e-11 -6.98654e-13 3.47519e-12)
(-1.35674e-11 -4.45951e-12 3.04725e-12)
(-1.23516e-11 -8.27505e-12 2.34334e-12)
(-8.53486e-12 -9.32732e-12 1.82136e-12)
(-5.24729e-12 -1.12897e-11 1.11304e-12)
(-2.32193e-12 -1.01728e-11 9.71666e-13)
(-2.05585e-12 -1.00299e-11 3.38464e-14)
(-3.71632e-13 -1.01112e-11 2.20467e-12)
(1.6068e-12 -8.88895e-12 4.27017e-12)
(1.97462e-12 -8.19181e-12 2.12741e-12)
(1.25422e-12 -6.92328e-12 -4.7554e-14)
(2.9555e-12 -5.96735e-12 -1.28863e-12)
(2.96203e-12 -3.92249e-12 -1.77998e-12)
(1.09812e-12 -3.18077e-12 -1.98587e-12)
(4.53398e-13 -3.39005e-12 -1.83213e-12)
(1.00454e-12 -4.02209e-12 -2.27862e-12)
(-5.52882e-13 -4.73072e-12 -4.2277e-12)
(-2.33002e-12 -6.30433e-12 -4.90994e-12)
(-1.25032e-13 -8.48904e-12 -5.21703e-12)
(2.59106e-12 -8.52577e-12 -5.77087e-12)
(3.74397e-12 -7.80703e-12 -5.28022e-12)
(3.52786e-12 -7.24571e-12 -4.18351e-12)
(3.44242e-12 -8.35347e-12 -2.63313e-12)
(5.18553e-12 -9.1175e-12 -2.34916e-12)
(8.10587e-12 -9.61896e-12 -3.05449e-12)
(1.15181e-11 -8.81043e-12 -4.27083e-12)
(1.42169e-11 -7.8869e-12 -4.7526e-12)
(1.41754e-11 -5.36205e-12 -5.20572e-12)
(1.30085e-11 -3.84633e-12 -5.93793e-12)
(1.16614e-11 -2.87131e-12 -5.72129e-12)
(1.17295e-11 -2.40695e-12 -4.75011e-12)
(1.07334e-11 -5.85172e-13 -5.1218e-12)
(7.85899e-12 -9.51032e-13 -4.83607e-12)
(6.2063e-12 1.54782e-13 -6.15362e-12)
(3.44684e-12 -3.37911e-13 -6.86883e-12)
(2.11845e-12 -6.65237e-13 -8.34729e-12)
(1.79325e-12 -6.96397e-13 -1.01582e-11)
(-6.53536e-14 -9.16614e-13 -1.01038e-11)
(-1.14367e-12 -1.62093e-12 -1.0376e-11)
(-1.71127e-12 -1.42251e-12 -9.57045e-12)
(-1.46484e-12 -1.37e-12 -9.35926e-12)
(-2.17221e-12 -1.00091e-12 -1.20571e-11)
(-2.39572e-12 -6.11205e-13 -1.38422e-11)
(-2.58692e-12 6.92073e-13 -1.39942e-11)
(-4.4227e-12 5.07953e-13 -1.22465e-11)
(-4.62274e-12 -1.85553e-12 -9.73841e-12)
(-3.46724e-12 -1.80756e-12 -7.42471e-12)
(-3.1408e-12 -2.87606e-12 -5.82587e-12)
(-1.56139e-12 -3.82754e-12 -5.77736e-12)
(-5.26294e-13 -3.77851e-12 -2.83655e-12)
(-2.16897e-12 -3.61313e-12 1.04657e-12)
(-2.61336e-12 -4.28287e-12 3.07448e-12)
(-1.99917e-12 -3.81075e-12 3.30081e-12)
(-1.80354e-12 -3.14948e-12 1.27293e-12)
(2.3173e-13 -3.83405e-12 -1.16887e-12)
(1.83614e-12 -2.8773e-12 -2.38441e-12)
(2.89375e-12 -2.54268e-12 8.74208e-14)
(3.10166e-12 -1.26802e-12 1.05716e-12)
(2.68095e-12 -8.62235e-13 9.51539e-13)
(3.28461e-12 -1.24838e-12 6.1273e-13)
(3.36164e-12 -1.04669e-12 -8.96972e-13)
(3.26652e-12 4.30749e-13 -3.53744e-12)
(1.00132e-12 1.83586e-12 -5.80228e-12)
(-4.87589e-13 2.09895e-12 -8.20991e-12)
(-4.53981e-14 1.41996e-12 -5.35523e-12)
(-6.90529e-13 7.91096e-13 -1.71474e-12)
(-6.91994e-13 3.42704e-13 8.31021e-13)
(1.00935e-12 -4.788e-13 -1.43435e-12)
(1.5867e-12 -1.78682e-12 -4.64422e-12)
(6.17466e-13 -2.96185e-12 -4.30513e-12)
(2.25556e-12 -4.79387e-12 -3.97765e-12)
(5.66915e-12 -4.33359e-12 -2.8567e-12)
(6.96405e-12 -3.55985e-12 -3.6245e-13)
(5.3704e-12 -3.22161e-12 -8.05296e-13)
(4.70116e-12 -4.27345e-12 -1.5195e-12)
(6.42394e-12 -5.38911e-12 -2.16323e-12)
(8.78563e-12 -5.51935e-12 -2.54963e-12)
(9.32204e-12 -3.99511e-12 -2.61801e-12)
(7.83576e-12 -3.11549e-12 -2.51618e-12)
(7.52971e-12 -2.87051e-12 -2.55192e-12)
(8.01095e-12 -2.84552e-12 -3.73578e-12)
(9.17341e-12 -1.77883e-12 -4.55425e-12)
(7.36946e-12 2.1287e-13 -3.72972e-12)
(5.78179e-12 2.3696e-12 -1.81345e-12)
(2.86484e-12 3.96699e-12 2.8931e-13)
(-5.94789e-14 4.43855e-12 1.9595e-12)
(-1.4309e-12 2.87121e-12 3.18033e-12)
(-2.54573e-12 1.87822e-12 3.84673e-12)
(-5.59199e-12 2.57184e-12 3.39606e-12)
(-7.94346e-12 1.50342e-12 3.62879e-12)
(-9.02195e-12 2.99219e-14 1.88399e-12)
(-9.27329e-12 -1.14406e-12 -9.78786e-14)
(-8.58212e-12 -1.3662e-12 6.44639e-13)
(-9.56592e-12 -2.57084e-12 1.10456e-12)
(-1.10966e-11 -3.80546e-12 1.07071e-12)
(-1.07872e-11 -4.44375e-12 1.05273e-12)
(-1.17195e-11 -4.6866e-12 8.62595e-13)
(-1.13776e-11 -6.36679e-12 2.97654e-13)
(-8.03993e-12 -7.06624e-12 8.69269e-13)
(-4.78436e-12 -6.57836e-12 3.03576e-13)
(-2.54353e-12 -5.93508e-12 -2.0955e-13)
(-3.31734e-12 -4.7501e-12 -1.16488e-12)
(-4.50988e-12 -4.29046e-12 -1.87432e-12)
(-3.10022e-12 -3.65736e-12 -2.361e-12)
(-3.30101e-12 -2.47561e-12 -3.13865e-12)
(-4.13796e-12 -2.15745e-12 -3.08157e-12)
(-3.71446e-12 -2.71285e-12 -2.3934e-12)
(-2.90296e-12 -2.95497e-12 -9.86771e-13)
(-3.80764e-12 -2.51211e-12 -1.76543e-12)
(-5.52942e-12 -2.68309e-12 -1.31343e-12)
(-4.83263e-12 -2.12179e-12 -3.44534e-12)
(-3.9545e-12 -1.48682e-12 -6.1198e-12)
(-5.26054e-12 -2.35023e-12 -8.20104e-12)
(-3.86693e-12 -4.44325e-12 -1.01793e-11)
(-3.37046e-12 -3.90662e-12 -1.3568e-11)
(-3.92713e-12 -4.86429e-12 -1.64611e-11)
(-1.96868e-12 -5.46472e-12 -1.4374e-11)
(1.39916e-12 -5.55683e-12 -1.16088e-11)
(5.12468e-12 -6.055e-12 -7.86045e-12)
(5.23786e-12 -3.41023e-12 -5.25682e-12)
(4.0157e-12 -3.56858e-12 -3.36544e-12)
(5.46555e-12 -3.50042e-12 -5.23168e-12)
(4.4668e-12 -3.24577e-12 -6.58291e-12)
(3.57152e-12 -3.53051e-12 -6.02666e-12)
(5.7955e-12 -2.99612e-12 -4.34341e-12)
(7.16261e-12 -1.1439e-12 -3.48676e-12)
(5.28217e-12 -8.60364e-13 -2.40872e-12)
(2.89729e-12 -5.59918e-13 -1.80797e-13)
(2.54975e-12 -8.23057e-13 2.20399e-12)
(2.1924e-12 -2.08722e-13 2.75215e-12)
(3.35019e-12 -1.18795e-12 3.04385e-12)
(5.42908e-12 5.07748e-13 3.12701e-12)
(6.10742e-12 4.78051e-12 3.41696e-12)
(347.059 -2.20161e-11 -1.17269e-11)
(347.059 -2.06611e-11 -1.3575e-11)
(347.059 -2.26061e-11 -1.20288e-11)
(347.059 -2.54081e-11 -1.13573e-11)
(347.059 -2.37875e-11 -5.47542e-12)
(347.059 -7.19821e-11 -1.07695e-10)
(347.059 5.43219e-10 1.44578e-09)
(347.059 -4.43338e-09 -1.28439e-08)
(347.058 -1.52423e-08 -6.05978e-09)
(347.017 7.28528e-08 1.01121e-06)
(346.006 4.29983e-05 5.43703e-05)
(334.259 -0.000625789 -0.00108114)
(319.784 5.75616e-05 0.000403119)
(318.75 0.000797375 0.00143892)
(318.72 0.000545682 0.000882671)
(318.681 7.3603e-05 -0.000103586)
(318.646 -0.000398793 -0.00105125)
(318.617 -0.000611953 -0.00144679)
(318.59 -0.000741902 -0.00164567)
(318.556 -0.000679068 -0.00142418)
(318.52 -0.000312251 -0.000558763)
(318.492 -0.000112431 -9.95552e-05)
(318.47 0.000287568 0.000758995)
(318.445 0.000511846 0.00121208)
(318.413 0.000507482 0.00112616)
(318.387 0.000410576 0.000849629)
(318.368 0.000341241 0.000702541)
(318.352 0.00018124 0.00036346)
(318.336 3.30667e-05 5.17e-05)
(318.317 -5.95083e-05 -0.000120278)
(318.302 -9.00334e-05 -0.000161383)
(318.296 -8.50953e-05 -0.00013745)
(318.294 -6.48506e-05 -9.1276e-05)
(318.291 -3.72144e-05 -4.05381e-05)
(318.287 -1.58797e-05 -4.30618e-06)
(318.282 -5.20592e-06 1.2024e-05)
(318.278 5.20456e-06 2.46654e-05)
(318.27 9.42474e-06 2.51498e-05)
(318.262 7.8814e-06 1.74641e-05)
(318.259 4.07961e-06 8.20655e-06)
(318.26 2.14807e-06 3.62002e-06)
(318.266 6.14749e-07 -1.02049e-07)
(318.275 -3.71925e-07 -3.11404e-06)
(318.284 9.75535e-08 -3.77925e-06)
(318.291 1.4963e-06 -2.88657e-06)
(318.297 2.68267e-06 -1.53944e-06)
(318.303 2.97445e-06 -9.64412e-07)
(318.308 3.24479e-06 -7.86468e-08)
(318.313 3.20301e-06 5.73716e-07)
(318.316 2.69334e-06 7.32726e-07)
(318.32 1.82299e-06 5.38813e-07)
(318.326 1.1279e-06 3.03653e-07)
(318.333 6.72324e-07 1.44608e-07)
(318.337 -5.32722e-08 -8.26254e-08)
(318.338 -7.63436e-07 -2.21823e-07)
(318.339 -1.31216e-06 -2.60852e-07)
(318.34 -1.73187e-06 -2.40925e-07)
(318.34 -1.81258e-06 -1.91061e-07)
(318.338 -1.75397e-06 -1.61299e-07)
(318.337 -1.57568e-06 -9.91735e-08)
(318.335 -1.35193e-06 -3.06672e-08)
(318.335 -1.12887e-06 1.80054e-08)
(318.334 -8.55556e-07 4.61236e-08)
(318.331 -5.44719e-07 4.81567e-08)
(318.327 -3.20931e-07 3.9325e-08)
(318.324 -2.56551e-07 3.46568e-08)
(318.321 -1.55367e-07 2.55543e-08)
(318.318 -4.92097e-08 1.56595e-08)
(318.316 3.34835e-08 9.72357e-09)
(318.315 9.22816e-08 6.22715e-09)
(318.314 1.23888e-07 4.29895e-09)
(318.315 1.31755e-07 3.60935e-09)
(318.315 1.38797e-07 2.90028e-09)
(318.313 1.45529e-07 2.31215e-09)
(318.311 1.50475e-07 1.78328e-09)
(318.308 1.48156e-07 1.30626e-09)
(318.307 1.39281e-07 1.28706e-09)
(318.306 1.324e-07 1.3124e-09)
(318.306 1.17866e-07 9.68792e-10)
(318.308 9.81366e-08 3.63642e-10)
(318.312 7.7864e-08 -1.92674e-10)
(318.318 5.83175e-08 -4.16005e-10)
(318.321 4.19285e-08 -3.08681e-10)
(318.322 3.48913e-08 -1.73704e-10)
(318.323 2.11879e-08 3.27617e-12)
(318.323 3.64254e-09 1.98158e-10)
(318.321 -1.22901e-08 6.59563e-10)
(318.32 -2.49917e-08 1.07739e-09)
(318.319 -3.53476e-08 1.49902e-09)
(318.32 -3.89039e-08 1.62419e-09)
(318.323 -3.78402e-08 1.57198e-09)
(318.327 -3.47064e-08 1.45041e-09)
(318.328 -3.03949e-08 1.26173e-09)
(318.328 -2.35653e-08 8.8917e-10)
(318.328 -1.5735e-08 5.10701e-10)