/*--------------------------------*- C++ -*----------------------------------*\
| =========                 |                                                 |
| \\      /  F ield         | OpenFOAM: The Open Source CFD Toolbox           |
|  \\    /   O peration     | Version:  2406                                  |
|   \\  /    A nd           | Website:  www.openfoam.com                      |
|    \\/     M anipulation  |                                                 |
\*---------------------------------------------------------------------------*/
FoamFile
{
    version     2.0;
    format      ascii;
    arch        "LSB;label=32;scalar=64";
    class       volScalarField;
    location    "0.07";
    object      rho;
}
// * * * * * * * * * * * * * * * * * * * * * * * * * * * * * * * * * * * * * //

dimensions      [1 -3 0 0 0 0 0];

internalField   nonuniform List<scalar> 
14020
(
4.73918
4.73917
4.73919
4.73919
4.73921
4.73925
4.73932
4.73934
4.73939
4.73942
4.73949
4.73953
4.73955
4.73957
4.73964
4.7397
4.73974
4.73975
4.73978
4.73981
4.73979
4.73974
4.73976
4.73982
4.73981
4.73982
4.73976
4.73966
4.73954
4.73948
4.73936
4.7392
4.73886
4.73831
4.73745
4.73617
4.73424
4.73137
4.72728
4.72154
4.71343
4.70208
4.68666
4.66574
4.63802
4.6015
4.55441
4.49465
4.42013
4.32886
4.21946
4.09108
3.94408
3.78021
3.60307
3.41829
3.23363
3.05929
2.90728
2.79014
2.71793
2.68748
2.67927
2.67763
2.6775
2.67762
2.67798
2.67867
2.67967
2.68092
2.68224
2.68313
2.68346
2.68353
2.68335
2.6831
2.68302
2.68299
2.683
2.6831
2.6832
2.68316
2.68307
2.68295
2.68272
2.68241
2.68221
2.68219
2.68223
2.68234
2.68254
2.68277
2.68292
2.68295
2.68294
2.68285
2.68268
2.68249
2.68239
2.68236
2.68235
2.68238
2.68246
2.68252
2.68252
2.6825
2.68246
2.68237
2.68229
2.68227
2.68228
2.68231
2.68238
2.68247
2.68253
2.68254
2.68254
2.6825
2.68243
2.68234
2.68226
2.68223
2.68222
2.68222
2.68224
2.68226
2.68226
2.68226
2.68225
2.68222
2.68219
2.68218
2.68222
2.68228
2.68239
2.68254
2.68273
2.68296
2.68323
2.68352
2.68383
2.68414
2.68441
2.68462
2.68472
2.68478
2.68483
2.68485
2.68484
2.6848
2.68472
2.68461
2.68445
2.68427
2.68406
2.68387
2.68369
2.68356
2.68346
2.6834
2.68336
2.68333
2.6833
2.68326
2.68321
2.68317
2.68315
2.68313
2.68312
2.6831
2.68309
2.68308
2.68307
2.68306
2.68304
2.683
2.68297
2.68293
2.68291
2.68291
2.6829
2.68291
2.68293
2.68294
2.68293
2.68291
2.68278
2.68219
2.67949
2.67353
2.66495
2.65491
2.64413
2.63296
2.62154
2.60998
2.59829
2.58654
2.57474
2.56294
2.55111
2.53929
2.52748
2.51568
2.50388
2.49211
2.48034
2.46861
2.45688
2.4452
2.43353
2.42192
2.41031
2.39877
2.38725
2.37579
2.36434
2.35295
2.34159
2.33028
2.31899
2.30776
2.29661
2.2855
2.27447
2.26354
2.25271
2.24207
2.23132
2.21981
2.19888
4.73918
4.73918
4.73919
4.73919
4.73921
4.73925
4.73931
4.73934
4.73939
4.73943
4.73949
4.73953
4.73955
4.73957
4.73964
4.7397
4.73974
4.73975
4.73979
4.73981
4.73979
4.73974
4.73976
4.73982
4.73981
4.73981
4.73976
4.73966
4.73956
4.73949
4.73936
4.7392
4.73886
4.73832
4.73745
4.73616
4.73423
4.73136
4.72729
4.72154
4.71344
4.70211
4.68669
4.66578
4.63807
4.60157
4.55453
4.49484
4.42041
4.32925
4.21996
4.09171
3.94483
3.78105
3.60393
3.4191
3.23433
3.0598
2.90761
2.79035
2.71802
2.68753
2.67933
2.67763
2.67748
2.67761
2.67798
2.67866
2.67967
2.68091
2.68223
2.68313
2.68347
2.68353
2.68335
2.6831
2.68302
2.68299
2.683
2.6831
2.6832
2.68316
2.68307
2.68295
2.68272
2.68241
2.68221
2.68219
2.68223
2.68234
2.68254
2.68277
2.68292
2.68295
2.68294
2.68285
2.68268
2.68249
2.68239
2.68236
2.68235
2.68238
2.68246
2.68252
2.68252
2.6825
2.68246
2.68237
2.68229
2.68227
2.68228
2.68231
2.68238
2.68247
2.68253
2.68254
2.68254
2.6825
2.68243
2.68234
2.68226
2.68223
2.68222
2.68222
2.68224
2.68226
2.68226
2.68226
2.68225
2.68222
2.68219
2.68218
2.68222
2.68228
2.68239
2.68254
2.68273
2.68296
2.68323
2.68352
2.68383
2.68414
2.68441
2.68462
2.68472
2.68478
2.68483
2.68485
2.68484
2.6848
2.68472
2.68461
2.68445
2.68427
2.68406
2.68387
2.68369
2.68356
2.68346
2.6834
2.68336
2.68333
2.6833
2.68326
2.68321
2.68317
2.68315
2.68313
2.68312
2.6831
2.68309
2.68308
2.68307
2.68306
2.68304
2.683
2.68297
2.68293
2.68291
2.68291
2.6829
2.68291
2.68293
2.68294
2.68293
2.68291
2.68278
2.68219
2.67949
2.67353
2.66495
2.65491
2.64413
2.63296
2.62154
2.60998
2.59829
2.58654
2.57474
2.56294
2.55111
2.53929
2.52748
2.51568
2.50388
2.49211
2.48034
2.46861
2.45688
2.4452
2.43353
2.42192
2.41031
2.39877
2.38724
2.37579
2.36434
2.35295
2.34159
2.33028
2.31899
2.30776
2.29661
2.2855
2.27447
2.26354
2.25271
2.24206
2.23131
2.21978
2.1989
4.73918
4.73917
4.73919
4.73919
4.73921
4.73924
4.73931
4.73935
4.7394
4.73943
4.73949
4.73952
4.73955
4.73957
4.73964
4.7397
4.73974
4.73976
4.73979
4.73981
4.73979
4.73975
4.73976
4.73981
4.73979
4.7398
4.73975
4.73968
4.73958
4.73949
4.73935
4.73919
4.73887
4.73832
4.73745
4.73616
4.73422
4.73136
4.7273
4.72156
4.71347
4.70218
4.68677
4.6659
4.63823
4.60181
4.55494
4.49548
4.42131
4.33044
4.22145
4.09346
3.94678
3.7831
3.60593
3.42089
3.23575
3.0608
2.90821
2.79062
2.71804
2.68753
2.67937
2.67764
2.67747
2.6776
2.67797
2.67865
2.67966
2.6809
2.68223
2.68313
2.68347
2.68354
2.68335
2.6831
2.68302
2.68299
2.68299
2.6831
2.6832
2.68316
2.68307
2.68295
2.68272
2.68242
2.68221
2.68219
2.68223
2.68234
2.68254
2.68277
2.68292
2.68295
2.68294
2.68285
2.68268
2.68249
2.68239
2.68236
2.68235
2.68238
2.68246
2.68252
2.68252
2.6825
2.68246
2.68237
2.68229
2.68227
2.68228
2.68231
2.68238
2.68247
2.68253
2.68254
2.68254
2.6825
2.68243
2.68234
2.68226
2.68223
2.68222
2.68222
2.68224
2.68226
2.68226
2.68226
2.68225
2.68222
2.68219
2.68218
2.68222
2.68228
2.68239
2.68254
2.68273
2.68296
2.68323
2.68352
2.68383
2.68414
2.68441
2.68462
2.68472
2.68478
2.68483
2.68485
2.68484
2.6848
2.68472
2.68461
2.68445
2.68427
2.68406
2.68387
2.68369
2.68356
2.68346
2.6834
2.68336
2.68333
2.6833
2.68326
2.68321
2.68317
2.68315
2.68313
2.68312
2.6831
2.68309
2.68308
2.68307
2.68306
2.68304
2.683
2.68297
2.68293
2.68291
2.68291
2.6829
2.68291
2.68293
2.68294
2.68293
2.68291
2.68278
2.68219
2.67949
2.67353
2.66495
2.65491
2.64413
2.63296
2.62154
2.60998
2.59829
2.58654
2.57474
2.56294
2.55111
2.53929
2.52747
2.51568
2.50388
2.49211
2.48034
2.46862
2.45688
2.4452
2.43353
2.42192
2.41031
2.39877
2.38724
2.37579
2.36434
2.35295
2.34159
2.33028
2.31899
2.30776
2.29661
2.2855
2.27447
2.26354
2.25271
2.24206
2.23129
2.21975
2.19894
4.73918
4.73917
4.73918
4.73919
4.73921
4.73924
4.73931
4.73935
4.7394
4.73943
4.73949
4.73952
4.73954
4.73958
4.73965
4.7397
4.73973
4.73976
4.73979
4.73981
4.73979
4.73975
4.73976
4.7398
4.73978
4.73979
4.73976
4.73971
4.73962
4.73949
4.73933
4.73918
4.73887
4.73833
4.73744
4.73615
4.73422
4.73137
4.72732
4.72159
4.71354
4.70227
4.68688
4.66609
4.63852
4.60227
4.55568
4.49652
4.42271
4.33221
4.22361
4.09593
3.94948
3.7858
3.60839
3.42298
3.23737
3.06189
2.90888
2.79098
2.71816
2.68759
2.67943
2.67766
2.67746
2.6776
2.67796
2.67865
2.67965
2.68089
2.68222
2.68313
2.68347
2.68354
2.68336
2.68311
2.68302
2.68299
2.68299
2.68309
2.68319
2.68316
2.68307
2.68295
2.68272
2.68242
2.68221
2.68219
2.68223
2.68234
2.68254
2.68277
2.68292
2.68295
2.68294
2.68285
2.68268
2.68249
2.68239
2.68236
2.68235
2.68238
2.68246
2.68252
2.68252
2.6825
2.68246
2.68237
2.68229
2.68227
2.68228
2.68231
2.68238
2.68247
2.68253
2.68254
2.68254
2.6825
2.68243
2.68234
2.68226
2.68223
2.68222
2.68222
2.68224
2.68226
2.68226
2.68226
2.68225
2.68222
2.68219
2.68218
2.68222
2.68228
2.68239
2.68254
2.68273
2.68296
2.68323
2.68352
2.68383
2.68414
2.68442
2.68462
2.68472
2.68478
2.68483
2.68485
2.68484
2.6848
2.68473
2.68461
2.68445
2.68427
2.68406
2.68387
2.68369
2.68356
2.68346
2.6834
2.68336
2.68334
2.6833
2.68326
2.68321
2.68317
2.68315
2.68313
2.68312
2.6831
2.68309
2.68308
2.68307
2.68306
2.68304
2.683
2.68297
2.68293
2.68291
2.68291
2.6829
2.68291
2.68293
2.68294
2.68293
2.68291
2.68278
2.68219
2.67949
2.67353
2.66495
2.65491
2.64413
2.63297
2.62154
2.60998
2.59829
2.58654
2.57474
2.56294
2.55111
2.53929
2.52747
2.51568
2.50388
2.49211
2.48034
2.46862
2.45688
2.4452
2.43353
2.42192
2.41031
2.39877
2.38724
2.37579
2.36434
2.35295
2.34159
2.33028
2.31899
2.30776
2.29661
2.2855
2.27446
2.26354
2.25271
2.24206
2.23128
2.21972
2.19901
4.73918
4.73917
4.73918
4.73919
4.73921
4.73924
4.73931
4.73935
4.73941
4.73944
4.73949
4.73951
4.73954
4.73958
4.73965
4.7397
4.73973
4.73976
4.7398
4.7398
4.73978
4.73976
4.73977
4.73978
4.73976
4.73978
4.73976
4.73975
4.73965
4.73949
4.73931
4.73916
4.73886
4.73833
4.73745
4.73616
4.73422
4.73137
4.72735
4.72164
4.71361
4.70236
4.68704
4.66636
4.63892
4.6029
4.5566
4.49777
4.42433
4.33421
4.22595
4.09846
3.952
3.78807
3.61031
3.42446
3.23834
3.06244
2.90917
2.79109
2.71815
2.68759
2.67947
2.67767
2.67745
2.6776
2.67796
2.67864
2.67963
2.68088
2.6822
2.68312
2.68347
2.68355
2.68337
2.68311
2.68303
2.68299
2.68299
2.68309
2.68319
2.68316
2.68307
2.68295
2.68272
2.68242
2.68221
2.68219
2.68222
2.68234
2.68253
2.68277
2.68292
2.68295
2.68294
2.68285
2.68268
2.68249
2.68239
2.68236
2.68235
2.68238
2.68246
2.68252
2.68252
2.6825
2.68246
2.68237
2.68229
2.68227
2.68228
2.68231
2.68238
2.68247
2.68253
2.68254
2.68254
2.6825
2.68243
2.68234
2.68226
2.68223
2.68222
2.68222
2.68224
2.68226
2.68227
2.68226
2.68224
2.68222
2.68219
2.68218
2.68222
2.68228
2.68239
2.68254
2.68273
2.68297
2.68323
2.68353
2.68383
2.68414
2.68442
2.68462
2.68472
2.68478
2.68483
2.68486
2.68484
2.6848
2.68473
2.68461
2.68445
2.68427
2.68406
2.68386
2.68369
2.68355
2.68346
2.6834
2.68337
2.68334
2.6833
2.68326
2.68321
2.68317
2.68315
2.68313
2.68312
2.6831
2.68309
2.68308
2.68307
2.68306
2.68304
2.683
2.68297
2.68293
2.68291
2.68291
2.6829
2.68291
2.68293
2.68294
2.68293
2.68291
2.68278
2.68219
2.67949
2.67353
2.66495
2.65492
2.64413
2.63297
2.62154
2.60998
2.59829
2.58654
2.57474
2.56294
2.55111
2.53929
2.52747
2.51568
2.50388
2.49211
2.48034
2.46862
2.45688
2.4452
2.43353
2.42192
2.41031
2.39877
2.38724
2.3758
2.36434
2.35295
2.34158
2.33028
2.31899
2.30776
2.29661
2.2855
2.27446
2.26354
2.25271
2.24206
2.23126
2.21969
2.19908
4.73918
4.73917
4.73918
4.73919
4.73921
4.73924
4.73931
4.73935
4.73941
4.73944
4.73949
4.73951
4.73954
4.73958
4.73965
4.7397
4.73973
4.73976
4.7398
4.7398
4.73978
4.73976
4.73977
4.73976
4.73974
4.73978
4.73977
4.73979
4.73969
4.73949
4.73928
4.73914
4.73885
4.73834
4.73746
4.73617
4.73422
4.73136
4.72738
4.7217
4.71367
4.70243
4.68721
4.66664
4.63934
4.60352
4.55749
4.49891
4.42577
4.33587
4.22779
4.10033
3.95387
3.78955
3.61144
3.42526
3.23885
3.06277
2.90937
2.79122
2.71823
2.68762
2.67951
2.6777
2.67747
2.67761
2.67797
2.67865
2.67962
2.68086
2.68218
2.68311
2.68346
2.68355
2.68337
2.68312
2.68303
2.68299
2.68299
2.68308
2.68319
2.68315
2.68307
2.68295
2.68273
2.68242
2.68221
2.68219
2.68222
2.68233
2.68253
2.68277
2.68292
2.68295
2.68294
2.68285
2.68268
2.68249
2.68239
2.68236
2.68235
2.68238
2.68246
2.68252
2.68252
2.6825
2.68246
2.68237
2.68229
2.68227
2.68228
2.68231
2.68238
2.68247
2.68253
2.68254
2.68254
2.6825
2.68243
2.68234
2.68226
2.68223
2.68222
2.68222
2.68224
2.68226
2.68227
2.68226
2.68224
2.68222
2.68219
2.68218
2.68222
2.68228
2.68239
2.68254
2.68273
2.68297
2.68324
2.68353
2.68384
2.68415
2.68442
2.68462
2.68473
2.68478
2.68483
2.68486
2.68484
2.6848
2.68473
2.68461
2.68445
2.68426
2.68406
2.68386
2.68369
2.68355
2.68346
2.6834
2.68337
2.68334
2.6833
2.68326
2.68321
2.68317
2.68315
2.68313
2.68312
2.6831
2.68309
2.68308
2.68307
2.68306
2.68304
2.683
2.68297
2.68293
2.68291
2.68291
2.68291
2.68291
2.68293
2.68294
2.68293
2.68291
2.68278
2.68219
2.67949
2.67353
2.66495
2.65492
2.64413
2.63297
2.62154
2.60998
2.59829
2.58654
2.57474
2.56294
2.55111
2.53929
2.52747
2.51568
2.50388
2.49211
2.48034
2.46862
2.45688
2.4452
2.43353
2.42192
2.41031
2.39877
2.38724
2.3758
2.36434
2.35295
2.34158
2.33028
2.31899
2.30776
2.29661
2.2855
2.27446
2.26354
2.25271
2.24205
2.23124
2.21966
2.19915
4.73918
4.73916
4.73917
4.73919
4.73921
4.73924
4.73931
4.73936
4.73942
4.73944
4.73949
4.7395
4.73954
4.73958
4.73965
4.7397
4.73973
4.73976
4.7398
4.7398
4.73977
4.73977
4.73977
4.73975
4.73973
4.73977
4.73978
4.73982
4.73972
4.73949
4.73926
4.73911
4.73884
4.73834
4.73748
4.73619
4.73422
4.73136
4.7274
4.72175
4.7137
4.70251
4.68738
4.66685
4.63969
4.60405
4.55814
4.49971
4.42678
4.33705
4.22898
4.10146
3.95485
3.79026
3.61173
3.42533
3.23882
3.0627
2.90933
2.79119
2.71816
2.68755
2.67952
2.67773
2.67749
2.67763
2.67799
2.67866
2.67962
2.68084
2.68215
2.6831
2.68346
2.68355
2.68338
2.68313
2.68303
2.683
2.68299
2.68308
2.68318
2.68315
2.68307
2.68295
2.68273
2.68242
2.68221
2.68219
2.68222
2.68233
2.68253
2.68277
2.68292
2.68295
2.68294
2.68285
2.68268
2.68249
2.68239
2.68236
2.68235
2.68238
2.68246
2.68252
2.68252
2.6825
2.68246
2.68237
2.68229
2.68227
2.68228
2.68231
2.68238
2.68247
2.68253
2.68254
2.68254
2.6825
2.68243
2.68234
2.68226
2.68223
2.68222
2.68222
2.68224
2.68226
2.68227
2.68226
2.68224
2.68222
2.68219
2.68219
2.68222
2.68229
2.68239
2.68254
2.68273
2.68297
2.68324
2.68353
2.68384
2.68415
2.68443
2.68463
2.68473
2.68478
2.68484
2.68486
2.68485
2.68481
2.68473
2.68461
2.68445
2.68426
2.68406
2.68386
2.68369
2.68355
2.68346
2.6834
2.68337
2.68334
2.68331
2.68326
2.68322
2.68318
2.68315
2.68313
2.68312
2.6831
2.68309
2.68308
2.68307
2.68306
2.68304
2.683
2.68297
2.68293
2.68291
2.68291
2.68291
2.68291
2.68293
2.68294
2.68293
2.68291
2.68278
2.68219
2.67949
2.67353
2.66495
2.65492
2.64413
2.63297
2.62154
2.60998
2.59829
2.58654
2.57474
2.56294
2.55111
2.53929
2.52747
2.51569
2.50388
2.49211
2.48034
2.46862
2.45688
2.4452
2.43353
2.42192
2.41031
2.39877
2.38724
2.3758
2.36433
2.35295
2.34158
2.33028
2.31899
2.30776
2.2966
2.28551
2.27446
2.26354
2.25271
2.24205
2.23123
2.21964
2.19921
4.73918
4.73916
4.73917
4.73919
4.73921
4.73924
4.73931
4.73936
4.73942
4.73944
4.73948
4.7395
4.73954
4.73958
4.73965
4.7397
4.73973
4.73977
4.7398
4.73979
4.73977
4.73977
4.73977
4.73974
4.73972
4.73976
4.73979
4.73985
4.73975
4.73949
4.73924
4.73909
4.73882
4.73833
4.73749
4.7362
4.73423
4.73135
4.72743
4.72178
4.71372
4.70257
4.68747
4.66699
4.63992
4.60438
4.55846
4.50009
4.42733
4.33769
4.22962
4.10206
3.9553
3.79042
3.61179
3.42528
3.23875
3.0627
2.90934
2.79121
2.71816
2.68752
2.67954
2.67777
2.67752
2.67766
2.67801
2.67867
2.67962
2.68083
2.68214
2.6831
2.68345
2.68355
2.68339
2.68313
2.68303
2.683
2.68299
2.68308
2.68318
2.68315
2.68307
2.68295
2.68273
2.68242
2.68222
2.68219
2.68222
2.68233
2.68253
2.68276
2.68291
2.68295
2.68294
2.68285
2.68268
2.68249
2.68239
2.68236
2.68235
2.68238
2.68246
2.68252
2.68252
2.6825
2.68246
2.68237
2.68229
2.68227
2.68228
2.68231
2.68238
2.68247
2.68253
2.68254
2.68254
2.6825
2.68243
2.68234
2.68226
2.68223
2.68222
2.68222
2.68224
2.68226
2.68227
2.68226
2.68224
2.68221
2.68219
2.68219
2.68222
2.68229
2.68239
2.68254
2.68273
2.68297
2.68324
2.68353
2.68384
2.68415
2.68443
2.68463
2.68473
2.68479
2.68484
2.68487
2.68485
2.68481
2.68473
2.68462
2.68446
2.68426
2.68406
2.68386
2.68369
2.68355
2.68346
2.6834
2.68337
2.68334
2.68331
2.68326
2.68322
2.68318
2.68315
2.68314
2.68312
2.6831
2.68309
2.68308
2.68307
2.68306
2.68304
2.683
2.68297
2.68293
2.68291
2.68291
2.68291
2.68291
2.68293
2.68294
2.68293
2.68291
2.68278
2.68219
2.67949
2.67353
2.66495
2.65492
2.64413
2.63297
2.62154
2.60998
2.59829
2.58654
2.57474
2.56294
2.55111
2.53929
2.52747
2.51568
2.50388
2.49211
2.48034
2.46861
2.45688
2.44519
2.43353
2.42192
2.41031
2.39876
2.38724
2.3758
2.36433
2.35295
2.34158
2.33029
2.31899
2.30777
2.2966
2.28551
2.27446
2.26354
2.25271
2.24205
2.23122
2.21962
2.19924
4.73918
4.73916
4.73917
4.73919
4.73921
4.73924
4.73931
4.73936
4.73942
4.73944
4.73948
4.7395
4.73954
4.73959
4.73965
4.7397
4.73973
4.73977
4.7398
4.73979
4.73976
4.73977
4.73977
4.73973
4.73972
4.73976
4.73979
4.73987
4.73976
4.73949
4.73923
4.73908
4.7388
4.73833
4.7375
4.73622
4.73423
4.73136
4.72746
4.72177
4.71377
4.70268
4.68755
4.66709
4.63998
4.60443
4.55874
4.50046
4.42776
4.33821
4.23008
4.1022
3.95525
3.79038
3.61169
3.42511
3.23858
3.06262
2.90928
2.79122
2.71813
2.68744
2.67953
2.67778
2.67754
2.67768
2.67803
2.67868
2.67962
2.68082
2.68213
2.68309
2.68345
2.68355
2.68339
2.68313
2.68303
2.683
2.68299
2.68308
2.68318
2.68315
2.68307
2.68295
2.68273
2.68243
2.68222
2.68219
2.68222
2.68233
2.68253
2.68276
2.68291
2.68295
2.68294
2.68285
2.68268
2.68249
2.68239
2.68236
2.68235
2.68238
2.68246
2.68252
2.68252
2.6825
2.68246
2.68238
2.68229
2.68227
2.68228
2.68231
2.68238
2.68247
2.68253
2.68254
2.68254
2.6825
2.68243
2.68234
2.68226
2.68224
2.68222
2.68222
2.68224
2.68226
2.68227
2.68226
2.68224
2.68221
2.68219
2.68219
2.68222
2.68229
2.68239
2.68254
2.68273
2.68297
2.68323
2.68353
2.68384
2.68415
2.68443
2.68463
2.68473
2.68479
2.68484
2.68487
2.68485
2.68481
2.68473
2.68462
2.68446
2.68426
2.68406
2.68386
2.68369
2.68355
2.68346
2.6834
2.68337
2.68334
2.68331
2.68326
2.68322
2.68318
2.68315
2.68314
2.68312
2.6831
2.68309
2.68308
2.68307
2.68306
2.68304
2.683
2.68297
2.68293
2.68291
2.68291
2.68291
2.68291
2.68293
2.68294
2.68293
2.68291
2.68278
2.68219
2.67949
2.67353
2.66495
2.65492
2.64413
2.63297
2.62154
2.60998
2.59829
2.58654
2.57474
2.56294
2.55111
2.53929
2.52747
2.51569
2.50388
2.4921
2.48033
2.46861
2.45688
2.44519
2.43352
2.42192
2.41032
2.39876
2.38724
2.3758
2.36434
2.35295
2.34157
2.3303
2.31899
2.30777
2.29659
2.28552
2.27445
2.26354
2.25271
2.24205
2.23121
2.21961
2.19926
1.22125
1.22125
1.22125
1.22125
1.22125
1.22125
1.22125
1.22125
1.22125
1.22125
1.22125
1.22125
1.22125
1.22125
1.22125
1.22125
1.22125
1.22125
1.22125
1.22125
1.22125
1.22125
1.22125
1.22125
1.22125
1.22125
1.22125
1.22125
1.22125
1.22125
1.22125
1.22125
1.22125
1.22125
1.22125
1.22125
1.22125
1.22125
1.22125
1.22125
1.22125
1.22125
1.22125
1.22125
1.22125
1.22125
1.22125
1.22125
1.22125
1.22125
1.22141
1.22318
1.22975
1.24138
1.25471
1.26749
1.27983
1.29266
1.30638
1.32056
1.33481
1.34957
1.36581
1.38397
1.40393
1.42598
1.44764
1.45841
1.42283
1.31359
1.1337
0.8865
0.627128
0.569715
0.643631
0.776147
0.913899
1.02875
1.11484
1.17614
1.20402
1.21039
1.20234
1.18644
1.17063
1.15679
1.14132
1.12152
1.09619
1.07638
1.05878
1.04264
1.03148
1.02659
1.01851
1.01728
1.02646
1.03717
1.05095
1.07998
1.22125
1.22125
1.22125
1.22125
1.22125
1.22125
1.22125
1.22125
1.22125
1.22125
1.22125
1.22125
1.22125
1.22125
1.22125
1.22125
1.22125
1.22125
1.22125
1.22125
1.22125
1.22125
1.22125
1.22125
1.22125
1.22125
1.22125
1.22125
1.22125
1.22125
1.22125
1.22125
1.22125
1.22125
1.22125
1.22125
1.22125
1.22125
1.22125
1.22125
1.22125
1.22125
1.22125
1.22125
1.22125
1.22125
1.22125
1.22125
1.22125
1.22125
1.22125
1.22137
1.22279
1.22865
1.23968
1.25267
1.26515
1.27703
1.28923
1.30229
1.31581
1.32927
1.34288
1.3576
1.37396
1.39163
1.41009
1.42723
1.43689
1.41314
1.31912
1.15144
0.867026
0.621398
0.553325
0.632253
0.773578
0.911713
1.02752
1.1184
1.18045
1.21694
1.23248
1.2353
1.2267
1.2142
1.20129
1.18324
1.16432
1.13947
1.11656
1.09392
1.0755
1.06112
1.05478
1.04733
1.05118
1.06626
1.08462
1.10844
1.22125
1.22125
1.22125
1.22125
1.22125
1.22125
1.22125
1.22125
1.22125
1.22125
1.22125
1.22125
1.22125
1.22125
1.22125
1.22125
1.22125
1.22125
1.22125
1.22125
1.22125
1.22125
1.22125
1.22125
1.22125
1.22125
1.22125
1.22125
1.22125
1.22125
1.22125
1.22125
1.22125
1.22125
1.22125
1.22125
1.22125
1.22125
1.22125
1.22125
1.22125
1.22125
1.22125
1.22125
1.22125
1.22125
1.22125
1.22125
1.22125
1.22125
1.22125
1.22133
1.22243
1.22753
1.23785
1.25046
1.26264
1.27405
1.28559
1.29791
1.31073
1.32337
1.33582
1.34889
1.36323
1.37838
1.39298
1.40485
1.41113
1.39505
1.32471
1.18257
0.957132
0.742615
0.652363
0.695065
0.815674
0.946326
1.0488
1.12969
1.18545
1.21925
1.23702
1.24501
1.24437
1.23865
1.2301
1.21898
1.20466
1.18433
1.16342
1.22125
1.22125
1.22125
1.22125
1.22125
1.22125
1.22125
1.22125
1.22125
1.22125
1.22125
1.22125
1.22125
1.22125
1.22125
1.22125
1.22125
1.22125
1.22125
1.22125
1.22125
1.22125
1.22125
1.22125
1.22125
1.22125
1.22125
1.22125
1.22125
1.22125
1.22125
1.22125
1.22125
1.22125
1.22125
1.22125
1.22125
1.22125
1.22125
1.22125
1.22125
1.22125
1.22125
1.22125
1.22125
1.22125
1.22125
1.22125
1.22125
1.22125
1.22125
1.22125
1.2213
1.22211
1.2264
1.2359
1.24808
1.25996
1.27091
1.22125
1.22125
1.22125
1.22125
1.22125
1.22125
1.22125
1.22125
1.22125
1.22125
1.22125
1.22125
1.22125
1.22125
1.22125
1.22125
1.22125
1.22125
1.22125
1.22125
1.22125
1.22125
1.22125
1.22125
1.22125
1.22125
1.22125
1.22125
1.22125
1.22125
1.22125
1.22125
1.22125
1.22125
1.22125
1.22125
1.22125
1.22125
1.22125
1.22125
1.22125
1.22125
1.22125
1.22125
1.22125
1.22125
1.22125
1.22125
1.22125
1.22125
1.22125
1.22125
1.22128
1.22183
1.22529
1.23386
1.24554
1.22125
1.22125
1.22125
1.22125
1.22125
1.22125
1.22125
1.22125
1.22125
1.22125
1.22125
1.22125
1.22125
1.22125
1.22125
1.22125
1.22125
1.22125
1.22125
1.22125
1.22125
1.22125
1.22125
1.22125
1.22125
1.22125
1.22125
1.22125
1.22125
1.22125
1.22125
1.22125
1.22125
1.22125
1.22125
1.22125
1.22125
1.22125
1.22125
1.22125
1.22125
1.22125
1.22125
1.22125
1.22125
1.22125
1.22125
1.22125
1.22125
1.22125
1.22125
1.22125
1.22126
1.22161
1.22425
1.23175
1.22125
1.22125
1.22125
1.22125
1.22125
1.22125
1.22125
1.22125
1.22125
1.22125
1.22125
1.22125
1.22125
1.22125
1.22125
1.22125
1.22125
1.22125
1.22125
1.22125
1.22125
1.22125
1.22125
1.22125
1.22125
1.22125
1.22125
1.22125
1.22125
1.22125
1.22125
1.22125
1.22125
1.22125
1.22125
1.22125
1.22125
1.22125
1.22125
1.22125
1.22125
1.22125
1.22125
1.22125
1.22125
1.22125
1.22125
1.22125
1.22125
1.22125
1.22125
1.22125
1.22126
1.22145
1.22333
1.22963
1.22125
1.22125
1.22125
1.22125
1.22125
1.22125
1.22125
1.22125
1.22125
1.22125
1.22125
1.22125
1.22125
1.22125
1.22125
1.22125
1.22125
1.22125
1.22125
1.22125
1.22125
1.22125
1.22125
1.22125
1.22125
1.22125
1.22125
1.22125
1.22125
1.22125
1.22125
1.22125
1.22125
1.22125
1.22125
1.22125
1.22125
1.22125
1.22125
1.22125
1.22125
1.22125
1.22125
1.22125
1.22125
1.22125
1.22125
1.22125
1.22125
1.22125
1.22125
1.22125
1.22125
1.22135
1.22256
1.22757
1.22125
1.22125
1.22125
1.22125
1.22125
1.22125
1.22125
1.22125
1.22125
1.22125
1.22125
1.22125
1.22125
1.22125
1.22125
1.22125
1.22125
1.22125
1.22125
1.22125
1.22125
1.22125
1.22125
1.22125
1.22125
1.22125
1.22125
1.22125
1.22125
1.22125
1.22125
1.22125
1.22125
1.22125
1.22125
1.22125
1.22125
1.22125
1.22125
1.22125
1.22125
1.22125
1.22125
1.22125
1.22125
1.22125
1.22125
1.22125
1.22125
1.22125
1.22125
1.22125
1.22125
1.22129
1.22198
1.22566
1.22125
1.22125
1.22125
1.22125
1.22125
1.22125
1.22125
1.22125
1.22125
1.22125
1.22125
1.22125
1.22125
1.22125
1.22125
1.22125
1.22125
1.22125
1.22125
1.22125
1.22125
1.22125
1.22125
1.22125
1.22125
1.22125
1.22125
1.22125
1.22125
1.22125
1.22125
1.22125
1.22125
1.22125
1.22125
1.22125
1.22125
1.22125
1.22125
1.22125
1.22125
1.22125
1.22125
1.22125
1.22125
1.22125
1.22125
1.22125
1.22125
1.22125
1.22125
1.22125
1.22125
1.22126
1.2216
1.22402
1.22125
1.22125
1.22125
1.22125
1.22125
1.22125
1.22125
1.22125
1.22125
1.22125
1.22125
1.22125
1.22125
1.22125
1.22125
1.22125
1.22125
1.22125
1.22125
1.22125
1.22125
1.22125
1.22125
1.22125
1.22125
1.22125
1.22125
1.22125
1.22125
1.22125
1.22125
1.22125
1.22125
1.22125
1.22125
1.22125
1.22125
1.22125
1.22125
1.22125
1.22125
1.22125
1.22125
1.22125
1.22125
1.22125
1.22125
1.22125
1.22125
1.22125
1.22125
1.22125
1.22125
1.22125
1.22138
1.22275
1.22125
1.22125
1.22125
1.22125
1.22125
1.22125
1.22125
1.22125
1.22125
1.22125
1.22125
1.22125
1.22125
1.22125
1.22125
1.22125
1.22125
1.22125
1.22125
1.22125
1.22125
1.22125
1.22125
1.22125
1.22125
1.22125
1.22125
1.22125
1.22125
1.22125
1.22125
1.22125
1.22125
1.22125
1.22125
1.22125
1.22125
1.22125
1.22125
1.22125
1.22125
1.22125
1.22125
1.22125
1.22125
1.22125
1.22125
1.22125
1.22125
1.22125
1.22125
1.22125
1.22125
1.22125
1.22129
1.22192
1.22125
1.22125
1.22125
1.22125
1.22125
1.22125
1.22125
1.22125
1.22125
1.22125
1.22125
1.22125
1.22125
1.22125
1.22125
1.22125
1.22125
1.22125
1.22125
1.22125
1.22125
1.22125
1.22125
1.22125
1.22125
1.22125
1.22125
1.22125
1.22125
1.22125
1.22125
1.22125
1.22125
1.22125
1.22125
1.22125
1.22125
1.22125
1.22125
1.22125
1.22125
1.22125
1.22125
1.22125
1.22125
1.22125
1.22125
1.22125
1.22125
1.22125
1.22125
1.22125
1.22125
1.22125
1.22126
1.22147
1.22125
1.22125
1.22125
1.22125
1.22125
1.22125
1.22125
1.22125
1.22125
1.22125
1.22125
1.22125
1.22125
1.22125
1.22125
1.22125
1.22125
1.22125
1.22125
1.22125
1.22125
1.22125
1.22125
1.22125
1.22125
1.22125
1.22125
1.22125
1.22125
1.22125
1.22125
1.22125
1.22125
1.22125
1.22125
1.22125
1.22125
1.22125
1.22125
1.22125
1.22125
1.22125
1.22125
1.22125
1.22125
1.22125
1.22125
1.22125
1.22125
1.22125
1.22125
1.22125
1.22125
1.22125
1.22125
1.2213
1.22125
1.22125
1.22125
1.22125
1.22125
1.22125
1.22125
1.22125
1.22125
1.22125
1.22125
1.22125
1.22125
1.22125
1.22125
1.22125
1.22125
1.22125
1.22125
1.22125
1.22125
1.22125
1.22125
1.22125
1.22125
1.22125
1.22125
1.22125
1.22125
1.22125
1.22125
1.22125
1.22125
1.22125
1.22125
1.22125
1.22125
1.22125
1.22125
1.22125
1.22125
1.22125
1.22125
1.22125
1.22125
1.22125
1.22125
1.22125
1.22125
1.22125
1.22125
1.22125
1.22125
1.22125
1.22125
1.22126
1.22125
1.22125
1.22125
1.22125
1.22125
1.22125
1.22125
1.22125
1.22125
1.22125
1.22125
1.22125
1.22125
1.22125
1.22125
1.22125
1.22125
1.22125
1.22125
1.22125
1.22125
1.22125
1.22125
1.22125
1.22125
1.22125
1.22125
1.22125
1.22125
1.22125
1.22125
1.22125
1.22125
1.22125
1.22125
1.22125
1.22125
1.22125
1.22125
1.22125
1.22125
1.22125
1.22125
1.22125
1.22125
1.22125
1.22125
1.22125
1.22125
1.22125
1.22125
1.22125
1.22125
1.22125
1.22125
1.22125
1.22125
1.22125
1.22125
1.22125
1.22125
1.22125
1.22125
1.22125
1.22125
1.22125
1.22125
1.22125
1.22125
1.22125
1.22125
1.22125
1.22125
1.22125
1.22125
1.22125
1.22125
1.22125
1.22125
1.22125
1.22125
1.22125
1.22125
1.22125
1.22125
1.22125
1.22125
1.22125
1.22125
1.22125
1.22125
1.22125
1.22125
1.22125
1.22125
1.22125
1.22125
1.22125
1.22125
1.22125
1.22125
1.22125
1.22125
1.22125
1.22125
1.22125
1.22125
1.22125
1.22125
1.22125
1.22125
1.22125
1.22125
1.22125
1.22125
1.22125
1.22125
1.22125
1.22125
1.22125
1.22125
1.22125
1.22125
1.22125
1.22125
1.22125
1.22125
1.22125
1.22125
1.22125
1.22125
1.22125
1.22125
1.22125
1.22125
1.22125
1.22125
1.22125
1.22125
1.22125
1.22125
1.22125
1.22125
1.22125
1.22125
1.22125
1.22125
1.22125
1.22125
1.22125
1.22125
1.22125
1.22125
1.22125
1.22125
1.22125
1.22125
1.22125
1.22125
1.22125
1.22125
1.22125
1.22125
1.22125
1.22125
1.22125
1.22125
1.22125
1.22125
1.22125
1.22125
1.22125
1.22125
1.22125
1.22125
1.22125
1.22125
1.22125
1.22125
1.22125
1.22125
1.22125
1.22125
1.22125
1.22125
1.22125
1.22125
1.22125
1.22125
1.22125
1.22125
1.22125
1.22125
1.22125
1.22125
1.22125
1.22125
1.22125
1.22125
1.22125
1.22125
1.22125
1.22125
1.22125
1.22125
1.22125
1.22125
1.22125
1.22125
1.22125
1.22125
1.22125
1.22125
1.22125
1.22125
1.22125
1.22125
1.22125
1.22125
1.22125
1.22125
1.22125
1.22125
1.22125
1.22125
1.22125
1.22125
1.22125
1.22125
1.22125
1.22125
1.22125
1.22125
1.22125
1.22125
1.22125
1.22125
1.22125
1.22125
1.22125
1.22125
1.22125
1.22125
1.22125
1.22125
1.22125
1.22125
1.22125
1.22125
1.22125
1.22125
1.22125
1.22125
1.22125
1.22125
1.22125
1.22125
1.22125
1.22125
1.22125
1.22125
1.22125
1.22125
1.22125
1.22125
1.22125
1.22125
1.22125
1.22125
1.22125
1.22125
1.22125
1.22125
1.22125
1.22125
1.22125
1.22125
1.22125
1.22125
1.22125
1.22125
1.22125
1.22125
1.22125
1.22125
1.22125
1.22125
1.22125
1.22125
1.22125
1.22125
1.22125
1.22125
1.22125
1.22125
1.22125
1.22125
1.22125
1.22125
1.22125
1.22125
1.22125
1.22125
1.22125
1.22125
1.22125
1.22125
1.22125
1.22125
1.22125
1.22125
1.22125
1.22125
1.22125
1.22125
1.22125
1.22125
1.22125
1.22125
1.22125
1.22125
1.22125
1.22125
1.22125
1.22125
1.22125
1.22125
1.22125
1.22125
1.22125
1.22125
1.22125
1.22125
1.22125
1.22125
1.22125
1.22125
1.22125
1.22125
1.22125
1.22125
1.22125
1.22125
1.22125
1.22125
1.22125
1.22125
1.22125
1.22125
1.22125
1.22125
1.22125
1.22125
1.22125
1.22125
1.22125
1.22125
1.22125
1.22125
1.22125
1.22125
1.22125
1.22125
1.22125
1.22125
1.22125
1.22125
1.22125
1.22125
1.22125
1.22125
1.22125
1.22125
1.22125
1.22125
1.22125
1.22125
1.22125
1.22125
1.22125
1.22125
1.22125
1.22125
1.22125
1.22125
1.22125
1.22125
1.22125
1.22125
1.22125
1.22125
1.22125
1.22125
1.22125
1.22125
1.22125
1.22125
1.22125
1.22125
1.22125
1.22125
1.22125
1.22125
1.22125
1.22125
1.22125
1.22125
1.22125
1.22125
1.22125
1.22125
1.22125
1.22125
1.22125
1.22125
1.22125
1.22125
1.22125
1.22125
1.22125
1.22125
1.22125
1.22125
1.22125
1.22125
1.22125
1.22125
1.22125
1.22125
1.22125
1.22125
1.22125
1.22125
1.22125
1.22125
1.22125
1.22125
1.22125
1.22125
1.22125
1.22125
1.22125
1.22125
1.22125
1.22125
1.22125
1.22125
1.22125
1.22125
1.22125
1.22125
1.22125
1.22125
1.22125
1.22125
1.22125
1.22125
1.22125
1.22125
1.22125
1.22125
1.22125
1.22125
1.22125
1.22125
1.22125
1.22125
1.22125
1.22125
1.22125
1.22125
1.22125
1.22125
1.22125
1.22125
1.22125
1.22125
1.22125
1.22125
1.22125
1.22125
1.22125
1.22125
1.22125
1.22125
1.22125
1.22125
1.22125
1.22125
1.22125
1.22125
1.22125
1.22125
1.22125
1.22125
1.22125
1.22125
1.22125
1.22125
1.22125
1.22125
1.22125
1.22125
1.22125
1.22125
1.22125
1.22125
1.22125
1.22125
1.22125
1.22125
1.22125
1.22125
1.22125
1.22125
1.22125
1.22125
1.22125
1.22125
1.22125
1.22125
1.22125
1.22125
1.22125
1.22125
1.22125
1.22125
1.22125
1.22125
1.22125
1.22125
1.22125
1.22125
1.22125
1.22125
1.22125
1.22125
1.22125
1.22125
1.22125
1.22125
1.22125
1.22125
1.22125
1.22125
1.22125
1.22125
1.22125
1.22125
1.22125
1.22125
1.22125
1.22125
1.22125
1.22125
1.22125
1.22125
1.22125
1.22125
1.22125
1.22125
1.22125
1.22125
1.22125
1.22125
1.22125
1.22125
1.22125
1.22125
1.22125
1.22125
1.22125
1.22125
1.22125
1.22125
1.22125
1.22125
1.22125
1.22125
1.22125
1.22125
1.22125
1.22125
1.22125
1.22125
1.22125
1.22125
1.22125
1.22125
1.22125
1.22125
1.22125
1.22125
1.22125
1.22125
1.22125
1.22125
1.22125
1.22125
1.22125
1.22125
1.22125
1.22125
1.22125
1.22125
1.22125
1.22125
1.22125
1.22125
1.22125
1.22125
1.22125