/*--------------------------------*- C++ -*----------------------------------*\
| =========                 |                                                 |
| \\      /  F ield         | OpenFOAM: The Open Source CFD Toolbox           |
|  \\    /   O peration     | Version:  2406                                  |
|   \\  /    A nd           | Website:  www.openfoam.com                      |
|    \\/     M anipulation  |                                                 |
\*---------------------------------------------------------------------------*/
FoamFile
{
    version     2.0;
    format      ascii;
    arch        "LSB;label=32;scalar=64";
    class       volScalarField;
    location    "0.08";
    object      Ma;
}
// * * * * * * * * * * * * * * * * * * * * * * * * * * * * * * * * * * * * * //

dimensions      [0 0 0 0 0 0 0];

internalField   nonuniform List<scalar> 
13818
(
6.20256e-14
6.41825e-14
6.105e-14
5.29802e-14
3.99735e-14
3.26921e-14
3.58935e-14
4.12144e-14
4.70427e-14
4.84229e-14
5.43287e-14
6.15472e-14
6.01974e-14
6.44335e-14
7.52232e-14
8.22898e-14
9.02358e-14
9.1584e-14
9.11374e-14
9.21549e-14
8.6397e-14
8.65596e-14
8.25854e-14
7.35499e-14
7.5558e-14
6.91378e-14
5.82235e-14
5.8132e-14
5.35556e-14
5.28205e-14
5.33359e-14
4.6034e-14
3.6364e-14
4.03087e-14
3.27787e-14
3.25381e-14
3.11213e-14
3.84004e-14
4.12251e-14
4.08356e-14
3.97223e-14
4.14761e-14
2.73317e-14
2.17191e-14
2.60877e-14
2.71138e-14
2.56712e-14
1.42117e-14
3.6238e-14
3.68943e-14
4.21288e-14
5.18616e-14
5.77543e-14
5.04326e-14
4.3818e-14
3.96144e-14
3.76925e-14
3.29236e-14
2.43677e-14
2.50296e-14
2.83951e-14
2.87922e-14
3.3988e-14
3.59412e-14
3.87014e-14
3.76004e-14
3.49851e-14
2.91644e-14
1.00923e-14
1.45729e-14
1.77686e-14
1.71604e-14
2.03416e-14
3.20203e-14
3.87193e-14
4.28041e-14
4.48709e-14
4.45204e-14
4.36883e-14
3.69603e-14
2.31683e-14
2.90113e-14
3.56457e-14
3.91741e-14
3.52563e-14
3.44146e-14
2.44032e-14
2.14332e-14
2.0265e-14
2.20496e-14
1.85372e-14
1.35096e-14
7.73381e-15
1.60983e-14
1.84318e-14
1.32845e-14
5.10067e-15
4.45158e-15
1.50148e-14
1.84914e-14
1.73658e-14
2.91174e-14
3.43889e-14
3.21006e-14
2.75438e-14
2.2046e-14
8.00285e-14
6.62971e-14
6.16774e-14
5.63216e-14
4.02133e-14
2.68773e-14
3.28207e-14
4.59524e-14
5.45858e-14
5.14342e-14
5.34931e-14
5.63111e-14
6.09467e-14
6.47854e-14
7.08541e-14
8.10848e-14
8.81675e-14
9.24338e-14
9.39766e-14
9.40089e-14
8.87477e-14
8.45046e-14
7.74424e-14
7.51224e-14
7.8118e-14
6.69596e-14
5.7461e-14
6.10773e-14
5.82455e-14
5.32289e-14
4.41069e-14
3.86396e-14
3.65847e-14
3.60616e-14
3.24536e-14
3.33293e-14
3.21025e-14
4.11719e-14
4.31756e-14
4.00664e-14
3.49774e-14
3.73504e-14
2.31359e-14
2.46122e-14
2.42153e-14
2.03938e-14
1.40253e-14
1.87408e-14
2.71068e-14
3.57526e-14
3.55848e-14
4.83697e-14
5.99256e-14
5.75062e-14
5.1189e-14
5.36338e-14
4.14261e-14
2.54651e-14
1.63746e-14
2.01611e-14
2.31534e-14
2.69508e-14
3.62293e-14
4.56396e-14
4.44644e-14
4.97622e-14
4.76363e-14
4.34459e-14
2.52995e-14
2.20463e-14
1.38214e-14
2.07167e-14
2.57486e-14
3.94005e-14
4.65379e-14
4.76393e-14
4.52067e-14
4.98915e-14
4.6118e-14
4.06454e-14
3.11357e-14
3.31919e-14
4.06828e-14
4.29883e-14
4.30429e-14
3.97749e-14
2.71709e-14
2.46686e-14
2.47172e-14
2.49976e-14
1.56827e-14
1.32048e-14
1.09465e-14
1.9352e-14
2.05267e-14
1.54393e-14
1.49918e-14
9.91617e-15
1.52858e-14
1.07207e-14
7.47028e-15
1.23705e-14
1.79839e-14
1.1375e-14
1.09341e-14
2.39349e-14
8.52094e-14
6.64638e-14
6.53518e-14
5.97523e-14
4.17276e-14
2.86057e-14
3.31929e-14
4.91909e-14
6.15389e-14
5.55113e-14
5.33387e-14
5.62999e-14
6.33193e-14
6.13839e-14
6.74843e-14
8.24971e-14
8.99314e-14
9.37505e-14
9.84709e-14
9.41214e-14
8.57561e-14
7.84285e-14
7.15475e-14
7.72515e-14
7.70989e-14
6.00626e-14
5.39913e-14
5.77659e-14
5.14981e-14
4.58885e-14
3.61921e-14
3.57203e-14
3.5704e-14
2.57824e-14
2.07796e-14
2.13707e-14
2.71756e-14
3.41432e-14
3.11109e-14
2.78032e-14
2.89083e-14
2.76466e-14
9.38568e-15
1.21541e-14
1.77296e-14
1.58331e-14
1.21333e-14
1.1332e-14
2.16966e-14
2.74831e-14
2.52715e-14
4.44959e-14
5.93644e-14
6.01029e-14
6.08074e-14
5.81293e-14
4.45597e-14
2.30731e-14
1.87207e-14
2.43046e-14
2.3544e-14
2.38348e-14
3.44394e-14
4.46102e-14
4.49117e-14
4.7311e-14
5.05e-14
4.50154e-14
3.60666e-14
1.75383e-14
9.42227e-15
1.23595e-14
2.56326e-14
3.99724e-14
4.81659e-14
5.1576e-14
4.82345e-14
4.58617e-14
4.55686e-14
4.31285e-14
3.98736e-14
4.20877e-14
3.92753e-14
4.72083e-14
4.24041e-14
3.84386e-14
2.38676e-14
1.48984e-14
2.62952e-14
2.66495e-14
2.42681e-14
1.21869e-14
1.37232e-14
2.69633e-14
3.69909e-14
2.62915e-14
2.30196e-14
1.6409e-14
1.67303e-14
1.47916e-14
1.44939e-14
1.88816e-14
1.6024e-14
1.65852e-14
1.65144e-14
1.89982e-14
9.18458e-14
7.6795e-14
6.8617e-14
5.57475e-14
4.00289e-14
3.23788e-14
3.59145e-14
4.70314e-14
5.70143e-14
5.57735e-14
5.39744e-14
5.68148e-14
6.14616e-14
6.29745e-14
7.07312e-14
8.01867e-14
8.78423e-14
9.386e-14
9.42371e-14
9.11729e-14
8.76698e-14
8.11411e-14
7.8461e-14
8.13939e-14
7.27302e-14
5.70569e-14
5.4205e-14
5.87426e-14
5.38021e-14
4.45401e-14
3.9028e-14
4.08287e-14
3.55038e-14
2.44905e-14
2.47006e-14
2.26554e-14
2.90398e-14
3.02623e-14
2.60711e-14
2.08222e-14
2.27613e-14
1.82213e-14
1.20859e-14
1.03483e-14
1.44404e-14
1.73079e-14
1.86649e-14
2.16216e-14
2.98819e-14
2.59774e-14
2.90752e-14
4.41994e-14
6.02543e-14
6.21166e-14
6.68423e-14
7.13423e-14
6.34282e-14
4.1047e-14
2.48305e-14
2.46733e-14
2.02953e-14
3.18545e-14
4.45786e-14
5.2785e-14
5.5238e-14
5.80174e-14
6.12579e-14
5.71917e-14
5.11512e-14
3.0076e-14
1.61545e-14
1.49365e-14
3.33448e-14
4.81293e-14
5.33929e-14
5.74078e-14
5.17433e-14
4.90865e-14
4.61973e-14
4.64889e-14
4.87861e-14
4.67738e-14
4.23864e-14
4.27112e-14
4.30401e-14
4.27539e-14
2.83993e-14
1.96564e-14
3.86168e-14
3.85696e-14
3.68556e-14
2.04918e-14
1.91658e-14
2.83501e-14
2.5811e-14
2.19918e-14
2.16492e-14
1.30818e-14
1.32727e-14
1.59968e-14
1.01935e-14
1.25624e-14
8.40598e-15
6.65073e-15
3.28214e-15
8.48459e-14
7.39551e-14
6.84888e-14
5.4735e-14
4.05167e-14
3.21473e-14
3.19669e-14
4.5441e-14
5.0518e-14
5.29754e-14
5.33303e-14
5.671e-14
6.18017e-14
6.6643e-14
7.10603e-14
7.82738e-14
8.43781e-14
9.26349e-14
9.49952e-14
9.10365e-14
8.73288e-14
8.451e-14
8.35598e-14
8.41138e-14
7.38028e-14
6.18435e-14
6.53542e-14
6.68419e-14
5.78602e-14
5.05821e-14
4.70497e-14
4.51661e-14
4.2489e-14
3.22014e-14
3.10465e-14
2.84971e-14
3.38186e-14
3.31012e-14
2.42705e-14
2.00581e-14
1.49903e-14
1.92725e-14
2.54853e-14
2.39233e-14
2.10036e-14
1.79949e-14
2.26781e-14
2.52545e-14
3.10538e-14
2.66798e-14
2.53318e-14
3.30325e-14
4.53144e-14
6.19508e-14
7.19437e-14
7.64453e-14
7.42152e-14
6.17282e-14
5.29373e-14
4.78909e-14
4.28137e-14
5.64988e-14
7.04336e-14
7.47743e-14
7.8196e-14
8.14246e-14
8.46265e-14
8.49742e-14
7.3999e-14
4.35396e-14
1.61016e-14
2.05514e-14
3.31391e-14
4.70299e-14
5.09598e-14
5.45999e-14
4.82454e-14
5.07796e-14
4.88629e-14
5.02159e-14
5.31125e-14
4.69588e-14
4.23507e-14
4.08302e-14
3.63701e-14
3.75031e-14
2.77519e-14
3.05852e-14
4.9013e-14
5.39635e-14
4.56235e-14
2.44214e-14
1.40122e-14
1.30965e-14
1.14705e-14
9.71796e-15
1.01024e-14
1.2345e-14
7.39987e-15
1.02857e-14
2.38615e-14
3.32042e-14
2.77101e-14
2.58231e-14
1.93899e-14
7.89809e-14
6.43847e-14
5.92248e-14
4.72932e-14
4.06528e-14
3.88052e-14
3.63427e-14
3.86013e-14
4.80555e-14
5.53034e-14
5.50974e-14
5.54688e-14
6.28071e-14
7.16325e-14
7.61625e-14
7.56423e-14
8.02138e-14
9.12139e-14
9.28145e-14
8.73196e-14
9.02444e-14
8.89936e-14
7.83039e-14
8.19118e-14
7.55074e-14
6.63032e-14
7.31866e-14
7.31711e-14
6.75036e-14
6.43401e-14
5.70954e-14
5.04889e-14
4.36019e-14
3.16807e-14
3.30514e-14
3.00888e-14
3.13647e-14
3.25217e-14
3.07464e-14
3.08484e-14
2.61337e-14
2.36848e-14
3.51575e-14
4.07849e-14
4.03272e-14
3.21969e-14
2.69512e-14
2.24558e-14
2.1033e-14
1.78497e-14
1.43656e-14
2.09614e-14
3.25353e-14
5.32544e-14
7.44154e-14
8.20275e-14
7.87736e-14
7.5312e-14
7.89506e-14
8.03759e-14
7.56136e-14
9.15128e-14
1.02768e-13
1.04553e-13
1.06354e-13
1.146e-13
1.16937e-13
1.1406e-13
8.85751e-14
5.08191e-14
1.82922e-14
2.75102e-14
3.2803e-14
4.25014e-14
4.86806e-14
5.19839e-14
4.78102e-14
4.62661e-14
4.17965e-14
4.62687e-14
4.60185e-14
3.94574e-14
4.21109e-14
4.0183e-14
3.70293e-14
3.89821e-14
3.22938e-14
4.21413e-14
5.84844e-14
7.00296e-14
5.13346e-14
3.0257e-14
2.08605e-14
1.66402e-14
2.58845e-14
3.15115e-14
3.11751e-14
3.49592e-14
2.69059e-14
2.38879e-14
3.30785e-14
4.46993e-14
3.57092e-14
3.30879e-14
2.73862e-14
8.04472e-14
6.33704e-14
5.45136e-14
5.11124e-14
4.63372e-14
4.84899e-14
4.37365e-14
4.241e-14
4.72365e-14
5.74769e-14
5.4462e-14
5.41432e-14
6.72695e-14
7.90014e-14
7.99714e-14
7.82478e-14
8.61965e-14
9.80113e-14
9.95822e-14
9.36892e-14
9.62106e-14
9.48081e-14
8.50781e-14
8.93077e-14
8.30767e-14
8.03704e-14
8.64204e-14
8.5611e-14
7.90418e-14
8.00205e-14
6.91397e-14
6.34018e-14
5.02969e-14
4.66982e-14
4.60976e-14
4.53579e-14
4.75995e-14
5.04814e-14
4.73408e-14
4.73976e-14
4.52198e-14
4.36174e-14
5.20736e-14
6.09408e-14
5.5751e-14
5.14141e-14
4.61841e-14
3.74384e-14
3.75603e-14
3.62304e-14
3.39917e-14
3.30913e-14
4.05048e-14
5.66875e-14
8.03693e-14
8.11551e-14
8.34782e-14
8.60212e-14
9.5846e-14
9.86759e-14
9.48639e-14
1.10735e-13
1.2314e-13
1.27266e-13
1.24171e-13
1.34333e-13
1.3752e-13
1.29446e-13
9.3463e-14
5.69839e-14
3.77817e-14
4.10882e-14
4.2329e-14
4.63836e-14
5.38987e-14
6.18821e-14
5.42126e-14
4.90911e-14
5.36375e-14
5.83076e-14
5.23903e-14
5.17607e-14
5.60631e-14
5.19166e-14
4.7734e-14
5.26131e-14
4.35906e-14
5.536e-14
6.32027e-14
7.77269e-14
6.44136e-14
4.61372e-14
4.11909e-14
3.77019e-14
4.13934e-14
5.02563e-14
4.98036e-14
5.37758e-14
4.28047e-14
3.33735e-14
3.77474e-14
5.03041e-14
4.47467e-14
4.17241e-14
3.72901e-14
6.84956e-14
5.76863e-14
5.5562e-14
6.12824e-14
5.59107e-14
5.13754e-14
4.77124e-14
4.57306e-14
5.06105e-14
5.27037e-14
4.7457e-14
5.74363e-14
7.09918e-14
7.68029e-14
8.15447e-14
8.45612e-14
8.68352e-14
9.29417e-14
9.40637e-14
9.2408e-14
9.00662e-14
9.07702e-14
9.18254e-14
9.815e-14
8.91827e-14
7.92906e-14
8.0989e-14
7.70258e-14
7.46383e-14
7.1745e-14
6.54957e-14
5.67652e-14
4.53368e-14
4.88494e-14
4.29686e-14
4.25782e-14
4.35285e-14
3.95447e-14
3.6672e-14
4.0033e-14
3.96603e-14
4.29989e-14
4.20057e-14
4.75952e-14
5.02601e-14
5.12611e-14
4.7168e-14
4.12472e-14
4.03912e-14
3.90788e-14
3.533e-14
2.98362e-14
3.17625e-14
3.9546e-14
5.27617e-14
6.09913e-14
6.15408e-14
6.45356e-14
6.57586e-14
7.03362e-14
7.48152e-14
8.47887e-14
8.9437e-14
9.42668e-14
9.7309e-14
9.98193e-14
1.03093e-13
9.33497e-14
6.9066e-14
4.43181e-14
4.06796e-14
3.60029e-14
4.18912e-14
4.13126e-14
4.25033e-14
4.66085e-14
4.57284e-14
4.33583e-14
4.36915e-14
4.1254e-14
4.14186e-14
4.45843e-14
4.77361e-14
4.24338e-14
3.99411e-14
3.91717e-14
3.40569e-14
3.62343e-14
4.96109e-14
4.94349e-14
4.11856e-14
3.85329e-14
4.20611e-14
3.78082e-14
3.44443e-14
3.81297e-14
4.01318e-14
3.36284e-14
3.05647e-14
2.97746e-14
3.01724e-14
3.58597e-14
3.82699e-14
3.04569e-14
2.28014e-14
5.51587e-14
5.45461e-14
5.50313e-14
5.95737e-14
5.61057e-14
5.37269e-14
5.7462e-14
5.44638e-14
4.69102e-14
4.27226e-14
4.60768e-14
5.82093e-14
7.1479e-14
7.69412e-14
8.30537e-14
8.56532e-14
8.62337e-14
8.7846e-14
8.75565e-14
8.41581e-14
8.59838e-14
8.5517e-14
8.69191e-14
8.39434e-14
7.4673e-14
7.00564e-14
6.86411e-14
6.1122e-14
5.8584e-14
5.5977e-14
4.83394e-14
3.80022e-14
3.09655e-14
3.07005e-14
2.56704e-14
2.16639e-14
1.9131e-14
1.30719e-14
1.01531e-14
1.28343e-14
1.33476e-14
1.60912e-14
2.35752e-14
2.73686e-14
3.14625e-14
3.27198e-14
3.19869e-14
3.2219e-14
3.34728e-14
2.77023e-14
2.20872e-14
1.96191e-14
1.43723e-14
4.65564e-15
1.72794e-14
3.01601e-14
3.22319e-14
3.81446e-14
4.09481e-14
4.27985e-14
4.48053e-14
5.21996e-14
5.0893e-14
5.54718e-14
5.90554e-14
5.06328e-14
4.29101e-14
3.58108e-14
2.73382e-14
1.25263e-14
8.69279e-15
2.26551e-14
3.22878e-14
3.36424e-14
3.46776e-14
3.72438e-14
3.50824e-14
3.09682e-14
2.45821e-14
2.08689e-14
2.5997e-14
2.43494e-14
2.53655e-14
2.00609e-14
1.70461e-14
1.43697e-14
1.20695e-14
1.90377e-14
2.52538e-14
2.43241e-14
2.27498e-14
1.33427e-14
1.72766e-14
1.88955e-14
1.77141e-14
2.38031e-14
2.72774e-14
2.59489e-14
2.03429e-14
1.44762e-14
1.40934e-14
1.79993e-14
2.02447e-14
1.99373e-14
5.42086e-14
5.39273e-14
6.48987e-14
6.62273e-14
7.09425e-14
6.9528e-14
7.01122e-14
7.62105e-14
5.76495e-14
4.5613e-14
5.13414e-14
5.96925e-14
7.15823e-14
8.22068e-14
8.3889e-14
8.3827e-14
9.30547e-14
9.56629e-14
8.6021e-14
8.81434e-14
9.23792e-14
8.91587e-14
8.19739e-14
7.2012e-14
6.59402e-14
6.93255e-14
6.31149e-14
5.18914e-14
5.9127e-14
6.00381e-14
4.44611e-14
3.38825e-14
3.30413e-14
2.96812e-14
2.04387e-14
1.60192e-14
1.20142e-14
1.02581e-14
1.35359e-14
9.04625e-15
1.02846e-14
1.87562e-14
2.5769e-14
3.55181e-14
4.16353e-14
4.62063e-14
5.47289e-14
5.08498e-14
5.29511e-14
5.16199e-14
4.6824e-14
4.52156e-14
4.26192e-14
3.56475e-14
3.15783e-14
2.76315e-14
2.68317e-14
2.49731e-14
2.80483e-14
2.55995e-14
2.73006e-14
3.30142e-14
2.97738e-14
2.51027e-14
2.85985e-14
2.52355e-14
1.65175e-14
1.45466e-14
1.77241e-14
2.53966e-14
3.33793e-14
3.45798e-14
3.85367e-14
4.23012e-14
4.22119e-14
4.43083e-14
4.25127e-14
2.92343e-14
2.43934e-14
2.24867e-14
2.00176e-14
1.93307e-14
2.40308e-14
2.2215e-14
1.7367e-14
1.41927e-14
1.49693e-14
1.76543e-14
1.71344e-14
1.15506e-14
6.3961e-15
1.16619e-14
6.85378e-15
1.26827e-14
1.27439e-14
2.01056e-14
2.63723e-14
2.34494e-14
1.71112e-14
1.15397e-14
9.11648e-15
1.2781e-14
1.21815e-14
1.91805e-14
5.688e-14
6.37322e-14
7.07792e-14
7.81021e-14
7.76188e-14
7.85905e-14
7.63671e-14
7.27228e-14
6.17604e-14
5.42038e-14
5.6081e-14
6.61223e-14
7.82118e-14
8.359e-14
8.86342e-14
9.55692e-14
9.60809e-14
9.35794e-14
9.39659e-14
9.38702e-14
9.01425e-14
8.39309e-14
7.96852e-14
7.60661e-14
7.64962e-14
7.40063e-14
6.33912e-14
5.34125e-14
5.27322e-14
5.73688e-14
4.59933e-14
3.46327e-14
3.16476e-14
2.77967e-14
2.78072e-14
1.99032e-14
1.52506e-14
1.57876e-14
8.41666e-15
6.92729e-15
1.3727e-14
2.29861e-14
3.06553e-14
3.78371e-14
5.82614e-14
7.72862e-14
9.04637e-14
8.38532e-14
8.09738e-14
7.90588e-14
7.53196e-14
7.18553e-14
6.98356e-14
6.31844e-14
5.20367e-14
4.05357e-14
2.90925e-14
2.47645e-14
2.37363e-14
1.76401e-14
2.15463e-14
1.60268e-14
1.29588e-14
1.32996e-14
1.83543e-14
2.31741e-14
3.58048e-14
4.97687e-14
5.59436e-14
6.09199e-14
5.90022e-14
5.46113e-14
5.33165e-14
5.37099e-14
5.7122e-14
5.20208e-14
4.7654e-14
3.57437e-14
2.78725e-14
2.57559e-14
2.165e-14
3.02229e-14
3.25146e-14
2.99807e-14
2.54124e-14
2.09528e-14
1.94554e-14
1.7708e-14
1.51124e-14
4.5931e-15
1.1795e-14
1.29142e-14
1.96838e-14
1.12554e-14
1.56128e-14
2.23095e-14
2.71936e-14
2.63687e-14
1.81731e-14
5.65478e-15
8.96757e-14
9.84584e-14
1.05206e-13
1.03761e-13
9.35787e-14
8.38803e-14
8.23975e-14
7.63276e-14
7.43822e-14
6.78097e-14
6.76557e-14
8.00443e-14
9.2521e-14
9.719e-14
9.90057e-14
9.70102e-14
1.04097e-13
1.11622e-13
1.04484e-13
9.68219e-14
9.28828e-14
9.83147e-14
9.30505e-14
8.54509e-14
7.69605e-14
7.55653e-14
6.71327e-14
5.13172e-14
5.79174e-14
6.30852e-14
5.0198e-14
4.26306e-14
4.05164e-14
4.40805e-14
4.01696e-14
3.28785e-14
2.96946e-14
3.40616e-14
2.95098e-14
2.0813e-14
2.21736e-14
3.00011e-14
3.71092e-14
4.46891e-14
6.89784e-14
9.2649e-14
1.11748e-13
1.14294e-13
1.08692e-13
1.05732e-13
1.05896e-13
1.06214e-13
9.92267e-14
8.39247e-14
6.76543e-14
5.52498e-14
4.48396e-14
4.17792e-14
3.88783e-14
2.79692e-14
2.04167e-14
2.2006e-14
2.62563e-14
2.6181e-14
3.26212e-14
3.92319e-14
5.33625e-14
7.1995e-14
8.49964e-14
9.11244e-14
8.53574e-14
7.22996e-14
7.02676e-14
7.05822e-14
6.97289e-14
6.59136e-14
5.61416e-14
4.70633e-14
4.34165e-14
3.84623e-14
4.82537e-14
5.4185e-14
5.12385e-14
4.62233e-14
3.59668e-14
3.23439e-14
3.2997e-14
3.29613e-14
2.64496e-14
2.03292e-14
2.68381e-14
2.76523e-14
2.64292e-14
2.51875e-14
2.92409e-14
3.66235e-14
4.92122e-14
4.50039e-14
4.39651e-14
3.70969e-14
1.0996e-13
1.17212e-13
1.23719e-13
1.17174e-13
1.04303e-13
9.14744e-14
7.78995e-14
7.77013e-14
8.0282e-14
7.74788e-14
8.071e-14
9.64359e-14
1.08398e-13
1.09604e-13
1.0377e-13
1.13101e-13
1.20806e-13
1.20921e-13
1.13218e-13
1.0167e-13
1.02216e-13
1.03848e-13
9.20507e-14
8.22329e-14
7.41494e-14
7.88038e-14
6.67053e-14
5.62409e-14
5.99843e-14
5.9244e-14
5.10411e-14
4.74607e-14
4.83932e-14
4.60339e-14
3.48774e-14
3.61995e-14
3.3254e-14
3.61617e-14
3.67588e-14
3.13371e-14
2.61101e-14
2.92793e-14
4.11672e-14
5.21546e-14
7.70711e-14
1.09458e-13
1.39788e-13
1.50397e-13
1.44366e-13
1.41725e-13
1.42054e-13
1.43503e-13
1.31991e-13
1.12104e-13
8.94601e-14
6.97564e-14
5.99551e-14
5.52318e-14
5.42642e-14
4.33329e-14
2.58997e-14
3.32238e-14
3.93224e-14
4.467e-14
4.8278e-14
5.9602e-14
6.92589e-14
8.5477e-14
9.85953e-14
1.12887e-13
1.05042e-13
8.54918e-14
7.95212e-14
8.50844e-14
8.17907e-14
7.53495e-14
5.98143e-14
5.97216e-14
5.10888e-14
5.09529e-14
6.30903e-14
6.79394e-14
6.71432e-14
5.79494e-14
4.56488e-14
4.71361e-14
4.33011e-14
4.46411e-14
3.39313e-14
3.76707e-14
3.9546e-14
3.88804e-14
3.35683e-14
3.83007e-14
4.48726e-14
4.29193e-14
5.26742e-14
4.99214e-14
4.85271e-14
5.73288e-14
1.19079e-13
1.17336e-13
1.23414e-13
1.26285e-13
1.07857e-13
8.90466e-14
8.59888e-14
8.81993e-14
8.80669e-14
8.34539e-14
9.04718e-14
1.0156e-13
9.75333e-14
9.50192e-14
1.03347e-13
1.06923e-13
1.03281e-13
9.8752e-14
9.3044e-14
8.58263e-14
8.4295e-14
8.26344e-14
7.88405e-14
6.89767e-14
6.17593e-14
5.87259e-14
4.89742e-14
4.13148e-14
4.39484e-14
4.51492e-14
4.37786e-14
3.95635e-14
4.23439e-14
3.63129e-14
2.73418e-14
1.99128e-14
1.70641e-14
1.63003e-14
2.02325e-14
2.19847e-14
1.97039e-14
9.81213e-15
1.96788e-14
3.94519e-14
7.68554e-14
1.19382e-13
1.54586e-13
1.74959e-13
1.77574e-13
1.79691e-13
1.7878e-13
1.77107e-13
1.62588e-13
1.3657e-13
1.05231e-13
7.67811e-14
6.3288e-14
6.10214e-14
6.13297e-14
5.06654e-14
3.96067e-14
3.87899e-14
3.81197e-14
3.86806e-14
3.59415e-14
4.77299e-14
6.79234e-14
8.6837e-14
1.03443e-13
1.08807e-13
9.57226e-14
7.55202e-14
6.45583e-14
6.37599e-14
5.79838e-14
5.46976e-14
4.81711e-14
4.56928e-14
3.22865e-14
4.47565e-14
6.38606e-14
6.5202e-14
6.5457e-14
5.80133e-14
5.28546e-14
4.1489e-14
3.3059e-14
3.08896e-14
3.32123e-14
2.52083e-14
1.8652e-14
1.33392e-14
1.79859e-14
1.04534e-13
1.05816e-13
1.11538e-13
1.12098e-13
9.82325e-14
8.65804e-14
7.93082e-14
8.3735e-14
8.93733e-14
8.78837e-14
8.84273e-14
9.40978e-14
8.96951e-14
8.96683e-14
1.02159e-13
1.02338e-13
9.31929e-14
8.48764e-14
8.4222e-14
8.25455e-14
7.65596e-14
7.49178e-14
6.95728e-14
6.55432e-14
5.34234e-14
4.93504e-14
3.62957e-14
3.88981e-14
4.87181e-14
5.7044e-14
5.47897e-14
4.79223e-14
5.01948e-14
5.20803e-14
4.62351e-14
3.57115e-14
4.11358e-14
4.36975e-14
4.49575e-14
4.68779e-14
4.21239e-14
3.98388e-14
4.23948e-14
4.68141e-14
8.33447e-14
1.29206e-13
1.67388e-13
1.93395e-13
2.10481e-13
2.14776e-13
2.11706e-13
2.01875e-13
1.82714e-13
1.58625e-13
1.24726e-13
9.31258e-14
7.23127e-14
6.82115e-14
6.79831e-14
6.55477e-14
5.90712e-14
6.22711e-14
6.24332e-14
6.23986e-14
5.80238e-14
5.80652e-14
7.39568e-14
9.31325e-14
9.77423e-14
9.9591e-14
8.7318e-14
7.25227e-14
5.48035e-14
4.62767e-14
3.70978e-14
2.98365e-14
1.94266e-14
7.5884e-15
2.23674e-14
4.16843e-14
5.07905e-14
6.50991e-14
6.75241e-14
6.04183e-14
5.08192e-14
5.02464e-14
4.43252e-14
4.63874e-14
3.91124e-14
3.36279e-14
3.43214e-14
3.09985e-14
1.91592e-14
6.74359e-14
7.35926e-14
8.0833e-14
8.46253e-14
8.0203e-14
7.94069e-14
8.11119e-14
7.98822e-14
8.75798e-14
9.63302e-14
9.30417e-14
9.27469e-14
9.70692e-14
1.04042e-13
1.07028e-13
9.55723e-14
9.93314e-14
9.75313e-14
8.27352e-14
7.09853e-14
6.91617e-14
7.83442e-14
6.6301e-14
5.87514e-14
6.66062e-14
5.98469e-14
3.92463e-14
3.4662e-14
4.64729e-14
6.25204e-14
6.78878e-14
5.13854e-14
4.88485e-14
5.75923e-14
5.64023e-14
5.08662e-14
5.36651e-14
4.84134e-14
6.30573e-14
6.49015e-14
5.61869e-14
5.59238e-14
5.68855e-14
4.89034e-14
8.62481e-14
1.28503e-13
1.70832e-13
2.11038e-13
2.36021e-13
2.40862e-13
2.30704e-13
2.16909e-13
1.94893e-13
1.70665e-13
1.38075e-13
9.91703e-14
8.19031e-14
7.4549e-14
7.22573e-14
6.84417e-14
7.29172e-14
6.77299e-14
7.1719e-14
6.92091e-14
7.31987e-14
7.46681e-14
8.16947e-14
8.62951e-14
9.55578e-14
9.08543e-14
7.16853e-14
5.49185e-14
4.80357e-14
3.67742e-14
3.90405e-14
3.73825e-14
4.05651e-14
3.38567e-14
2.87165e-14
4.06997e-14
5.56254e-14
6.39069e-14
7.34731e-14
6.40811e-14
6.25081e-14
5.10028e-14
4.25553e-14
4.98103e-14
5.838e-14
5.17116e-14
4.21522e-14
3.53245e-14
3.34044e-14
4.0106e-14
5.36097e-14
6.44129e-14
6.7235e-14
6.63663e-14
7.87602e-14
7.69538e-14
7.62289e-14
8.87593e-14
1.01463e-13
9.52686e-14
9.18201e-14
1.0965e-13
1.18817e-13
1.04916e-13
8.90975e-14
9.67775e-14
1.01521e-13
8.44332e-14
6.78227e-14
7.29307e-14
7.08756e-14
5.9942e-14
4.88437e-14
4.22247e-14
4.63336e-14
3.44338e-14
2.95694e-14
3.59324e-14
4.52584e-14
4.96905e-14
4.3275e-14
3.59781e-14
4.34352e-14
4.19859e-14
3.56847e-14
2.85129e-14
3.13647e-14
4.22712e-14
4.46074e-14
4.50765e-14
4.36192e-14
3.24164e-14
2.9552e-14
5.69761e-14
9.26382e-14
1.40558e-13
1.80377e-13
2.06744e-13
2.07885e-13
2.00287e-13
1.86048e-13
1.70237e-13
1.48495e-13
1.17238e-13
8.15289e-14
6.19406e-14
5.72574e-14
5.49926e-14
5.45053e-14
5.73444e-14
5.98482e-14
6.39749e-14
6.56781e-14
7.06171e-14
6.85051e-14
6.67685e-14
6.5046e-14
6.9734e-14
6.32005e-14
4.68172e-14
3.04639e-14
2.96968e-14
1.94321e-14
2.01004e-14
1.9911e-14
1.709e-14
1.78333e-14
1.74798e-14
2.83856e-14
4.1554e-14
4.41241e-14
5.44134e-14
5.34568e-14
4.69123e-14
3.46124e-14
2.5472e-14
2.90759e-14
3.47537e-14
3.39163e-14
2.2664e-14
2.20844e-14
5.46483e-14
6.40057e-14
6.66352e-14
7.28577e-14
7.6105e-14
6.88891e-14
7.03234e-14
7.35637e-14
8.55147e-14
9.41964e-14
9.15384e-14
8.98968e-14
1.06495e-13
1.15287e-13
1.07915e-13
9.73531e-14
9.433e-14
8.88583e-14
8.018e-14
7.95406e-14
8.33595e-14
7.70918e-14
6.15517e-14
4.93153e-14
5.03852e-14
4.83287e-14
3.82562e-14
3.54485e-14
3.23869e-14
3.0313e-14
1.8384e-14
1.18067e-14
1.06919e-14
1.30272e-14
1.03697e-14
1.3785e-14
1.96296e-14
1.99486e-14
2.02147e-14
1.97236e-14
2.03323e-14
1.80989e-14
1.24585e-14
1.20262e-14
2.40864e-14
4.3658e-14
7.27562e-14
1.08919e-13
1.3002e-13
1.32659e-13
1.2591e-13
1.13033e-13
9.56685e-14
8.62306e-14
7.29645e-14
5.54625e-14
4.40494e-14
4.37775e-14
4.30846e-14
4.26122e-14
4.33187e-14
5.23869e-14
6.32605e-14
7.03626e-14
7.04539e-14
6.11919e-14
4.47401e-14
3.39746e-14
3.52718e-14
3.00362e-14
2.12119e-14
2.42039e-14
2.4096e-14
2.25819e-14
3.08118e-14
3.52532e-14
3.52593e-14
3.54036e-14
2.66762e-14
2.23667e-14
2.01402e-14
2.10458e-14
3.42327e-14
4.43769e-14
4.70964e-14
4.15681e-14
3.24325e-14
2.96796e-14
2.64124e-14
2.12326e-14
1.47888e-14
6.989e-15
9.06156e-14
9.739e-14
1.08287e-13
1.03947e-13
8.39399e-14
7.47211e-14
6.72186e-14
6.82326e-14
7.80079e-14
7.61664e-14
7.98203e-14
9.77302e-14
1.0755e-13
1.15987e-13
1.169e-13
1.13056e-13
1.17136e-13
1.0518e-13
8.55279e-14
7.40078e-14
8.24033e-14
8.31959e-14
7.07891e-14
6.10329e-14
5.20146e-14
4.32162e-14
3.72389e-14
4.14289e-14
3.92155e-14
3.12695e-14
3.37702e-14
3.01265e-14
2.26314e-14
2.68375e-14
2.7009e-14
1.80429e-14
1.7001e-14
2.85778e-14
2.83719e-14
3.00194e-14
2.57354e-14
2.12964e-14
2.41896e-14
2.67516e-14
3.7443e-14
4.02723e-14
4.53176e-14
5.78671e-14
7.09577e-14
6.81466e-14
6.96247e-14
6.14081e-14
4.62102e-14
2.98055e-14
2.22622e-14
2.72691e-14
2.26202e-14
2.35002e-14
3.28887e-14
4.31582e-14
4.18074e-14
5.82147e-14
6.98383e-14
7.18796e-14
7.21765e-14
6.7184e-14
5.31411e-14
5.30637e-14
5.87473e-14
5.53656e-14
4.32268e-14
4.34738e-14
3.48464e-14
4.20038e-14
5.63006e-14
6.09345e-14
6.02074e-14
4.91931e-14
4.50721e-14
4.60676e-14
3.63929e-14
4.24628e-14
4.2572e-14
4.91923e-14
4.67565e-14
4.61016e-14
3.96073e-14
2.97111e-14
2.89101e-14
2.42349e-14
1.9292e-14
1.12073e-13
1.19803e-13
1.34575e-13
1.14802e-13
8.67424e-14
6.97452e-14
5.92777e-14
7.49636e-14
7.63762e-14
7.51596e-14
8.24372e-14
9.36106e-14
1.08984e-13
1.30593e-13
1.32883e-13
1.33219e-13
1.2977e-13
1.04013e-13
7.62988e-14
6.7825e-14
8.68809e-14
8.83359e-14
7.17185e-14
5.40884e-14
4.11619e-14
4.24366e-14
5.62629e-14
5.02579e-14
3.96319e-14
3.50168e-14
3.87266e-14
3.15317e-14
2.84935e-14
3.0433e-14
3.76049e-14
3.25967e-14
2.40484e-14
2.77565e-14
3.97988e-14
5.17832e-14
4.34381e-14
3.87869e-14
3.84644e-14
4.64241e-14
5.1127e-14
4.40796e-14
5.1981e-14
5.00539e-14
5.27663e-14
5.32698e-14
4.92745e-14
5.0654e-14
5.81222e-14
5.71748e-14
3.32526e-14
2.90538e-14
3.20643e-14
3.07167e-14
3.92635e-14
3.99369e-14
4.50368e-14
5.26708e-14
5.94408e-14
6.12678e-14
6.89736e-14
5.67905e-14
5.74007e-14
5.77533e-14
6.59866e-14
6.30422e-14
5.35152e-14
5.32168e-14
5.41266e-14
6.76881e-14
7.22289e-14
7.35407e-14
6.89567e-14
5.08932e-14
5.08738e-14
5.15374e-14
4.42286e-14
4.96938e-14
5.76905e-14
5.94257e-14
5.48646e-14
4.62835e-14
4.38214e-14
2.96642e-14
2.80292e-14
3.20806e-14
2.7e-14
1.20622e-13
1.12942e-13
1.07827e-13
9.46298e-14
7.90325e-14
6.31983e-14
5.55001e-14
5.67837e-14
6.38976e-14
6.6499e-14
7.43848e-14
9.94611e-14
1.09239e-13
1.21785e-13
1.24172e-13
1.167e-13
1.04205e-13
8.41344e-14
7.4038e-14
6.88045e-14
6.60507e-14
6.71452e-14
5.88432e-14
4.64561e-14
3.82886e-14
3.28368e-14
3.32044e-14
2.82918e-14
1.48931e-14
1.26826e-14
6.31893e-15
8.11498e-15
1.09989e-14
1.22502e-14
5.33309e-15
1.44878e-14
1.34121e-14
1.20127e-14
1.79188e-14
1.36688e-14
8.85951e-15
9.6921e-15
9.12916e-15
1.49363e-14
1.58308e-14
1.80502e-14
2.65051e-14
2.5842e-14
2.66158e-14
2.76566e-14
2.79822e-14
2.4208e-14
2.53776e-14
3.16879e-14
2.75764e-14
1.25989e-14
1.35882e-14
9.09512e-15
1.54278e-14
1.48797e-14
2.15102e-14
2.16049e-14
2.76063e-14
2.78458e-14
2.30805e-14
1.23571e-14
1.99077e-14
2.88515e-14
3.37747e-14
3.6734e-14
3.09371e-14
3.72331e-14
4.17574e-14
4.33342e-14
4.68916e-14
4.71955e-14
3.4453e-14
1.56139e-14
9.01991e-15
1.38107e-14
1.68141e-14
1.57781e-14
2.08732e-14
1.98992e-14
1.20898e-14
1.53871e-14
1.54878e-14
1.12089e-14
9.9815e-15
1.31794e-14
1.48584e-14
1.04439e-13
9.1537e-14
8.40387e-14
8.48032e-14
7.68815e-14
6.21818e-14
5.73524e-14
6.87723e-14
6.63839e-14
6.76404e-14
8.05526e-14
9.38502e-14
1.05291e-13
1.08762e-13
1.05971e-13
1.08464e-13
1.07223e-13
8.9683e-14
7.60446e-14
6.49667e-14
5.95247e-14
5.64862e-14
4.68229e-14
4.70554e-14
3.65268e-14
2.53448e-14
3.66944e-14
4.42887e-14
3.17482e-14
2.42086e-14
2.34901e-14
2.91736e-14
2.72486e-14
2.74101e-14
2.39025e-14
2.30707e-14
1.76842e-14
1.37263e-14
1.42712e-14
1.83749e-14
2.0416e-14
1.55364e-14
1.62615e-14
2.25988e-14
2.87839e-14
3.01055e-14
3.83813e-14
4.39256e-14
4.24692e-14
3.88648e-14
3.58265e-14
3.35479e-14
2.77663e-14
2.24647e-14
2.16244e-14
1.7368e-14
1.17167e-14
8.77792e-15
7.22832e-15
1.33444e-14
8.84263e-15
8.24976e-15
7.46813e-15
8.40454e-15
1.51985e-14
2.41848e-14
2.79084e-14
3.17502e-14
3.19171e-14
3.3308e-14
3.26303e-14
3.33253e-14
2.88072e-14
3.34945e-14
3.7006e-14
3.37568e-14
2.30287e-14
9.08447e-15
1.18891e-14
1.51676e-14
8.9391e-15
1.43153e-14
2.05623e-14
1.83433e-14
1.20509e-14
1.59806e-14
1.51148e-14
1.49223e-14
1.67025e-14
1.80998e-14
1.90648e-14
8.19635e-14
7.72392e-14
8.28102e-14
8.91134e-14
7.61154e-14
6.30839e-14
6.58141e-14
7.11665e-14
7.58482e-14
7.66314e-14
8.19109e-14
1.02452e-13
1.05776e-13
1.02684e-13
1.12986e-13
1.06633e-13
9.19851e-14
7.73628e-14
7.19984e-14
6.76057e-14
5.87831e-14
5.23262e-14
5.23252e-14
5.20868e-14
3.07392e-14
1.74748e-14
1.80031e-14
2.27071e-14
2.03037e-14
1.9063e-14
1.86666e-14
1.78808e-14
2.11816e-14
2.09529e-14
1.87417e-14
1.83012e-14
1.92943e-14
1.41496e-14
1.3511e-14
1.66886e-14
1.72688e-14
1.57119e-14
1.72223e-14
1.27602e-14
1.31736e-14
2.19461e-14
2.74058e-14
3.27724e-14
3.48588e-14
3.19974e-14
2.93401e-14
2.96962e-14
2.62125e-14
2.4686e-14
2.63509e-14
2.76408e-14
2.9409e-14
2.79439e-14
2.78389e-14
2.36979e-14
2.31421e-14
2.75716e-14
2.9862e-14
3.37927e-14
4.11759e-14
4.32103e-14
4.48136e-14
5.062e-14
4.97742e-14
5.30805e-14
5.46181e-14
5.32341e-14
4.6495e-14
4.31051e-14
4.62155e-14
3.95098e-14
3.1971e-14
2.86343e-14
2.31225e-14
2.55904e-14
2.61405e-14
2.07282e-14
2.32433e-14
1.80617e-14
1.4098e-14
8.05386e-15
9.88708e-15
1.43753e-14
1.33531e-14
1.56208e-14
1.54846e-14
6.96101e-14
7.6564e-14
8.24823e-14
9.06159e-14
8.1992e-14
7.28347e-14
8.06812e-14
8.67865e-14
8.26653e-14
8.24721e-14
8.9505e-14
1.03352e-13
1.07987e-13
1.14294e-13
1.08926e-13
9.28732e-14
8.58348e-14
7.9473e-14
7.70421e-14
8.0431e-14
7.41716e-14
6.79025e-14
6.0488e-14
4.74498e-14
4.04538e-14
3.87456e-14
3.79587e-14
3.92007e-14
4.18615e-14
4.37218e-14
3.76575e-14
3.61265e-14
4.06329e-14
4.01584e-14
3.76521e-14
3.62904e-14
3.8041e-14
4.45272e-14
4.53155e-14
4.65739e-14
4.7824e-14
4.95537e-14
4.90935e-14
4.86588e-14
4.1322e-14
4.36382e-14
4.55437e-14
4.55903e-14
5.01322e-14
4.96502e-14
4.74512e-14
4.41709e-14
4.27565e-14
4.21433e-14
4.77482e-14
5.63069e-14
6.28062e-14
6.02602e-14
6.22068e-14
6.02117e-14
6.03394e-14
5.97053e-14
6.09215e-14
6.30522e-14
7.32523e-14
7.89669e-14
7.61497e-14
7.26854e-14
6.96382e-14
7.09938e-14
7.25438e-14
7.33706e-14
6.64024e-14
6.80478e-14
6.36331e-14
5.92303e-14
5.69278e-14
5.31626e-14
5.58166e-14
5.6318e-14
5.89557e-14
6.29537e-14
6.31641e-14
6.30991e-14
5.57659e-14
4.91076e-14
4.53132e-14
5.09372e-14
5.6733e-14
6.45873e-14
6.56637e-14
8.20069e-14
9.25377e-14
8.65839e-14
8.28781e-14
8.84687e-14
8.97185e-14
7.9953e-14
7.95854e-14
8.43536e-14
8.74272e-14
9.44198e-14
1.08574e-13
1.193e-13
1.12444e-13
1.03539e-13
9.75613e-14
9.21134e-14
8.77089e-14
8.61989e-14
8.92575e-14
7.95897e-14
7.9399e-14
7.25859e-14
6.97377e-14
4.78108e-14
4.11637e-14
5.14518e-14
4.9932e-14
5.57367e-14
4.99677e-14
4.65195e-14
4.53946e-14
4.38897e-14
3.89723e-14
3.38683e-14
3.61233e-14
3.77363e-14
4.54941e-14
4.42493e-14
4.64438e-14
4.56495e-14
4.81454e-14
4.89436e-14
5.58483e-14
5.857e-14
5.84449e-14
5.16783e-14
4.37541e-14
4.77991e-14
5.0795e-14
5.27463e-14
5.91684e-14
5.64299e-14
6.07762e-14
6.51581e-14
6.52933e-14
7.2684e-14
7.90324e-14
7.67528e-14
7.53023e-14
7.4326e-14
7.11395e-14
7.04928e-14
7.21382e-14
7.70775e-14
7.59982e-14
7.95852e-14
7.87517e-14
7.99999e-14
7.6257e-14
7.58185e-14
7.06966e-14
6.83683e-14
6.81883e-14
5.97845e-14
6.00858e-14
5.54035e-14
5.28272e-14
5.96097e-14
6.47651e-14
6.86287e-14
7.35732e-14
7.85449e-14
8.16982e-14
7.97337e-14
7.88819e-14
6.84842e-14
7.02627e-14