/*--------------------------------*- C++ -*----------------------------------*\
| =========                 |                                                 |
| \\      /  F ield         | OpenFOAM: The Open Source CFD Toolbox           |
|  \\    /   O peration     | Version:  2406                                  |
|   \\  /    A nd           | Website:  www.openfoam.com                      |
|    \\/     M anipulation  |                                                 |
\*---------------------------------------------------------------------------*/
FoamFile
{
    version     2.0;
    format      ascii;
    arch        "LSB;label=32;scalar=64";
    class       volVectorField;
    location    "0.045";
    object      U;
}
// * * * * * * * * * * * * * * * * * * * * * * * * * * * * * * * * * * * * * //

dimensions      [0 1 -1 0 0 0 0];

internalField   nonuniform List<vector> 
13962
(
(347.059 2.29551e-11 -1.2813e-11)
(347.059 2.41038e-11 -1.59001e-11)
(347.059 2.2723e-11 -1.46426e-11)
(347.059 2.29453e-11 -1.57619e-11)
(347.059 2.69515e-11 -1.75736e-11)
(347.059 2.82719e-11 -1.74626e-11)
(347.059 2.76748e-11 -1.86262e-11)
(347.059 3.14908e-11 -1.943e-11)
(347.059 3.50726e-11 -1.92655e-11)
(347.059 4.01916e-11 -2.09852e-11)
(347.059 3.94536e-11 -2.14146e-11)
(347.059 3.48725e-11 -2.14628e-11)
(347.059 3.24947e-11 -2.15489e-11)
(347.059 2.77493e-11 -2.15174e-11)
(347.059 2.06354e-11 -2.2963e-11)
(347.059 1.68558e-11 -2.26989e-11)
(347.059 1.39263e-11 -2.18345e-11)
(347.059 9.50094e-12 -2.07253e-11)
(347.059 6.95202e-12 -2.00634e-11)
(347.059 5.11961e-12 -1.99406e-11)
(347.059 -1.4043e-12 -1.97259e-11)
(347.059 -6.37583e-10 1.36941e-11)
(347.048 4.42756e-08 -2.0939e-09)
(346.771 -1.63956e-06 7.5747e-08)
(341.407 2.27169e-05 -1.08489e-06)
(323.093 -3.33831e-06 1.17027e-07)
(318.499 -4.80819e-05 2.18705e-06)
(318.412 -3.01066e-05 1.35886e-06)
(318.396 -3.63908e-06 1.48835e-07)
(318.395 2.53601e-05 -1.14244e-06)
(318.383 3.9545e-05 -1.77741e-06)
(318.365 3.98279e-05 -1.79042e-06)
(318.345 3.0946e-05 -1.37802e-06)
(318.319 1.0569e-05 -4.46939e-07)
(318.286 -1.25611e-05 5.89511e-07)
(318.264 -2.72435e-05 1.23548e-06)
(318.26 -2.86112e-05 1.29489e-06)
(318.257 -2.6839e-05 1.2035e-06)
(318.258 -2.02436e-05 8.97533e-07)
(318.261 -5.87194e-06 2.33214e-07)
(318.267 1.45881e-05 -7.29387e-07)
(318.279 2.69198e-05 -1.28309e-06)
(318.28 2.69729e-05 -1.2701e-06)
(318.281 2.33002e-05 -1.09023e-06)
(318.286 9.98098e-06 -4.5654e-07)
(318.291 -1.22334e-05 6.06391e-07)
(318.286 -2.58436e-05 1.23577e-06)
(318.285 -2.60615e-05 1.21257e-06)
(318.289 -2.25766e-05 1.03859e-06)
(318.293 -1.16155e-05 5.07803e-07)
(318.3 7.81621e-06 -4.23969e-07)
(318.312 2.63234e-05 -1.29083e-06)
(318.325 3.23076e-05 -1.53773e-06)
(318.33 3.07894e-05 -1.44542e-06)
(318.336 2.31151e-05 -1.04477e-06)
(318.34 5.891e-06 -1.78323e-07)
(318.337 -1.22692e-05 7.22942e-07)
(318.326 -2.04916e-05 1.0927e-06)
(318.32 -1.98814e-05 1.01914e-06)
(318.318 -1.57215e-05 8.03804e-07)
(318.317 -2.16847e-06 1.16745e-07)
(318.316 1.6408e-05 -8.31963e-07)
(318.321 2.41837e-05 -1.23263e-06)
(318.332 2.0749e-05 -1.05151e-06)
(318.338 1.37953e-05 -7.12983e-07)
(318.342 6.60452e-06 -3.6403e-07)
(318.346 -1.16463e-05 5.30795e-07)
(318.347 -2.61245e-05 1.24841e-06)
(318.339 -2.86471e-05 1.35473e-06)
(318.331 -2.47259e-05 1.14552e-06)
(318.326 -2.1136e-05 9.63789e-07)
(318.319 -1.08082e-05 4.46788e-07)
(318.315 3.17897e-06 -2.39041e-07)
(318.316 1.14375e-05 -6.10387e-07)
(318.317 1.26022e-05 -6.34923e-07)
(318.318 1.05937e-05 -5.18973e-07)
(318.318 4.28095e-06 -1.9139e-07)
(318.317 -3.35408e-06 2.11887e-07)
(318.313 -7.38348e-06 4.52718e-07)
(318.304 -8.84152e-06 5.22411e-07)
(318.298 -9.42168e-06 5.44769e-07)
(318.296 -8.27791e-06 4.90231e-07)
(318.294 -4.22181e-06 2.9127e-07)
(318.295 -2.07166e-06 1.80874e-07)
(318.301 -3.09069e-06 2.09845e-07)
(318.312 -4.19453e-06 2.31055e-07)
(318.321 -4.23244e-06 1.93976e-07)
(318.325 -4.11639e-06 1.50402e-07)
(318.33 -8.52487e-07 -1.36207e-07)
(318.333 5.68029e-06 -5.8747e-07)
(318.332 9.39857e-06 -7.96384e-07)
(318.329 1.18778e-05 -8.80114e-07)
(318.329 1.26815e-05 -8.87667e-07)
(318.328 1.31907e-05 -8.56806e-07)
(318.328 1.2308e-05 -7.61159e-07)
(318.329 9.00423e-06 -5.60688e-07)
(318.33 7.30454e-06 -4.82543e-07)
(318.329 6.59939e-06 -4.53823e-07)
(318.329 5.2153e-06 -4.7595e-07)
(318.327 3.98155e-06 -6.33159e-07)
(318.326 5.83533e-06 -9.85905e-07)
(318.322 7.72744e-06 -1.17745e-06)
(318.319 1.00529e-05 -1.17218e-06)
(318.319 1.12593e-05 -1.08727e-06)
(318.319 1.24083e-05 -9.93287e-07)
(318.318 1.23725e-05 -3.94881e-07)
(318.318 1.04367e-05 -1.52997e-08)
(318.319 5.92199e-06 -1.31476e-07)
(318.322 3.82065e-06 -3.49945e-07)
(318.325 3.24764e-06 -2.9284e-07)
(318.327 2.9898e-06 -6.81945e-07)
(318.33 3.27058e-06 -8.46316e-07)
(318.332 5.2371e-06 -1.21753e-06)
(318.333 6.3423e-06 -1.20922e-06)
(318.332 6.82098e-06 -7.92377e-07)
(318.33 7.31866e-06 -3.29625e-07)
(318.325 7.31331e-06 4.6369e-10)
(318.32 6.94021e-06 1.99152e-07)
(318.316 5.71436e-06 1.16122e-07)
(318.313 3.8914e-06 -1.14962e-07)
(318.312 1.55124e-06 -4.4794e-07)
(318.312 -5.58838e-07 -8.47301e-07)
(318.312 -1.7248e-06 -1.06876e-06)
(318.313 -1.83887e-06 -1.08279e-06)
(318.313 -1.65131e-06 -1.05597e-06)
(318.314 -5.77887e-07 -8.43815e-07)
(318.313 -3.06735e-07 -5.04011e-07)
(318.313 -1.6453e-07 -1.15298e-07)
(318.314 -6.54227e-07 1.00786e-07)
(318.316 -1.74991e-06 3.64665e-07)
(318.32 -2.70792e-06 2.41843e-07)
(318.325 -3.26288e-06 5.28778e-07)
(318.329 -5.25154e-06 5.26825e-08)
(318.333 -7.13279e-06 -4.22442e-07)
(318.335 -7.19938e-06 -4.8395e-07)
(318.335 -6.32343e-06 -4.52537e-07)
(318.335 -4.73319e-06 -4.31034e-07)
(318.333 -3.36012e-06 -3.69558e-07)
(318.332 -2.60395e-06 -2.67374e-07)
(318.33 -1.28598e-06 -1.92487e-08)
(318.329 1.35391e-07 2.85275e-07)
(318.326 1.80158e-06 6.77251e-07)
(318.322 2.83036e-06 1.01167e-06)
(318.318 3.91424e-06 1.18542e-06)
(318.315 4.15171e-06 1.05824e-06)
(318.314 5.09755e-06 8.40187e-07)
(318.313 2.8061e-06 5.23269e-07)
(318.313 4.15674e-06 9.79763e-08)
(318.315 1.39708e-06 -9.64329e-07)
(318.317 -8.16786e-07 -7.24897e-07)
(318.319 -4.37557e-07 2.8449e-07)
(318.321 -2.84691e-06 -5.1994e-07)
(318.323 -3.9341e-06 7.43378e-07)
(318.323 -3.28423e-06 1.34574e-06)
(318.323 -3.54148e-06 2.04334e-06)
(318.323 -3.62371e-07 2.1743e-06)
(318.324 -3.56076e-06 1.99465e-06)
(318.325 -4.99092e-06 1.64902e-06)
(318.326 1.03641e-05 6.92298e-07)
(318.327 -1.54254e-05 -2.23524e-07)
(318.329 2.84547e-06 -2.41473e-06)
(318.328 -1.05366e-05 -2.73865e-06)
(318.325 1.27995e-05 -5.63113e-06)
(318.308 -0.000211637 7.35757e-06)
(318.277 0.000292273 -1.69787e-05)
(318.277 0.000177392 -9.82344e-06)
(318.331 0.000575588 -3.17607e-05)
(318.525 5.99687e-05 -3.06948e-06)
(318.904 -0.000418778 -2.1618e-05)
(319.439 -0.00132129 7.31226e-05)
(320.051 -0.00385205 0.000127024)
(320.658 -0.00195155 0.000119456)
(321.201 -0.00052195 -2.21905e-05)
(321.633 0.00365093 3.34593e-07)
(321.961 0.0100741 -0.000334044)
(322.152 0.0090766 -0.0003716)
(322.254 0.00434592 -0.00024297)
(322.256 -0.00218366 -4.86215e-05)
(322.231 -0.00968588 0.000263783)
(322.184 -0.0122511 0.000454983)
(322.124 -0.0107424 0.000424142)
(322.073 -0.00633041 0.00031648)
(322.043 0.000801502 6.07979e-05)
(322.041 0.00761496 5.67502e-05)
(322.051 0.0123253 -0.000350295)
(322.065 0.0125332 -0.000530959)
(322.059 0.00718137 -0.000371848)
(322.06 0.00549905 -0.000276442)
(322.047 0.00455967 -0.000252084)
(322.004 0.00440647 -0.000248081)
(321.904 0.00430341 -0.000228578)
(321.703 0.00433081 -0.000244912)
(321.381 0.00480687 -0.000156091)
(320.997 0.00318128 -0.00015927)
(320.655 0.00305112 -0.000309011)
(320.391 0.00444313 -0.000371458)
(320.185 0.00352093 -0.000372352)
(320.013 0.0015797 -0.000355227)
(319.863 0.000942336 -0.000397016)
(319.727 0.00206584 -0.000363079)
(319.601 0.00265638 -0.000262574)
(319.485 0.00222953 -0.000124628)
(319.378 0.00173495 -7.44272e-06)
(319.28 0.00152674 9.30597e-06)
(319.193 0.00155124 -4.07725e-05)
(319.118 0.00162701 -7.42604e-05)
(319.055 0.00162191 -7.65357e-05)
(319.003 0.00147846 -6.4017e-05)
(318.961 0.00121608 -2.6281e-05)
(318.927 0.00102076 2.91153e-05)
(318.902 0.000970612 6.87512e-05)
(318.882 0.00100751 6.42627e-05)
(318.867 0.000990621 2.53722e-05)
(318.854 0.000879645 -1.56046e-05)
(318.842 0.000818141 -3.0078e-05)
(318.831 0.00070583 -5.27217e-05)
(318.821 0.000572051 -6.93469e-05)
(318.812 0.000444656 -7.38325e-05)
(318.802 0.000363102 -6.94017e-05)
(318.792 0.00036776 -5.81153e-05)
(318.782 0.000446457 -4.89875e-05)
(318.772 0.000564092 -7.52311e-05)
(318.76 0.000638985 -0.000128996)
(318.746 0.000639441 -0.000156249)
(318.732 0.000561201 -0.000176494)
(318.718 0.00040256 -0.000167105)
(318.705 0.000243778 -0.000140926)
(318.692 0.000114708 -0.000117353)
(318.683 -5.11116e-05 -0.000100162)
(318.678 -0.000121446 -8.81176e-05)
(318.675 -2.11303e-05 -7.8317e-05)
(318.671 0.000177614 -6.6034e-05)
(318.668 0.000318583 -5.59008e-05)
(318.667 0.000408526 -5.67497e-05)
(318.665 0.000429356 -6.83372e-05)
(318.663 0.000356407 -8.2967e-05)
(318.661 0.000193497 -8.64391e-05)
(318.661 8.2663e-05 -8.11324e-05)
(318.66 -6.55411e-05 -6.76843e-05)
(318.659 -0.000185359 -5.22141e-05)
(318.657 -0.000165518 -3.93569e-05)
(318.656 -2.88334e-05 -2.11395e-05)
(318.656 0.000114212 -4.14888e-06)
(318.654 0.000194522 8.98555e-06)
(318.651 0.000216259 1.02393e-05)
(318.646 0.000167194 4.48137e-06)
(318.641 9.61539e-05 -4.77011e-08)
(318.635 -3.27192e-05 -1.00344e-05)
(318.628 -9.92849e-05 -2.41357e-05)
(318.623 -0.000115151 -3.6947e-05)
(318.619 -9.73754e-05 -4.86989e-05)
(318.616 -6.04554e-05 -5.48597e-05)
(318.611 6.5021e-05 -6.2538e-05)
(318.609 0.000191339 -6.7453e-05)
(318.607 0.00019684 -6.47246e-05)
(318.606 0.000139142 -5.78875e-05)
(318.604 0.000107106 -5.42574e-05)
(318.602 7.54441e-05 -5.09875e-05)
(318.601 1.90196e-05 -4.68001e-05)
(318.6 -2.9374e-05 -4.22691e-05)
(318.598 -3.75068e-05 -4.03159e-05)
(318.597 -1.86968e-05 -3.88687e-05)
(318.598 2.62006e-05 -3.52822e-05)
(318.598 0.000115391 -3.46727e-05)
(318.597 0.000125868 -3.19404e-05)
(318.594 5.83882e-05 -2.43812e-05)
(318.593 6.57752e-05 -2.03995e-05)
(318.59 7.02022e-05 -1.9164e-05)
(318.586 4.98467e-06 -1.43993e-05)
(318.58 -1.64766e-05 -1.21644e-05)
(318.576 -1.0867e-05 -9.42718e-06)
(318.572 -5.88981e-05 -2.37891e-06)
(318.567 -9.52613e-05 6.81775e-06)
(318.561 -8.82657e-05 1.22643e-05)
(318.555 -0.000133977 2.10462e-05)
(318.549 -6.8486e-05 1.98783e-05)
(318.543 5.89896e-05 1.66879e-05)
(318.538 4.4855e-05 1.91548e-05)
(318.534 2.02182e-05 1.91519e-05)
(318.534 9.20592e-06 1.97524e-05)
(318.532 2.18671e-05 1.9957e-05)
(318.528 5.82691e-05 1.71423e-05)
(318.524 4.6518e-05 1.48049e-05)
(318.523 -0.000180344 2.77753e-05)
(318.521 -0.00020201 2.78592e-05)
(318.52 -2.6947e-05 2.88849e-05)
(318.519 0.000130568 2.31748e-05)
(318.52 -3.35933e-05 5.34213e-05)
(318.521 -0.000113207 7.00654e-05)
(318.52 -1.25633e-05 7.97399e-05)
(318.518 0.000132463 0.000103075)
(318.516 0.000102024 0.000125447)
(318.514 6.56422e-05 0.000141207)
(318.512 7.93695e-05 0.000162267)
(318.51 -8.83252e-05 0.000187227)
(318.508 -0.000267855 0.000205017)
(318.506 -0.00010511 0.000200586)
(318.503 0.000102036 0.000180269)
(318.498 0.000210526 0.000160387)
(318.494 9.89565e-05 0.000146514)
(318.492 -5.63326e-05 0.000134066)
(318.488 -9.12483e-05 0.000119701)
(318.489 -5.38414e-05 0.000111513)
(318.49 -0.000125027 0.000111582)
(318.493 -1.42276e-06 0.000105264)
(318.491 0.000294664 0.00010453)
(318.49 0.000343273 0.000101451)
(318.489 6.90894e-05 0.000113316)
(318.49 -0.000646728 0.000134701)
(318.489 -0.0017221 0.000196571)
(318.487 -0.0024379 0.00020637)
(318.486 -0.0032279 0.000232122)
(318.487 -0.00398869 0.000249996)
(318.487 -0.0041187 0.000255679)
(318.484 -0.00321954 0.000208266)
(318.48 -0.00175949 -8.79746e-05)
(318.476 0.000546179 -0.00033885)
(318.474 0.00377189 -0.000295678)
(318.469 0.00517522 -0.000167645)
(318.466 0.00375729 -0.000342706)
(318.463 -0.000430586 -0.000314067)
(318.466 -0.00973154 0.00028474)
(318.465 -0.0276579 0.00147519)
(318.469 -0.050689 0.00271744)
(318.475 -0.0760031 0.00279536)
(318.491 -0.101779 0.00248737)
(318.509 -0.126268 0.00294237)
(318.534 -0.143804 0.00677488)
(318.562 -0.141665 0.0119808)
(318.59 -0.126771 0.0109764)
(318.618 -0.093235 0.000729925)
(318.639 -0.0237331 -0.0182654)
(318.645 0.0678516 -0.0404054)
(318.64 0.166319 -0.0534183)
(318.619 0.262916 -0.0431131)
(318.575 0.348176 -0.00911461)
(318.497 0.384144 0.0346918)
(318.404 0.348741 0.0631038)
(318.403 0.269403 0.0561116)
(318.224 0.175262 0.0287363)
(317.828 0.0922583 0.0133641)
(318.166 0.0483609 0.00220529)
(318.296 0.042281 0.00148137)
(318.275 0.0378676 0.00115276)
(318.206 0.0328884 0.000819657)
(318.121 0.0285078 0.000669578)
(318.066 0.0262396 0.000729053)
(318.017 0.0214106 0.00100376)
(317.988 0.0148452 0.00139347)
(317.981 0.00935259 0.00170296)
(317.999 0.00593485 0.001951)
(318.062 0.00386437 0.00217658)
(318.141 0.00234567 0.00228924)
(318.168 0.001297 0.00224507)
(318.167 0.00075058 0.00218541)
(318.154 2.50434e-05 0.002092)
(318.121 -0.000529426 0.00198415)
(318.071 -0.000879004 0.00186001)
(318.013 -0.00105795 0.00172055)
(317.984 -0.00111158 0.00157097)
(317.997 -0.00109032 0.00147701)
(318.019 -0.00105602 0.00136616)
(318.052 -0.00101256 0.00122522)
(318.095 -0.000927253 0.00107729)
(318.125 -0.000813626 0.000918675)
(318.13 -0.000755545 0.000803167)
(318.124 -0.000743721 0.000734795)
(318.104 -0.000754952 0.000652939)
(318.065 -0.000797043 0.000577518)
(318.022 -0.000845885 0.000500356)
(317.999 -0.000852549 0.000411211)
(317.994 -0.000835402 0.000344759)
(317.999 -0.000794803 0.000254127)
(318.017 -0.00071332 0.000164223)
(318.045 -0.000584452 9.30163e-05)
(318.063 -0.000438636 1.99872e-05)
(318.067 -0.000362395 -1.98177e-05)
(318.066 -0.00026006 -6.64298e-05)
(318.054 -0.000150163 -0.000109401)
(318.029 -3.95174e-05 -0.000147941)
(317.998 8.17031e-05 -0.000196177)
(317.977 0.00020005 -0.000252004)
(317.975 0.000269523 -0.000295937)
(317.979 0.000304521 -0.00033753)
(317.989 0.000274907 -0.000394507)
(318.006 0.000131399 -0.000440563)
(318.023 -9.78298e-05 -0.000460872)
(318.032 -0.000366802 -0.000461105)
(318.031 -0.00057369 -0.000452625)
(318.025 -0.000750763 -0.000437393)
(318.014 -0.000868793 -0.000420375)
(317.996 -0.000719641 -0.000435313)
(317.98 -0.00015389 -0.000493498)
(317.975 0.000738588 -0.000577609)
(317.975 0.00154041 -0.00065601)
(317.979 0.00288118 -0.000780247)
(317.987 0.00439632 -0.000937846)
(317.995 0.00580065 -0.00108527)
(317.998 0.00651833 -0.00118875)
(317.998 0.0067607 -0.00127382)
(317.993 0.0062915 -0.00126226)
(317.982 0.00407545 -0.00105577)
(317.966 -0.00112541 -0.000692945)
(317.95 -0.0103092 3.9326e-05)
(317.947 -0.0212616 0.000857995)
(317.951 -0.0318286 0.00143298)
(317.961 -0.0407406 0.00174521)
(317.975 -0.0453218 0.00177455)
(317.991 -0.0459667 0.00153885)
(318.007 -0.0432621 0.00110201)
(318.015 -0.0369846 0.000165406)
(318.016 -0.0269962 -0.000260584)
(318.012 -0.010098 -0.000751556)
(318.002 0.0100754 -0.000905944)
(317.985 0.0290625 9.29862e-05)
(317.968 0.043296 0.00178988)
(317.957 0.0490336 0.002684)
(317.946 0.0528788 0.00351213)
(317.936 0.0554201 0.00439734)
(317.928 0.0544832 0.00514761)
(317.919 0.0458575 0.00557812)
(317.909 0.0351225 0.00571486)
(317.902 0.0192811 0.00569341)
(317.888 0.00563912 0.00567638)
(317.874 0.000845966 0.00570974)
(317.861 -0.00554728 0.00606499)
(317.858 -0.0113624 0.00749841)
(317.858 -0.0138343 0.00860912)
(317.86 -0.0149847 0.00957256)
(317.863 -0.0154906 0.0108619)
(317.867 -0.0149497 0.0123326)
(317.869 -0.0132829 0.0131498)
(317.869 -0.0106974 0.0123422)
(317.865 -0.0075151 0.0101364)
(317.858 -0.00425195 0.00749629)
(317.849 -0.00147222 0.00523727)
(317.84 0.00054801 0.00368839)
(317.831 0.0017343 0.00273707)
(317.826 0.00227042 0.00220823)
(317.824 0.00241697 0.00191863)
(317.823 0.00236759 0.0017172)
(317.822 0.00219187 0.00154623)
(317.821 0.00191764 0.00144141)
(317.818 0.00155467 0.00141378)
(317.813 0.00115441 0.00129773)
(317.805 0.000809345 0.00115423)
(317.796 0.000516772 0.00115096)
(317.786 0.000317722 0.00121078)
(317.778 0.000180567 0.00116876)
(317.772 7.85501e-05 0.00102497)
(317.769 1.77497e-05 0.000908325)
(317.767 -5.98584e-05 0.000815066)
(317.766 -0.000136001 0.000721785)
(317.764 -0.000216912 0.000643508)
(317.76 -0.00030061 0.000596837)
(317.755 -0.000369154 0.000580627)
(317.747 -0.000405111 0.000543061)
(317.737 -0.000419545 0.000502107)
(317.727 -0.000394648 0.000455903)
(317.718 -0.000327323 0.000391513)
(317.711 -0.000233775 0.000332669)
(317.706 -0.000136937 0.000285067)
(317.702 -5.51978e-05 0.000245962)
(317.699 -7.2667e-06 0.000215002)
(347.059 1.68955e-11 -1.52618e-11)
(347.059 2.01387e-11 -1.45859e-11)
(347.059 1.86793e-11 -1.57497e-11)
(347.059 2.01228e-11 -1.77763e-11)
(347.059 1.99266e-11 -1.84007e-11)
(347.059 2.32625e-11 -1.85711e-11)
(347.059 2.76077e-11 -1.94594e-11)
(347.059 2.87092e-11 -1.98598e-11)
(347.059 3.0962e-11 -2.0232e-11)
(347.059 3.55041e-11 -2.06677e-11)
(347.059 3.60083e-11 -2.17715e-11)
(347.059 3.25486e-11 -2.25509e-11)
(347.059 2.88882e-11 -2.21725e-11)
(347.059 2.34344e-11 -2.22835e-11)
(347.059 1.53341e-11 -2.40933e-11)
(347.059 1.10823e-11 -2.08131e-11)
(347.059 7.96778e-12 -1.94041e-11)
(347.059 4.92218e-12 -1.88325e-11)
(347.059 2.80717e-12 -1.83966e-11)
(347.059 1.28594e-12 -1.83983e-11)
(347.059 -9.49545e-12 -1.83304e-11)
(347.059 -6.04904e-10 1.02128e-11)
(347.048 4.37344e-08 -2.01052e-09)
(346.771 -1.60939e-06 7.29903e-08)
(341.407 2.19043e-05 -1.03069e-06)
(323.093 -2.63794e-06 1.06145e-07)
(318.499 -4.6833e-05 2.10695e-06)
(318.412 -2.91572e-05 1.30226e-06)
(318.396 -3.15821e-06 1.28077e-07)
(318.395 2.48438e-05 -1.10809e-06)
(318.383 3.84681e-05 -1.70692e-06)
(318.365 3.87786e-05 -1.71819e-06)
(318.345 3.00975e-05 -1.31999e-06)
(318.319 9.65273e-06 -3.99233e-07)
(318.286 -1.29542e-05 6.00615e-07)
(318.264 -2.64465e-05 1.188e-06)
(318.26 -2.75489e-05 1.2346e-06)
(318.257 -2.57249e-05 1.1412e-06)
(318.258 -1.89752e-05 8.32947e-07)
(318.261 -4.79555e-06 1.94504e-07)
(318.267 1.45931e-05 -7.00791e-07)
(318.279 2.60385e-05 -1.2237e-06)
(318.28 2.60685e-05 -1.21774e-06)
(318.281 2.25684e-05 -1.05048e-06)
(318.286 9.5113e-06 -4.44777e-07)
(318.291 -1.20516e-05 5.66363e-07)
(318.286 -2.49616e-05 1.1662e-06)
(318.285 -2.51457e-05 1.15485e-06)
(318.289 -2.18933e-05 9.97752e-07)
(318.293 -1.13064e-05 5.00119e-07)
(318.3 7.44541e-06 -3.79906e-07)
(318.312 2.50141e-05 -1.1893e-06)
(318.325 3.06778e-05 -1.41652e-06)
(318.33 2.91679e-05 -1.32703e-06)
(318.336 2.1468e-05 -9.3904e-07)
(318.34 4.44103e-06 -1.054e-07)
(318.337 -1.3001e-05 7.46814e-07)
(318.326 -2.05045e-05 1.08329e-06)
(318.32 -1.96421e-05 1.00649e-06)
(318.318 -1.54948e-05 7.96625e-07)
(318.317 -2.06833e-06 1.30998e-07)
(318.316 1.65447e-05 -7.97205e-07)
(318.321 2.40397e-05 -1.18247e-06)
(318.332 2.0238e-05 -9.96546e-07)
(318.338 1.30288e-05 -6.61644e-07)
(318.342 5.89497e-06 -3.24114e-07)
(318.346 -1.25177e-05 5.53228e-07)
(318.347 -2.74761e-05 1.26372e-06)
(318.339 -3.0057e-05 1.37804e-06)
(318.331 -2.59723e-05 1.17188e-06)
(318.326 -2.23225e-05 9.97264e-07)
(318.319 -1.21365e-05 5.06397e-07)
(318.315 1.839e-06 -1.53109e-07)
(318.316 1.04138e-05 -5.29803e-07)
(318.317 1.19653e-05 -5.69216e-07)
(318.318 1.01093e-05 -4.654e-07)
(318.318 4.14642e-06 -1.65824e-07)
(318.317 -2.79855e-06 1.88521e-07)
(318.313 -6.01786e-06 3.7973e-07)
(318.304 -6.86449e-06 4.19658e-07)
(318.298 -7.17909e-06 4.30791e-07)
(318.296 -5.99452e-06 3.75353e-07)
(318.294 -1.8075e-06 1.64465e-07)
(318.295 3.05512e-07 5.18947e-08)
(318.301 -1.0185e-06 9.47952e-08)
(318.312 -2.59201e-06 1.44926e-07)
(318.321 -2.84941e-06 1.2535e-07)
(318.325 -2.7325e-06 8.33852e-08)
(318.33 2.734e-07 -1.73401e-07)
(318.333 6.31735e-06 -5.73015e-07)
(318.332 9.88991e-06 -7.57768e-07)
(318.329 1.20967e-05 -8.2714e-07)
(318.329 1.27994e-05 -8.33475e-07)
(318.328 1.31587e-05 -8.06945e-07)
(318.328 1.20442e-05 -7.17839e-07)
(318.329 8.69094e-06 -5.38569e-07)
(318.33 7.13606e-06 -4.69994e-07)
(318.329 6.48396e-06 -4.42165e-07)
(318.329 5.1945e-06 -4.71526e-07)
(318.327 4.19252e-06 -6.42988e-07)
(318.326 5.95494e-06 -9.83242e-07)
(318.322 7.60982e-06 -1.14082e-06)
(318.319 9.6618e-06 -1.0982e-06)
(318.319 1.079e-05 -1.01049e-06)
(318.319 1.18449e-05 -9.14676e-07)
(318.318 1.1648e-05 -3.35513e-07)
(318.318 9.55658e-06 2.06728e-08)
(318.319 5.15637e-06 -1.18371e-07)
(318.322 3.43531e-06 -3.72727e-07)
(318.325 3.13642e-06 -3.50831e-07)
(318.327 3.11501e-06 -7.21628e-07)
(318.33 3.35568e-06 -8.65679e-07)
(318.332 5.56429e-06 -1.2038e-06)
(318.333 6.73158e-06 -1.17652e-06)
(318.332 7.12722e-06 -7.47853e-07)
(318.33 7.60793e-06 -2.97917e-07)
(318.325 7.63344e-06 1.07463e-08)
(318.32 7.19697e-06 1.95108e-07)
(318.316 5.80951e-06 1.16801e-07)
(318.313 4.00205e-06 -9.75001e-08)
(318.312 1.82847e-06 -4.12564e-07)
(318.312 -1.44817e-07 -8.01394e-07)
(318.312 -1.49918e-06 -1.01944e-06)
(318.313 -1.7712e-06 -1.03404e-06)
(318.313 -1.62292e-06 -1.01203e-06)
(318.314 -6.5814e-07 -8.06198e-07)
(318.313 -4.14005e-07 -4.84834e-07)
(318.313 -3.923e-07 -9.68431e-08)
(318.314 -8.16053e-07 9.37735e-08)
(318.316 -1.8518e-06 3.07771e-07)
(318.32 -3.01264e-06 2.11989e-07)
(318.325 -3.71179e-06 5.10563e-07)
(318.329 -5.64169e-06 8.13681e-08)
(318.333 -7.31278e-06 -3.42662e-07)
(318.335 -7.40529e-06 -3.78613e-07)
(318.335 -6.53623e-06 -3.33407e-07)
(318.335 -4.8563e-06 -3.04375e-07)
(318.333 -3.39331e-06 -2.4293e-07)
(318.332 -2.59743e-06 -1.47887e-07)
(318.33 -1.23789e-06 7.65526e-08)
(318.329 1.77171e-07 3.4721e-07)
(318.326 1.74612e-06 7.15006e-07)
(318.322 2.6616e-06 1.03545e-06)
(318.318 3.55759e-06 1.18616e-06)
(318.315 3.92013e-06 1.02741e-06)
(318.314 4.84902e-06 7.90609e-07)
(318.313 2.78437e-06 4.50473e-07)
(318.313 4.12896e-06 5.56325e-08)
(318.315 1.36941e-06 -9.99587e-07)
(318.317 -3.13309e-07 -7.79183e-07)
(318.319 -3.0994e-07 4.12813e-07)
(318.321 -2.60337e-06 -4.61777e-07)
(318.323 -3.8358e-06 8.43708e-07)
(318.323 -3.23242e-06 1.45341e-06)
(318.323 -3.57932e-06 2.1187e-06)
(318.323 -5.74009e-07 2.17064e-06)
(318.324 -3.71796e-06 1.91672e-06)
(318.325 -5.1304e-06 1.51989e-06)
(318.326 9.63325e-06 5.18034e-07)
(318.327 -1.5054e-05 -4.21747e-07)
(318.329 2.63938e-06 -2.53215e-06)
(318.328 -1.11338e-05 -3.0369e-06)
(318.325 1.31662e-05 -6.17458e-06)
(318.308 -0.000203822 7.594e-06)
(318.276 0.00028354 -1.7339e-05)
(318.277 0.00015898 -1.03725e-05)
(318.332 0.000517053 -2.78409e-05)
(318.525 0.000145362 -1.27741e-05)
(318.905 -0.00061043 -1.76438e-06)
(319.441 -0.000951458 5.45756e-05)
(320.052 -0.00379842 0.000132375)
(320.656 -0.00187145 0.000113444)
(321.198 -0.000125717 -2.78103e-05)
(321.628 0.00326937 5.96249e-06)
(321.958 0.00911225 -0.000329546)
(322.154 0.00816997 -0.000356407)
(322.263 0.00407257 -0.000247855)
(322.263 -0.0019031 -5.98728e-05)
(322.236 -0.00886414 0.000249485)
(322.185 -0.0114196 0.00041684)
(322.121 -0.00993539 0.000378167)
(322.067 -0.00597225 0.000282901)
(322.035 0.000584564 -3.43308e-06)
(322.035 0.00675244 -4.47973e-06)
(322.048 0.0111915 -0.000372617)
(322.066 0.0118742 -0.000535913)
(322.064 0.00668649 -0.000375676)
(322.061 0.00332213 -0.000207888)
(322.047 0.00312663 -0.000200036)
(322.004 0.00388187 -0.000229559)
(321.904 0.0037629 -0.000211431)
(321.703 0.00359636 -0.000222453)
(321.381 0.00402572 -0.000131317)
(320.997 0.00248704 -0.000133142)
(320.655 0.00254694 -0.000292486)
(320.39 0.00396827 -0.000355607)
(320.185 0.00306565 -0.000358044)
(320.013 0.00099183 -0.000340055)
(319.863 0.000284113 -0.000373601)
(319.727 0.00154924 -0.000344722)
(319.601 0.00233795 -0.00025152)
(319.485 0.00197536 -0.000119375)
(319.378 0.00145031 2.86042e-06)
(319.28 0.00113123 2.33196e-05)
(319.194 0.00118537 -2.94156e-05)
(319.118 0.00141753 -6.75197e-05)
(319.055 0.00145996 -7.09352e-05)
(319.003 0.00133452 -5.96342e-05)
(318.961 0.00106105 -2.38212e-05)
(318.928 0.000822793 3.37811e-05)
(318.902 0.000730492 7.71278e-05)
(318.882 0.000799563 7.17831e-05)
(318.867 0.000865578 2.89688e-05)
(318.854 0.000786816 -1.24491e-05)
(318.842 0.000721055 -2.66204e-05)
(318.831 0.00060466 -4.9406e-05)
(318.821 0.000478972 -6.77123e-05)
(318.812 0.000367063 -7.51115e-05)
(318.802 0.000299977 -7.26804e-05)
(318.792 0.000300234 -6.18082e-05)
(318.782 0.000356278 -5.37454e-05)
(318.772 0.000471672 -8.09195e-05)
(318.76 0.000573763 -0.00013401)
(318.746 0.000588711 -0.00016138)
(318.732 0.000523253 -0.000179961)
(318.718 0.000364942 -0.00017035)
(318.705 0.000195826 -0.000144638)
(318.692 5.19455e-05 -0.000119857)
(318.683 -0.000114801 -0.000100581)
(318.678 -0.00016457 -8.80415e-05)
(318.675 -4.36053e-05 -7.66188e-05)
(318.671 0.000177297 -6.51528e-05)
(318.668 0.000310701 -5.64111e-05)
(318.667 0.000364599 -5.53212e-05)
(318.665 0.000378155 -6.66384e-05)
(318.663 0.000319386 -8.21429e-05)
(318.661 0.000164781 -8.59609e-05)
(318.661 5.17054e-05 -8.07895e-05)
(318.66 -0.000100849 -6.63507e-05)
(318.659 -0.000218794 -5.08273e-05)
(318.657 -0.000173933 -3.89232e-05)
(318.656 -1.65225e-05 -2.12996e-05)
(318.656 9.68777e-05 -3.65595e-06)
(318.654 0.000146177 1.09673e-05)
(318.651 0.000198029 1.12051e-05)
(318.646 0.000174156 4.31006e-06)
(318.641 0.000113078 -5.37915e-07)
(318.635 -2.03552e-05 -1.01024e-05)
(318.628 -0.000106073 -2.32071e-05)
(318.623 -0.000144383 -3.58746e-05)
(318.619 -0.000134418 -4.72419e-05)
(318.616 -9.59723e-05 -5.33564e-05)
(318.611 5.82051e-05 -6.16587e-05)
(318.609 0.000216139 -6.70273e-05)
(318.607 0.000220584 -6.46772e-05)
(318.606 0.000139833 -5.57222e-05)
(318.604 8.62143e-05 -5.15266e-05)
(318.602 5.60627e-05 -4.87153e-05)
(318.601 8.45437e-06 -4.4931e-05)
(318.6 -3.11115e-05 -4.05924e-05)
(318.598 -3.3573e-05 -3.83942e-05)
(318.597 -1.75713e-05 -3.72518e-05)
(318.598 2.76548e-05 -3.35896e-05)
(318.598 0.000137619 -3.45448e-05)
(318.597 0.000141777 -3.23976e-05)
(318.594 6.8564e-06 -2.27477e-05)
(318.593 2.27681e-05 -1.88817e-05)
(318.59 0.000107292 -2.14198e-05)
(318.586 4.74658e-05 -1.66029e-05)
(318.58 -5.08733e-06 -1.3424e-05)
(318.576 -4.61622e-05 -9.25113e-06)
(318.572 -0.000104845 -1.38292e-06)
(318.567 -0.000105879 6.84191e-06)
(318.561 -6.29287e-05 9.71643e-06)
(318.555 -0.000180575 2.2551e-05)
(318.549 -3.4176e-05 1.74176e-05)
(318.543 0.000184733 1.21058e-05)
(318.538 5.40504e-05 1.78254e-05)
(318.534 -4.75206e-05 2.03177e-05)
(318.534 -1.59655e-05 1.99878e-05)
(318.532 1.85297e-05 1.98813e-05)
(318.528 1.98365e-06 1.82307e-05)
(318.524 -3.78614e-05 1.86913e-05)
(318.523 -0.0002025 2.93026e-05)
(318.521 -5.47633e-05 2.27249e-05)
(318.52 0.000131012 2.72672e-05)
(318.519 0.000190905 1.88252e-05)
(318.52 -0.000136299 5.56331e-05)
(318.521 -0.000241077 7.64245e-05)
(318.52 -6.47463e-05 8.01956e-05)
(318.518 0.000279854 9.97932e-05)
(318.516 0.000194213 0.000119903)
(318.514 -2.14045e-05 0.000141378)
(318.512 -0.000107382 0.000166495)
(318.51 -0.000219837 0.000190582)
(318.508 -0.000116944 0.000195186)
(318.506 5.66687e-05 0.000192625)
(318.503 0.00022466 0.000177162)
(318.499 0.000261087 0.000157638)
(318.494 -0.00010337 0.000151955)
(318.492 -0.000142816 0.000138293)
(318.488 -0.00028608 0.00012503)
(318.489 -0.000182424 0.000116281)
(318.49 -3.07774e-05 0.000107318)
(318.493 0.000573267 9.209e-05)
(318.491 0.000732778 9.31696e-05)
(318.49 0.00035424 9.85267e-05)
(318.49 -0.000192561 0.000124522)
(318.49 -0.000929917 0.000147393)
(318.489 -0.00198393 0.000208823)
(318.487 -0.00274119 0.000218515)
(318.486 -0.003399 0.000239123)
(318.486 -0.00386166 0.000251279)
(318.486 -0.00360555 0.000227222)
(318.485 -0.00263488 0.000156871)
(318.48 -0.00121429 -7.08335e-05)
(318.477 0.0008807 -0.000238743)
(318.475 0.00307666 -0.00023108)
(318.471 0.00423037 -0.000242769)
(318.468 0.00237474 -0.000478954)
(318.466 -0.00247815 -0.00039085)
(318.468 -0.0122415 0.000325414)
(318.47 -0.0303559 0.00180206)
(318.479 -0.0543627 0.00339663)
(318.491 -0.0818882 0.00369421)
(318.516 -0.11144 0.00326427)
(318.545 -0.140265 0.0034321)
(318.586 -0.163385 0.00606319)
(318.632 -0.168655 0.00961051)
(318.683 -0.157699 0.00735949)
(318.737 -0.124713 -0.00288686)
(318.785 -0.0580296 -0.0196992)
(318.82 0.0315639 -0.0374144)
(318.84 0.13159 -0.0476722)
(318.834 0.2312 -0.0364644)
(318.788 0.322752 -0.00253117)
(318.685 0.374771 0.0387148)
(318.544 0.35297 0.0652648)
(318.494 0.272146 0.0606517)
(318.281 0.175859 0.0317356)
(317.862 0.0874129 0.0142776)
(318.175 0.047677 0.0023024)
(318.301 0.0431823 0.00138648)
(318.279 0.0394733 0.000993209)
(318.209 0.0338797 0.000604235)
(318.123 0.0281297 0.000466043)
(318.066 0.0257415 0.000565498)
(318.017 0.0206718 0.000860448)
(317.987 0.013811 0.00129632)
(317.98 0.00828338 0.0016804)
(317.998 0.00486935 0.00199422)
(318.061 0.00285803 0.00225137)
(318.14 0.00180081 0.002328)
(318.167 0.00111434 0.00226661)
(318.167 0.000710227 0.00220419)
(318.154 0.000157048 0.00210603)
(318.121 -0.000320783 0.00199315)
(318.07 -0.000714883 0.00187047)
(318.013 -0.00108562 0.00173313)
(317.984 -0.00131826 0.00158425)
(317.997 -0.00136959 0.00149097)
(318.018 -0.00140793 0.00137842)
(318.051 -0.00134513 0.00122887)
(318.095 -0.00107568 0.00107129)
(318.124 -0.000767887 0.000911951)
(318.13 -0.000641319 0.000796769)
(318.123 -0.00059228 0.000726248)
(318.104 -0.000562704 0.000639544)
(318.065 -0.000595722 0.000561674)
(318.022 -0.000702236 0.000482565)
(317.999 -0.000813986 0.000397641)
(317.994 -0.000870323 0.000339016)
(317.999 -0.000912804 0.000257243)
(318.017 -0.000840187 0.000166859)
(318.045 -0.000624232 9.08317e-05)
(318.063 -0.000399077 1.77533e-05)
(318.067 -0.000303532 -2.25051e-05)
(318.065 -0.000178321 -7.037e-05)
(318.054 -4.39052e-05 -0.000112006)
(318.029 5.9638e-05 -0.000148492)
(317.998 0.00012961 -0.000195669)
(317.977 0.000185161 -0.000249843)
(317.974 0.000209631 -0.000293275)
(317.978 0.000190973 -0.000333766)
(317.989 0.000110506 -0.000390448)
(318.006 -2.59509e-05 -0.000435574)
(318.023 -0.000197104 -0.000452431)
(318.032 -0.00040114 -0.000450901)
(318.031 -0.000577552 -0.000441321)
(318.025 -0.00073218 -0.00042317)