/*--------------------------------*- C++ -*----------------------------------*\
| =========                 |                                                 |
| \\      /  F ield         | OpenFOAM: The Open Source CFD Toolbox           |
|  \\    /   O peration     | Version:  2406                                  |
|   \\  /    A nd           | Website:  www.openfoam.com                      |
|    \\/     M anipulation  |                                                 |
\*---------------------------------------------------------------------------*/
FoamFile
{
    version     2.0;
    format      ascii;
    arch        "LSB;label=32;scalar=64";
    class       volScalarField;
    location    "0.085";
    object      Ma;
}
// * * * * * * * * * * * * * * * * * * * * * * * * * * * * * * * * * * * * * //

dimensions      [0 0 0 0 0 0 0];

internalField   nonuniform List<scalar> 
13988
(
5.0477e-15
1.15751e-14
2.64296e-14
3.59221e-14
2.95146e-14
2.26259e-14
1.09928e-14
6.72646e-15
2.12296e-14
3.12386e-14
3.84787e-14
3.48598e-14
3.88699e-14
4.13036e-14
3.99993e-14
3.11492e-14
2.71032e-14
3.20613e-14
3.193e-14
2.92796e-14
3.33352e-14
3.95235e-14
3.89141e-14
4.08634e-14
3.33899e-14
2.11715e-14
2.12561e-14
1.32394e-14
1.54679e-14
2.93512e-14
3.83046e-14
4.5792e-14
3.64856e-14
3.21475e-14
2.20603e-14
1.70462e-14
1.04732e-14
1.39425e-14
1.27737e-14
1.3467e-14
7.57251e-15
4.84053e-15
3.73827e-15
1.19369e-14
8.36384e-15
5.12809e-15
3.95974e-15
6.25478e-15
8.19278e-15
1.16861e-14
1.79811e-14
2.50002e-14
2.51948e-14
2.23505e-14
1.85364e-14
1.73743e-14
1.87221e-14
2.24572e-14
1.56255e-14
1.66993e-14
1.51655e-14
1.54058e-14
1.67293e-14
1.29533e-14
1.01831e-14
1.31341e-14
1.30808e-14
1.59316e-14
1.61481e-14
1.66332e-14
1.83067e-14
2.61696e-14
2.54782e-14
2.77374e-14
2.94363e-14
3.57771e-14
2.8686e-14
2.35764e-14
1.83912e-14
2.51146e-14
2.05945e-14
2.00208e-14
2.14344e-14
2.63517e-14
2.7847e-14
2.07399e-14
1.49811e-14
1.95475e-14
1.79956e-14
1.6949e-14
1.80223e-14
1.42687e-14
1.53111e-14
1.33834e-14
1.12994e-14
1.16546e-14
1.26713e-14
2.4932e-14
3.81076e-14
4.36304e-14
3.54241e-14
1.14423e-14
1.62484e-14
2.02306e-14
2.57504e-14
2.56279e-14
2.45056e-14
2.39308e-14
2.10988e-14
3.36152e-14
3.90938e-14
4.12545e-14
3.91915e-14
3.93615e-14
3.84387e-14
3.62482e-14
3.37027e-14
3.17008e-14
3.08742e-14
2.7146e-14
2.27566e-14
2.35104e-14
2.42902e-14
2.57268e-14
2.72469e-14
2.82826e-14
2.28796e-14
1.28657e-14
1.03354e-14
2.4225e-14
3.27148e-14
4.0535e-14
4.4344e-14
4.24016e-14
3.75913e-14
2.82761e-14
1.58389e-14
1.13692e-14
1.26793e-14
1.25082e-14
8.8158e-15
9.19142e-15
1.13329e-14
1.18667e-14
1.62519e-14
1.45205e-14
1.2568e-14
1.0951e-14
1.1461e-14
1.01208e-14
5.7235e-15
3.65331e-15
8.50614e-15
1.17393e-14
1.01049e-14
1.15443e-14
8.42171e-15
1.054e-14
1.30326e-14
1.34642e-14
1.56828e-14
1.87515e-14
2.2114e-14
1.93793e-14
1.74323e-14
1.79003e-14
9.82171e-15
6.61388e-15
3.20968e-15
5.04278e-15
1.24329e-14
2.27562e-14
2.94144e-14
2.78971e-14
3.13549e-14
3.49237e-14
3.38817e-14
3.23707e-14
2.89625e-14
2.55707e-14
2.39208e-14
2.29733e-14
1.71256e-14
1.44297e-14
1.61273e-14
1.76316e-14
1.53179e-14
3.9769e-15
9.66234e-15
7.99525e-15
6.10424e-15
3.62094e-15
7.53962e-15
7.93824e-15
6.94762e-15
6.05874e-15
6.37995e-15
1.39297e-14
2.59235e-14
3.45499e-14
4.00562e-14
2.99435e-14
3.30732e-14
3.36937e-14
3.78199e-14
4.19839e-14
3.98846e-14
4.181e-14
3.70158e-14
4.7115e-14
5.00947e-14
4.99102e-14
4.52229e-14
4.57456e-14
4.36841e-14
4.14987e-14
4.13998e-14
4.01825e-14
3.87862e-14
3.39377e-14
3.03811e-14
2.62064e-14
3.00548e-14
3.30328e-14
3.31273e-14
3.23213e-14
3.03869e-14
2.26829e-14
2.82349e-14
3.97524e-14
4.0932e-14
5.01622e-14
5.10518e-14
5.28518e-14
4.5026e-14
3.82851e-14
2.52306e-14
2.67603e-14
2.722e-14
3.02188e-14
2.75493e-14
3.12195e-14
2.82503e-14
2.83684e-14
3.11049e-14
3.53283e-14
3.23464e-14
2.7529e-14
3.14746e-14
3.19967e-14
2.67715e-14
2.65053e-14
2.06777e-14
2.2612e-14
2.13685e-14
1.77858e-14
1.57614e-14
2.07385e-14
2.07161e-14
2.43391e-14
2.89807e-14
3.46889e-14
3.74587e-14
3.16529e-14
2.93525e-14
2.76749e-14
2.102e-14
2.40325e-14
2.58646e-14
2.73939e-14
2.56309e-14
3.27294e-14
3.70284e-14
3.48601e-14
4.10601e-14
4.5545e-14
4.17362e-14
4.22468e-14
3.85489e-14
3.54238e-14
3.20779e-14
2.87971e-14
2.78786e-14
2.50717e-14
2.79003e-14
2.78703e-14
3.01094e-14
2.37123e-14
2.17717e-14
2.10886e-14
2.36886e-14
2.20679e-14
2.16908e-14
2.33863e-14
2.12997e-14
2.18292e-14
2.14122e-14
2.23382e-14
3.55038e-14
4.07186e-14
5.03241e-14
4.02456e-14
3.94767e-14
3.7475e-14
3.77257e-14
3.31051e-14
3.44804e-14
3.04521e-14
4.25607e-14
4.53e-14
4.60488e-14
4.11192e-14
4.16964e-14
4.2912e-14
4.41793e-14
4.23639e-14
3.80044e-14
3.95517e-14
3.393e-14
2.72723e-14
2.758e-14
2.70549e-14
2.98219e-14
2.77046e-14
2.84425e-14
2.94605e-14
3.00611e-14
3.38732e-14
3.51046e-14
4.70391e-14
5.59541e-14
5.54339e-14
5.2206e-14
5.28054e-14
4.71923e-14
3.30576e-14
2.87649e-14
3.121e-14
3.10238e-14
3.29814e-14
3.0707e-14
3.27537e-14
3.68339e-14
3.63903e-14
3.63429e-14
3.74489e-14
3.47417e-14
3.50604e-14
3.42435e-14
3.14414e-14
3.1887e-14
3.01165e-14
2.81156e-14
2.81094e-14
3.06808e-14
2.60769e-14
2.23107e-14
3.36419e-14
3.63853e-14
4.07093e-14
4.24399e-14
4.13492e-14
3.93134e-14
3.60766e-14
3.23532e-14
2.48237e-14
2.80325e-14
3.22712e-14
3.10253e-14
3.88293e-14
4.63805e-14
4.53588e-14
4.09819e-14
4.74901e-14
5.33102e-14
4.73827e-14
4.36931e-14
4.17367e-14
3.77384e-14
3.7958e-14
3.79324e-14
3.22466e-14
3.26214e-14
3.43764e-14
3.76228e-14
3.59199e-14
3.6359e-14
2.97399e-14
3.26665e-14
3.12014e-14
3.27727e-14
2.85705e-14
2.8419e-14
3.18361e-14
3.39959e-14
2.49467e-14
3.03615e-14
3.89374e-14
4.57989e-14
1.90273e-14
2.2358e-14
1.90437e-14
1.65985e-14
1.37894e-14
1.7002e-14
1.69178e-14
2.66729e-14
3.39047e-14
3.81438e-14
3.37045e-14
3.4995e-14
3.45172e-14
3.42184e-14
3.41266e-14
3.17491e-14
3.07364e-14
2.45895e-14
1.60319e-14
1.55366e-14
1.31512e-14
9.65518e-15
8.05096e-15
1.28677e-14
1.13823e-14
1.3439e-14
1.90237e-14
2.5309e-14
3.9841e-14
4.8152e-14
5.20818e-14
4.67563e-14
4.67986e-14
4.03179e-14
3.12042e-14
2.39557e-14
2.20651e-14
1.96038e-14
1.97369e-14
1.76153e-14
2.58315e-14
2.65968e-14
2.66879e-14
2.21461e-14
2.28618e-14
2.35182e-14
1.94831e-14
1.21501e-14
1.28087e-14
1.2171e-14
1.63862e-14
1.52998e-14
1.36337e-14
1.80318e-14
1.59335e-14
1.05867e-14
1.8482e-14
2.6985e-14
2.75627e-14
2.7833e-14
2.98601e-14
2.85437e-14
2.56984e-14
2.35587e-14
1.72895e-14
1.33685e-14
1.64704e-14
2.1428e-14
3.57949e-14
4.00165e-14
3.95417e-14
3.95445e-14
3.89822e-14
4.16164e-14
4.15378e-14
3.72777e-14
3.49353e-14
3.50835e-14
3.92462e-14
3.09715e-14
2.12575e-14
2.18569e-14
2.28116e-14
2.7776e-14
3.13292e-14
3.00171e-14
2.86221e-14
2.73509e-14
2.29803e-14
2.36443e-14
2.37021e-14
2.31357e-14
2.31827e-14
2.36526e-14
1.7524e-14
1.63127e-14
2.43959e-14
3.88769e-14
1.04661e-14
1.26852e-14
2.34019e-14
3.2696e-14
3.22204e-14
3.11352e-14
2.92359e-14
3.07662e-14
2.85163e-14
3.42016e-14
3.14165e-14
2.76438e-14
2.88783e-14
2.42706e-14
1.93317e-14
1.46016e-14
1.59436e-14
1.45378e-14
9.86739e-15
8.68906e-15
5.14689e-15
7.47178e-15
1.20974e-14
1.11761e-14
1.07183e-14
1.28959e-14
1.66502e-14
1.52708e-14
2.57057e-14
4.46864e-14
5.55813e-14
5.00897e-14
4.79041e-14
4.86249e-14
4.40195e-14
3.70453e-14
2.80334e-14
1.75667e-14
1.68229e-14
1.85912e-14
1.51792e-14
1.13336e-14
1.29854e-14
1.0459e-14
1.30634e-14
1.22868e-14
9.36858e-15
1.47511e-14
1.38731e-14
1.35465e-14
1.15173e-14
9.0317e-15
8.1079e-15
1.73605e-14
2.47907e-14
1.80684e-14
1.49437e-14
9.57964e-15
1.09668e-14
1.40633e-14
1.96243e-14
2.27921e-14
2.07742e-14
2.09374e-14
1.97262e-14
2.00532e-14
2.62418e-14
3.64278e-14
4.62827e-14
4.74939e-14
4.80178e-14
4.93905e-14
4.79103e-14
4.32551e-14
4.04165e-14
3.63649e-14
3.31075e-14
3.14966e-14
3.1134e-14
2.96413e-14
1.9015e-14
1.73233e-14
1.30685e-14
1.93549e-14
2.77489e-14
3.12015e-14
3.22614e-14
3.30746e-14
3.36823e-14
3.53585e-14
3.42297e-14
3.47608e-14
3.33085e-14
2.97128e-14
1.93675e-14
5.17025e-15
1.54374e-14
3.04873e-14
1.41547e-14
1.76179e-14
2.96151e-14
3.964e-14
4.05423e-14
3.81975e-14
3.91916e-14
3.7029e-14
3.62503e-14
3.66837e-14
3.38159e-14
3.33471e-14
3.0755e-14
2.71623e-14
2.07793e-14
2.14325e-14
2.29787e-14
2.33438e-14
2.18186e-14
2.29796e-14
2.34247e-14
2.3457e-14
2.84504e-14
2.78348e-14
2.63137e-14
2.44476e-14
2.44516e-14
2.09485e-14
2.97611e-14
4.25107e-14
5.40877e-14
4.9668e-14
4.8306e-14
5.03814e-14
4.63911e-14
4.33537e-14
2.93523e-14
1.84782e-14
1.95854e-14
1.27952e-14
9.0572e-15
8.97317e-15
1.10488e-14
9.92244e-15
8.4899e-15
8.71501e-15
1.41446e-14
1.99194e-14
2.28919e-14
1.79721e-14
1.80913e-14
1.72988e-14
1.185e-14
2.01254e-14
2.9269e-14
2.07626e-14
1.64807e-14
1.58512e-14
7.82288e-15
1.2912e-14
2.15067e-14
2.31048e-14
2.21032e-14
1.8437e-14
1.66576e-14
1.71945e-14
2.70194e-14
3.74692e-14
4.3441e-14
4.91567e-14
5.11229e-14
5.13688e-14
4.96408e-14
4.46764e-14
3.85894e-14
3.49867e-14
3.19158e-14
3.02803e-14
3.27721e-14
3.25681e-14
1.69007e-14
1.89808e-14
1.37402e-14
1.55505e-14
2.82415e-14
3.10713e-14
3.27976e-14
3.42683e-14
3.33556e-14
3.65628e-14
3.44797e-14
3.40555e-14
3.42549e-14
2.78512e-14
2.31669e-14
1.28267e-14
1.53279e-14
2.84175e-14
1.00731e-14
1.94939e-14
3.88358e-14
4.91385e-14
4.66928e-14
4.32434e-14
3.85797e-14
3.5334e-14
3.59981e-14
3.63969e-14
3.44418e-14
3.32521e-14
2.63539e-14
2.65188e-14
2.5201e-14
2.84178e-14
2.61884e-14
2.41584e-14
2.21204e-14
1.63871e-14
2.13777e-14
2.7117e-14
2.54419e-14
2.67026e-14
2.75117e-14
2.68895e-14
2.40967e-14
1.67579e-14
2.64736e-14
3.55829e-14
4.04876e-14
4.33318e-14
4.36086e-14
4.47727e-14
4.1297e-14
3.91498e-14
2.88731e-14
1.40349e-14
1.33371e-14
1.33158e-14
1.20372e-14
1.09498e-14
1.58333e-14
1.35747e-14
1.5115e-14
1.44462e-14
1.78179e-14
1.72487e-14
1.42987e-14
2.08781e-14
1.99889e-14
1.83537e-14
1.52982e-14
1.84107e-14
2.52343e-14
2.3343e-14
2.06061e-14
1.739e-14
1.35293e-14
1.7658e-14
2.69261e-14
2.78141e-14
2.52657e-14
2.36748e-14
2.03902e-14
2.03698e-14
2.92515e-14
3.99144e-14
4.58935e-14
5.12761e-14
5.26814e-14
5.33294e-14
5.14197e-14
4.57078e-14
4.08033e-14
3.37035e-14
2.82724e-14
2.78041e-14
2.50301e-14
2.1603e-14
1.56782e-14
1.78444e-14
1.82326e-14
1.55864e-14
2.45422e-14
3.23718e-14
3.58701e-14
3.85277e-14
4.0485e-14
4.2312e-14
4.05639e-14
4.00381e-14
3.89411e-14
3.05401e-14
2.37921e-14
1.23369e-14
1.44179e-14
1.70559e-14
2.30523e-14
2.28966e-14
3.8269e-14
4.44166e-14
4.47553e-14
4.17754e-14
4.00414e-14
3.96519e-14
4.23771e-14
3.7431e-14
3.46482e-14
3.09141e-14
2.53797e-14
2.46891e-14
2.2333e-14
2.13688e-14
2.06603e-14
1.68564e-14
1.13084e-14
1.3234e-14
8.98486e-15
1.64304e-14
1.95224e-14
2.51883e-14
2.94858e-14
2.69845e-14
2.34692e-14
2.35251e-14
2.00818e-14
2.87676e-14
3.15135e-14
4.22768e-14
4.31238e-14
4.23845e-14
4.4182e-14
4.52128e-14
2.99829e-14
2.0918e-14
2.44342e-14
2.34837e-14
2.26496e-14
2.20054e-14
2.20587e-14
2.23419e-14
2.33998e-14
2.13754e-14
2.45344e-14
2.14996e-14
2.27237e-14
1.46749e-14
1.00546e-14
1.64839e-14
1.97671e-14
1.93819e-14
2.3246e-14
2.09485e-14
1.88878e-14
1.78182e-14
1.48439e-14
1.0732e-14
1.98816e-14
2.05618e-14
2.63759e-14
2.79938e-14
2.64109e-14
2.56541e-14
3.202e-14
4.2674e-14
5.04922e-14
5.58218e-14
5.63899e-14
5.7703e-14
5.23312e-14
4.62413e-14
3.97524e-14
3.21809e-14
3.18618e-14
3.20741e-14
3.51027e-14
3.20664e-14
2.19333e-14
1.76158e-14
1.93085e-14
1.71825e-14
2.8558e-14
3.58066e-14
4.00817e-14
4.30038e-14
4.50791e-14
4.8867e-14
4.52731e-14
4.1729e-14
3.94086e-14
2.85547e-14
2.34595e-14
2.51922e-14
1.94627e-14
1.18041e-14
2.09813e-14
3.06817e-14
3.54736e-14
4.26852e-14
4.52513e-14
4.97768e-14
3.85998e-14
3.3643e-14
3.70836e-14
4.11635e-14
3.85335e-14
3.34733e-14
2.99609e-14
2.90101e-14
2.68666e-14
2.42387e-14
2.40762e-14
2.76194e-14
2.33331e-14
2.13615e-14
1.52326e-14
2.22315e-14
3.0578e-14
3.78822e-14
4.41246e-14
3.90568e-14
2.94485e-14
2.77943e-14
2.68697e-14
2.81584e-14
2.45134e-14
3.01907e-14
3.35237e-14
3.99209e-14
3.9963e-14
3.72473e-14
2.8094e-14
2.43184e-14
2.01143e-14
1.80057e-14
1.53993e-14
2.14229e-14
2.56256e-14
2.56516e-14
2.65395e-14
2.79371e-14
2.99643e-14
3.0077e-14
2.78871e-14
2.88714e-14
2.73305e-14
2.43939e-14
2.2781e-14
2.4098e-14
2.4275e-14
2.30744e-14
2.36904e-14
2.37401e-14
2.14222e-14
1.64702e-14
2.25075e-14
2.53308e-14
2.59487e-14
2.66856e-14
2.68286e-14
2.26233e-14
3.1787e-14
4.53599e-14
5.62708e-14
5.51986e-14
5.69332e-14
5.53092e-14
5.06806e-14
4.47961e-14
3.8732e-14
3.37796e-14
3.12733e-14
2.93774e-14
3.19766e-14
3.08595e-14
2.73339e-14
2.61121e-14
2.95207e-14
2.32614e-14
2.93754e-14
3.51179e-14
4.08665e-14
4.08362e-14
3.88905e-14
4.30306e-14
4.21159e-14
3.97364e-14
3.80622e-14
2.74966e-14
2.16829e-14
2.46953e-14
2.54756e-14
2.17744e-14
7.31289e-15
1.96895e-14
2.73327e-14
3.09048e-14
3.27891e-14
3.21606e-14
3.08723e-14
2.84987e-14
2.87974e-14
3.23392e-14
3.27792e-14
3.02828e-14
2.93614e-14
2.89413e-14
2.74548e-14
2.32349e-14
2.09742e-14
1.89506e-14
1.67202e-14
1.23904e-14
2.87817e-15
1.6949e-14
2.7582e-14
3.52563e-14
3.95607e-14
3.22647e-14
2.13486e-14
1.20467e-14
1.40763e-14
1.05164e-14
6.42192e-15
1.32939e-14
2.01991e-14
2.37435e-14
2.3704e-14
2.68235e-14
2.33727e-14
2.19701e-14
1.81823e-14
1.71675e-14
2.0691e-14
2.19873e-14
2.04202e-14
2.09703e-14
2.36881e-14
2.65984e-14
2.61351e-14
2.44089e-14
2.36982e-14
2.13987e-14
2.12444e-14
1.95114e-14
1.77586e-14
1.82414e-14
1.94213e-14
1.78115e-14
1.83378e-14
1.87176e-14
1.72435e-14
9.66737e-15
3.39446e-15
8.83936e-15
1.54059e-14
1.78576e-14
2.19189e-14
2.68821e-14
3.15661e-14
4.02412e-14
4.55914e-14
4.95124e-14
5.1922e-14
5.12371e-14
4.63205e-14
3.75511e-14
2.92926e-14
2.24138e-14
1.6017e-14
1.53184e-14
1.50994e-14
1.34231e-14
1.06489e-14
1.14285e-14
1.04892e-14
8.74059e-15
1.81949e-14
2.87141e-14
3.21124e-14
3.36415e-14
3.32336e-14
3.33203e-14
3.21563e-14
2.55925e-14
1.71705e-14
1.00078e-14
4.16595e-15
6.8572e-15
1.03006e-14
1.2894e-14
1.42208e-14
1.38091e-14
1.12274e-14
1.47104e-14
1.58687e-14
1.47439e-14
1.63559e-14
1.98162e-14
1.96537e-14
2.1346e-14
2.3726e-14
2.62003e-14
3.27972e-14
3.76674e-14
3.5853e-14
3.3236e-14
3.21902e-14
2.83807e-14
2.26132e-14
2.52108e-14
2.0562e-14
2.90685e-14
4.09414e-14
4.4459e-14
4.50205e-14
4.1922e-14
3.24738e-14
1.63448e-14
1.18491e-14
2.82882e-14
3.68947e-14
3.79949e-14
3.16276e-14
2.42374e-14
1.56081e-14
1.11237e-14
1.35682e-14
2.25853e-14
2.87163e-14
3.34001e-14
3.56293e-14
3.60453e-14
4.09666e-14
4.13436e-14
4.29891e-14
4.73337e-14
4.73657e-14
4.54227e-14
4.18229e-14
3.71216e-14
3.41333e-14
3.54639e-14
3.44062e-14
3.43194e-14
3.65813e-14
3.77031e-14
3.78491e-14
3.75603e-14
3.30582e-14
2.87295e-14
2.65337e-14
1.94227e-14
1.19321e-14
1.14013e-14
1.28682e-14
1.75867e-14
2.12973e-14
2.98726e-14
3.2139e-14
3.13848e-14
3.58933e-14
3.58378e-14
3.15604e-14
2.054e-14
1.15844e-14
1.35733e-14
1.64251e-14
1.60855e-14
1.49793e-14
1.26388e-14
1.25679e-14
1.11408e-14
1.33741e-14
1.47015e-14
1.70287e-14
1.91657e-14
2.07795e-14
2.28938e-14
2.16813e-14
2.3459e-14
1.65814e-14
1.4464e-14
1.64271e-14
2.30393e-14
2.91576e-14
3.14845e-14
3.42226e-14
3.45726e-14
4.27444e-14
4.65645e-14
4.75262e-14
4.66309e-14
4.64696e-14
4.89729e-14
5.2026e-14
5.12345e-14
5.07078e-14
5.14407e-14
5.04901e-14
5.43916e-14
5.89467e-14
5.94702e-14
5.7838e-14
5.78439e-14
5.67268e-14
5.47969e-14
5.35403e-14
5.51355e-14
5.18426e-14
5.45356e-14
5.95855e-14
6.23574e-14
6.3376e-14
6.13247e-14
5.59078e-14
4.64549e-14
4.96685e-14
6.24296e-14
7.76538e-14
8.233e-14
8.26022e-14
7.85501e-14
7.35038e-14
6.37538e-14
5.42259e-14
5.73311e-14
5.64157e-14
5.82934e-14
5.99611e-14
5.93933e-14
6.29135e-14
6.33503e-14
6.52393e-14
6.98285e-14
7.02793e-14
6.76081e-14
6.46294e-14
6.0766e-14
5.90823e-14
5.92775e-14
6.05221e-14
5.93099e-14
6.36543e-14
6.4957e-14
6.58262e-14
6.33843e-14
5.92849e-14
5.43395e-14
5.51246e-14
5.39179e-14
5.32263e-14
4.81243e-14
4.88037e-14
5.19436e-14
5.28018e-14
5.39546e-14
5.66025e-14
5.5482e-14
5.6826e-14
5.96148e-14
5.92491e-14
5.11854e-14
5.17957e-14
5.42159e-14
5.48998e-14
5.41886e-14
5.16656e-14
4.80714e-14
4.99805e-14
4.90275e-14
5.11519e-14
5.07601e-14
5.09595e-14
4.86952e-14
4.80042e-14
4.77836e-14
4.79799e-14
4.65473e-14
4.68243e-14
4.80851e-14
5.20789e-14
5.52332e-14
5.87201e-14
6.13465e-14
6.29678e-14
6.40137e-14
4.99296e-14
5.21518e-14
5.34861e-14
5.39967e-14
5.70566e-14
5.8151e-14
6.13363e-14
5.92869e-14
6.11811e-14
5.77825e-14
5.46078e-14
5.63988e-14
5.92855e-14
5.70344e-14
5.54943e-14
5.64426e-14
5.44017e-14
5.32689e-14
5.51086e-14
5.44741e-14
5.32411e-14
5.61321e-14
6.1099e-14
6.56976e-14
6.489e-14
6.56466e-14
5.86453e-14
5.71724e-14
5.71103e-14
7.63501e-14
9.75957e-14
1.11284e-13
1.17375e-13
1.15458e-13
1.10469e-13
9.40992e-14
6.8215e-14
6.62751e-14
6.46471e-14
6.80947e-14
6.42977e-14
6.57494e-14
6.37048e-14
6.66255e-14
6.73877e-14
7.07065e-14
7.05256e-14
7.23733e-14
7.01726e-14
6.31298e-14
6.44381e-14
6.19286e-14
6.31848e-14
6.73952e-14
6.74035e-14
6.3018e-14
6.49291e-14
6.38077e-14
6.29476e-14
6.37545e-14
6.13527e-14
6.01924e-14
5.99202e-14
6.28087e-14
5.92254e-14
5.58024e-14
5.50649e-14
5.31726e-14
5.68066e-14
5.79388e-14
5.57367e-14
5.90639e-14
5.79499e-14
5.89514e-14
6.10753e-14
6.20365e-14
6.2071e-14
6.02325e-14
5.83114e-14
5.85379e-14
6.25282e-14
6.19857e-14
5.90209e-14
5.7084e-14
5.30929e-14
5.35468e-14
5.22483e-14
5.18859e-14
5.47895e-14
5.07352e-14
5.36037e-14
5.24738e-14
6.06038e-14
6.25991e-14
6.30633e-14
6.6616e-14
6.94329e-14
7.30793e-14
1.72471e-14
1.52008e-14
1.41002e-14
1.50607e-14
1.28124e-14
1.77886e-14
1.90222e-14
2.20943e-14
2.34183e-14
1.84257e-14
1.60588e-14
2.23632e-14
2.56893e-14
2.17573e-14
2.02706e-14
1.93906e-14
1.68482e-14
1.61543e-14
1.62247e-14
1.26788e-14
1.35032e-14
2.30353e-14
3.31358e-14
3.83232e-14
3.57529e-14
2.74873e-14
1.991e-14
1.97725e-14
3.08179e-14
6.20653e-14
9.4928e-14
1.18881e-13
1.24128e-13
1.23075e-13
1.20304e-13
9.3205e-14
4.92221e-14
1.71805e-14
2.65019e-14
3.59399e-14
3.66497e-14
3.3483e-14
3.33537e-14
3.12781e-14
3.58577e-14
3.7692e-14
3.76983e-14
3.7593e-14
3.41115e-14
2.78818e-14
2.39881e-14
2.4181e-14
2.48133e-14
2.30951e-14
2.19957e-14
2.57512e-14
2.70308e-14
2.59485e-14
2.62989e-14
2.76022e-14
2.98196e-14
3.30232e-14
3.73398e-14
3.27181e-14
2.19411e-14
1.49108e-14
1.59482e-14
1.72352e-14
1.56424e-14
1.53301e-14
1.21272e-14
1.25716e-14
1.18722e-14
1.02879e-14
1.58637e-14
1.67776e-14
1.92643e-14
1.70754e-14
1.40414e-14
1.43433e-14
1.49239e-14
1.71143e-14
1.46026e-14
1.48366e-14
1.30968e-14
1.0614e-14
1.34831e-14
1.16139e-14
1.51865e-14
1.80983e-14
2.26395e-14
2.48827e-14
3.21989e-14
3.38432e-14
3.80722e-14
3.98237e-14
3.90563e-14
4.09675e-14
3.79957e-14
3.36527e-14
3.22922e-14
2.86256e-14
2.52801e-14
2.53559e-14
2.76687e-14
2.86091e-14
2.95734e-14
2.67601e-14
2.70001e-14
3.43932e-14
3.40608e-14
3.043e-14
2.72021e-14
2.36905e-14
2.12261e-14
2.22181e-14
2.06911e-14
2.30704e-14
2.13288e-14
2.28425e-14
3.03062e-14
2.97231e-14
2.7529e-14
2.48645e-14
2.1129e-14
2.41926e-14
3.69719e-14
6.90587e-14
1.0791e-13
1.39689e-13
1.5436e-13
1.49739e-13
1.45005e-13
1.13496e-13
6.29221e-14
2.63287e-14
1.93654e-14
2.97856e-14
3.49581e-14
3.21928e-14
2.45664e-14
1.89028e-14
2.46323e-14
3.16315e-14
3.35313e-14
2.95509e-14
2.60624e-14
1.97158e-14
1.73858e-14
1.79947e-14
2.21455e-14
2.38249e-14
2.39765e-14
2.1722e-14
2.37883e-14
2.22569e-14
2.06955e-14
2.28201e-14
3.12807e-14
4.01985e-14
4.12915e-14
4.28381e-14
3.42502e-14
2.30146e-14
1.92437e-14
1.65108e-14
1.9712e-14
2.17394e-14
2.19906e-14
2.22875e-14
2.53861e-14
2.2209e-14
2.25727e-14
2.11208e-14
2.08913e-14
2.03596e-14
2.52359e-14
2.81777e-14
2.71693e-14
2.83458e-14
2.65725e-14
2.46497e-14
2.10303e-14
2.42943e-14
2.09399e-14
2.13717e-14
2.68951e-14
2.8945e-14
2.89633e-14
3.07565e-14
3.52263e-14
4.17389e-14
4.67248e-14
4.43321e-14
4.33046e-14
4.05991e-14
3.60398e-14
3.68069e-14
3.51487e-14
3.42881e-14
2.58704e-14
1.79241e-14
2.11498e-14
2.76625e-14
2.99121e-14
2.86561e-14
2.88863e-14
3.06971e-14
3.08547e-14
2.60161e-14
2.3571e-14
2.28023e-14
2.13055e-14
1.77792e-14
1.74422e-14
1.75048e-14
2.07402e-14
2.27242e-14
2.36818e-14
2.13536e-14
2.09121e-14
1.39085e-14
1.90177e-14
3.22107e-14
5.20732e-14
8.6965e-14
1.26103e-13
1.59257e-13
1.75622e-13
1.73252e-13
1.58806e-13
1.23093e-13
7.28121e-14
2.5471e-14
5.26254e-15
1.59263e-14
2.29455e-14
1.85077e-14
1.39456e-14
1.27443e-14
1.45919e-14
2.0863e-14
2.31198e-14
2.20517e-14
1.8944e-14
1.16235e-14
1.11185e-14
1.25508e-14
1.31099e-14
1.19487e-14
1.19537e-14
1.35849e-14
1.2686e-14
9.8227e-15
1.13918e-14
8.73798e-15
1.29277e-14
1.7497e-14
2.18181e-14
2.16653e-14
1.82867e-14
1.412e-14
1.63162e-14
1.36656e-14
1.40772e-14
1.47644e-14
1.28311e-14
1.51066e-14
1.37616e-14
1.47835e-14
1.63977e-14
1.83262e-14
2.05425e-14
2.10864e-14
1.94884e-14
1.80657e-14
1.69355e-14
1.69865e-14
1.59082e-14
1.5083e-14
1.64896e-14
1.43304e-14
1.192e-14
1.50375e-14
1.6654e-14
1.7828e-14
1.90909e-14
1.98436e-14
2.34006e-14
2.49697e-14
2.71833e-14
2.78386e-14
3.066e-14
3.31702e-14
4.52546e-14
4.38929e-14
4.20463e-14
4.3195e-14
3.74993e-14
2.37934e-14
2.29784e-14
2.7964e-14
3.42567e-14
3.75344e-14
3.9819e-14
4.15914e-14
3.90011e-14
3.7342e-14
3.22522e-14
2.80654e-14
2.41559e-14
2.63471e-14
2.464e-14
2.9012e-14
2.72125e-14
2.68868e-14
3.0152e-14
2.89719e-14
2.50339e-14
2.43484e-14
2.4592e-14
3.7471e-14
6.10157e-14
9.64695e-14
1.34781e-13
1.63753e-13
1.80416e-13
1.85086e-13
1.73222e-13
1.37353e-13
9.23235e-14
5.28179e-14
4.09078e-14
3.82163e-14
3.79799e-14
4.10297e-14
3.71213e-14
3.38278e-14
3.16697e-14
3.39587e-14
3.61129e-14
3.39955e-14
3.2395e-14
3.14551e-14
3.20813e-14
3.28816e-14
3.15316e-14
3.07196e-14
2.97051e-14
2.96304e-14
3.09399e-14
3.39291e-14
3.33708e-14
3.7408e-14
3.54174e-14
3.66238e-14
4.14636e-14
4.30403e-14
4.0013e-14
3.77008e-14
3.40994e-14
3.19168e-14
3.47328e-14
3.38943e-14
3.52623e-14
3.26842e-14
3.49289e-14
3.33004e-14
2.83246e-14
2.3864e-14
2.44728e-14
2.34126e-14
2.72241e-14
2.60334e-14
2.48876e-14
2.60288e-14
2.59423e-14
2.58063e-14
2.66872e-14
2.51915e-14
2.66069e-14
2.93375e-14
3.09604e-14
3.05274e-14
2.81365e-14
2.86507e-14
3.021e-14
3.20041e-14
3.3957e-14
3.05059e-14
3.28375e-14
3.43343e-14
6.93725e-14
6.959e-14
7.10886e-14
6.25161e-14
5.99844e-14
4.99292e-14
5.074e-14
5.26158e-14
6.15388e-14
6.00413e-14
6.74906e-14
6.53423e-14
6.9064e-14
6.42751e-14
6.571e-14
5.40455e-14
5.57747e-14
5.27438e-14
5.86338e-14
6.77092e-14
7.0024e-14
6.86662e-14
6.94915e-14
6.21382e-14
5.81422e-14
5.02473e-14
4.84902e-14
5.53112e-14
8.40891e-14
1.16423e-13
1.54306e-13
1.76135e-13
1.84137e-13
1.85474e-13
1.71967e-13
1.36489e-13
1.08707e-13
7.81672e-14
7.2997e-14
6.68536e-14
7.14524e-14
7.25373e-14
6.34305e-14
6.01816e-14
6.47328e-14
5.97763e-14
6.26831e-14
5.90707e-14
6.47506e-14
5.74478e-14
6.49134e-14
6.39476e-14
6.66034e-14
6.40696e-14
6.56229e-14
6.12791e-14
6.16823e-14
6.14029e-14
6.76489e-14
6.97125e-14
7.13354e-14
7.16651e-14
7.84181e-14
7.33351e-14
7.62872e-14
7.02666e-14
6.58939e-14
6.89569e-14
6.91719e-14
7.10561e-14
6.84128e-14
6.99528e-14
6.60014e-14
6.69131e-14
5.68613e-14
5.19734e-14
4.77458e-14
5.21215e-14
5.1499e-14
6.07424e-14
6.23859e-14
6.39613e-14
6.27299e-14
6.27235e-14
5.70964e-14
5.58508e-14
5.15745e-14
5.46758e-14
6.04222e-14
6.38781e-14
6.00535e-14
6.39029e-14
6.30606e-14
6.5074e-14
6.23227e-14
6.36506e-14
5.72163e-14
6.14902e-14
9.57713e-14
9.36721e-14
9.26409e-14
8.81768e-14
8.28965e-14
7.97694e-14
7.89477e-14
8.13294e-14
8.02691e-14
8.1704e-14
8.3407e-14
8.34983e-14
8.85387e-14
8.61168e-14
8.84369e-14
8.17332e-14
8.33598e-14
8.17768e-14
8.68182e-14
8.94193e-14
8.92263e-14
9.06978e-14
9.50493e-14
9.57449e-14
9.05718e-14
8.31802e-14
7.97838e-14
8.32182e-14
1.00969e-13
1.19894e-13
1.48289e-13
1.78602e-13
1.93463e-13
1.96192e-13
1.80889e-13
1.49772e-13
1.2062e-13
9.73924e-14
9.25876e-14
8.83626e-14
9.05883e-14
9.21455e-14
9.10004e-14
8.55113e-14
8.66799e-14
8.39923e-14
8.49008e-14
8.49973e-14
8.72841e-14
8.14939e-14
8.67493e-14
8.69658e-14
8.91945e-14
8.53827e-14
8.59815e-14
8.35856e-14
8.31136e-14
8.65949e-14
9.3052e-14
9.43826e-14
1.01233e-13
1.0377e-13
1.06282e-13
9.68021e-14
9.55153e-14
9.21088e-14
9.02073e-14
9.20851e-14
9.01031e-14
9.3815e-14
8.98564e-14
9.22821e-14
8.62675e-14
9.16336e-14
8.8357e-14
8.2185e-14
7.80053e-14
8.17405e-14
8.30133e-14
8.63264e-14
8.24624e-14
7.94821e-14
8.09473e-14
8.36753e-14
8.38691e-14
8.35895e-14
8.15956e-14
8.1346e-14
8.31822e-14
8.36274e-14
8.3126e-14
8.5026e-14
8.72376e-14
8.95577e-14
8.57097e-14
8.67071e-14
8.20534e-14
7.73085e-14
7.53912e-14
6.84366e-14
6.60224e-14
6.959e-14
6.7334e-14
7.25616e-14
7.20476e-14
7.14791e-14
6.35891e-14
6.25252e-14
5.43726e-14
5.77405e-14
5.63149e-14
6.29467e-14
6.08874e-14
6.69218e-14
6.84384e-14
7.10998e-14
7.0772e-14
6.20627e-14
5.88379e-14
5.99383e-14
6.84905e-14
7.80258e-14
7.87973e-14
7.71751e-14
6.7335e-14
6.81146e-14
6.58504e-14
8.06262e-14
9.47525e-14
1.2256e-13
1.3644e-13
1.36263e-13
1.27266e-13
1.11735e-13
8.51327e-14
7.32709e-14
6.48673e-14
6.84147e-14
6.41002e-14
6.43974e-14
7.35372e-14
7.39256e-14
6.75521e-14
6.91207e-14
6.89994e-14
6.91045e-14
6.37015e-14
6.78536e-14
6.44863e-14
6.76671e-14
6.4421e-14
6.69321e-14
6.3097e-14
7.006e-14
7.46832e-14
8.17297e-14
8.22301e-14
8.26352e-14
8.43505e-14
8.62535e-14
7.74046e-14
6.94959e-14
6.24493e-14
6.65747e-14
6.77832e-14
6.47061e-14
6.38254e-14
6.10988e-14
6.28656e-14
6.07688e-14
6.24954e-14
6.31649e-14
6.98667e-14
7.1295e-14
7.15295e-14
7.06765e-14
6.82737e-14
5.87818e-14
5.82815e-14
5.44681e-14
5.56723e-14
5.84751e-14
6.37747e-14
6.37442e-14
6.42125e-14
6.14847e-14
5.85483e-14
5.68761e-14
5.96317e-14
5.58472e-14
5.78515e-14
5.64206e-14
5.90728e-14
5.6128e-14
5.65535e-14
4.96063e-14
1.13683e-14
1.88298e-14
2.68517e-14
3.03233e-14
3.17249e-14
3.57515e-14
3.61156e-14
3.30073e-14
3.28838e-14
2.82231e-14
2.45899e-14
1.89862e-14
2.20606e-14
1.81709e-14
1.37005e-14
1.42264e-14
1.3838e-14
1.40864e-14
1.43624e-14
1.60148e-14
2.21476e-14
2.86163e-14
3.13333e-14
3.6756e-14
3.77464e-14
3.32106e-14
2.37575e-14
1.07341e-14
5.47742e-15
2.12666e-14
4.08677e-14
6.10615e-14
7.40908e-14
7.49551e-14
7.01812e-14
5.6798e-14
3.68477e-14
1.2861e-14
1.15556e-14
1.61759e-14
1.76921e-14
2.1231e-14
2.5019e-14
2.60762e-14
2.7496e-14
2.76027e-14
2.64875e-14
2.23742e-14
1.42604e-14
6.01181e-15
4.42915e-15
7.09686e-15
8.42494e-15
7.00038e-15
1.54103e-14
2.64471e-14
3.35897e-14
4.08767e-14
4.40097e-14
4.58647e-14
4.56337e-14
4.36227e-14
3.66097e-14
3.00967e-14
2.39317e-14
2.21563e-14
2.16007e-14
2.00176e-14
1.97129e-14
1.74609e-14
1.33542e-14
7.35956e-15
8.62003e-15
1.14886e-14
9.86585e-15
8.18095e-15
7.31119e-15
8.15913e-15
1.22865e-14
1.42531e-14
1.30956e-14
9.22811e-15
5.08763e-15
4.3619e-15
7.09891e-15
5.92074e-15
6.68066e-15
4.20369e-15
7.45818e-15
4.589e-15
7.18898e-15
8.02765e-15
1.12716e-14
9.74337e-15
1.15539e-14
1.12983e-14
1.41929e-14
1.13394e-14
2.64971e-14
2.49562e-14
2.75243e-14
3.62451e-14
4.3043e-14
5.76661e-14
6.14826e-14
5.86363e-14
5.44315e-14
5.01457e-14
4.74587e-14
4.14506e-14
4.06714e-14
4.13865e-14
3.93244e-14
3.92303e-14
3.81781e-14
3.46799e-14
3.94541e-14
3.95446e-14
4.56993e-14
4.43069e-14
4.3483e-14
4.52966e-14
4.15112e-14
4.24279e-14
3.83632e-14
3.3171e-14
3.1e-14
3.14047e-14
3.58025e-14
4.46757e-14
5.0395e-14
5.41672e-14
5.35642e-14
4.47117e-14
3.72018e-14
3.36645e-14
3.32928e-14
4.13579e-14
3.76784e-14
3.77275e-14
4.09544e-14
4.44012e-14
4.10186e-14
3.65768e-14
3.04669e-14
2.43179e-14
2.44639e-14
2.13091e-14
2.13424e-14
1.86247e-14
1.79162e-14
1.96197e-14
2.04319e-14
2.50112e-14
3.24941e-14
3.79255e-14
3.98464e-14
4.21429e-14
4.54124e-14
4.34837e-14
4.3933e-14
4.28874e-14
4.52842e-14
4.42425e-14
4.61171e-14
4.61603e-14
4.76781e-14
4.10512e-14
3.82192e-14
3.43304e-14
3.70452e-14
3.35792e-14
2.79891e-14
3.12567e-14
3.12035e-14
3.22625e-14
3.53116e-14
3.78041e-14
3.59191e-14
3.23317e-14
3.4823e-14
3.38746e-14
3.58985e-14
3.07402e-14
3.24202e-14
2.77531e-14
3.14396e-14
3.24776e-14
3.56051e-14
3.23768e-14
3.27514e-14
3.33847e-14
3.66505e-14
3.63981e-14
3.67661e-14
3.36056e-14
2.05862e-14
1.84574e-14
1.8341e-14
2.40013e-14
2.95179e-14
3.81518e-14
4.35843e-14
4.37913e-14
4.45819e-14
4.23267e-14
4.12137e-14
3.81172e-14
3.5616e-14
3.37247e-14
3.22467e-14
3.00033e-14
2.77484e-14
2.56843e-14
2.52973e-14
2.60735e-14
3.00406e-14
3.43573e-14
3.65844e-14
3.79368e-14
3.28043e-14
3.1199e-14
2.90331e-14
2.37219e-14
1.58684e-14
9.81661e-15
1.36723e-14
1.43892e-14
2.07675e-14
2.32638e-14
2.18477e-14
2.12945e-14
1.5342e-14
1.04338e-14
1.4704e-14
2.59166e-14
2.92063e-14
3.26326e-14
3.77524e-14
4.17187e-14
4.21608e-14
4.2711e-14
3.75258e-14
3.53435e-14
3.34589e-14
3.24346e-14
3.32565e-14
2.97831e-14
2.91627e-14
2.85224e-14
2.68362e-14
2.9851e-14
3.02728e-14
3.33824e-14
3.42267e-14
3.61056e-14
3.54755e-14
3.60164e-14
3.54191e-14
3.61397e-14
3.72657e-14
3.62129e-14
3.87588e-14
3.87229e-14
3.97457e-14
3.50037e-14
2.94915e-14
2.49066e-14
2.32199e-14
2.03559e-14
1.80335e-14
1.94595e-14
1.84496e-14
1.88151e-14
2.1017e-14
2.03994e-14
1.72386e-14
1.52335e-14
1.37978e-14
1.21103e-14
1.58317e-14
1.61305e-14
1.40023e-14
1.01294e-14
1.16813e-14
9.71676e-15
1.24244e-14
1.2758e-14
1.48536e-14
1.26245e-14
1.32793e-14
1.28859e-14
1.32069e-14
1.09625e-14
7.48824e-14
6.93902e-14
7.06447e-14
7.14154e-14
7.29419e-14
7.67097e-14
7.48198e-14
7.40881e-14
7.72249e-14
7.46482e-14
7.61776e-14
7.63554e-14
7.75038e-14
7.53251e-14
7.57314e-14
7.21904e-14
6.861e-14
6.62254e-14
6.82203e-14
6.66688e-14
6.78486e-14
6.93586e-14
7.10013e-14
7.21888e-14
7.06151e-14
7.12649e-14
6.96763e-14
6.70234e-14
6.70609e-14
6.51468e-14
6.78462e-14
6.41874e-14
6.30986e-14
6.25438e-14
6.14546e-14
6.08067e-14
6.22049e-14
6.49288e-14
6.7567e-14
7.3592e-14
8.25189e-14
8.21432e-14
8.59288e-14
8.64589e-14
9.03443e-14
8.65013e-14
8.48482e-14
8.1009e-14
8.45367e-14
8.77171e-14
9.06269e-14
8.76216e-14
8.79061e-14
8.52385e-14
8.08895e-14
7.71918e-14
7.80089e-14
7.64202e-14
7.96468e-14
7.82035e-14
8.22882e-14
8.21445e-14
8.65209e-14
8.75453e-14
9.2734e-14
9.26795e-14
9.52203e-14
9.29009e-14
9.00223e-14
8.98109e-14
8.71735e-14
8.5672e-14
8.46825e-14
8.37223e-14
7.56502e-14
7.2423e-14
7.10144e-14
7.47672e-14
7.2374e-14
7.19824e-14
7.04687e-14
6.98819e-14
6.92959e-14
6.96806e-14
7.06615e-14
7.19752e-14
7.10825e-14
6.89188e-14
6.82756e-14