/*--------------------------------*- C++ -*----------------------------------*\
| =========                 |                                                 |
| \\      /  F ield         | OpenFOAM: The Open Source CFD Toolbox           |
|  \\    /   O peration     | Version:  2406                                  |
|   \\  /    A nd           | Website:  www.openfoam.com                      |
|    \\/     M anipulation  |                                                 |
\*---------------------------------------------------------------------------*/
FoamFile
{
    version     2.0;
    format      ascii;
    arch        "LSB;label=32;scalar=64";
    class       volVectorField;
    location    "0.085";
    object      U;
}
// * * * * * * * * * * * * * * * * * * * * * * * * * * * * * * * * * * * * * //

dimensions      [0 1 -1 0 0 0 0];

internalField   nonuniform List<vector> 
13988
(
(1.72712e-12 6.75896e-14 1.47312e-13)
(2.02314e-12 -4.29812e-13 3.39799e-12)
(1.08429e-12 -1.70758e-13 9.01633e-12)
(1.70033e-12 -1.18794e-12 1.21696e-11)
(2.9264e-12 -7.37176e-13 9.68376e-12)
(6.64656e-13 -4.76753e-13 7.73255e-12)
(-9.16409e-13 -7.00981e-13 3.59733e-12)
(1.38954e-13 -3.90643e-13 -2.27416e-12)
(-1.31759e-12 -6.42142e-13 -7.14711e-12)
(-2.34213e-12 8.12685e-13 -1.04454e-11)
(-3.33281e-12 -4.35687e-13 -1.27894e-11)
(-1.79131e-12 -9.18659e-13 -1.18097e-11)
(-1.13623e-12 -1.29058e-12 -1.32471e-11)
(-1.39596e-12 -7.63827e-13 -1.41051e-11)
(-2.49622e-13 1.47421e-12 -1.36648e-11)
(8.04258e-13 3.97706e-12 -9.90605e-12)
(-8.63259e-13 4.67122e-12 -8.01201e-12)
(6.5309e-13 3.47474e-12 -1.04357e-11)
(2.56472e-12 2.70496e-12 -1.03207e-11)
(2.06388e-12 4.47339e-12 -8.77384e-12)
(7.70695e-13 2.82678e-12 -1.10751e-11)
(-8.93993e-13 2.34569e-12 -1.33488e-11)
(-1.8788e-12 2.54447e-12 -1.2994e-11)
(-1.37431e-12 5.16493e-12 -1.29865e-11)
(4.67728e-13 6.16612e-12 -9.66609e-12)
(-1.83403e-12 4.91167e-12 -5.04483e-12)
(-3.50942e-12 3.91408e-12 -5.07214e-12)
(-2.08233e-12 3.97671e-12 7.42455e-13)
(2.01406e-13 9.10134e-13 5.23338e-12)
(2.40843e-12 1.81343e-12 9.62589e-12)
(1.23655e-12 3.13423e-12 1.27254e-11)
(1.12252e-12 3.41174e-12 1.53217e-11)
(3.22318e-12 3.58121e-12 1.15762e-11)
(2.39286e-12 3.52896e-12 1.0192e-11)
(4.52006e-12 2.76306e-12 5.42322e-12)
(4.66129e-12 2.75154e-12 2.24046e-12)
(2.13198e-12 2.84958e-12 5.37863e-13)
(2.07553e-12 3.13133e-12 2.97417e-12)
(2.69391e-12 3.00539e-12 -1.72666e-12)
(2.7828e-12 3.21402e-12 1.82908e-12)
(2.08105e-12 1.51715e-12 3.74103e-13)
(1.65525e-12 -1.45341e-14 1.64981e-13)
(7.28332e-13 5.92525e-13 -8.76886e-13)
(1.0276e-12 7.09094e-13 -3.90767e-12)
(1.57806e-12 1.04431e-12 -2.16357e-12)
(-1.77964e-14 1.24565e-12 -1.24655e-12)
(-8.83755e-13 6.73773e-13 -7.85393e-13)
(-1.24548e-12 1.45921e-12 -9.69559e-13)
(9.4133e-13 2.40954e-12 1.1115e-12)
(3.2118e-12 9.26823e-13 2.2258e-12)
(6.06432e-13 1.61187e-12 5.93463e-12)
(-4.56238e-13 3.96366e-12 7.6091e-12)
(-7.41696e-13 3.82726e-12 7.73128e-12)
(-1.27664e-12 5.68154e-12 5.0089e-12)
(-1.11964e-12 5.96819e-12 1.92551e-12)
(3.02701e-14 5.25565e-12 2.83357e-12)
(-1.44625e-12 6.1939e-12 9.70558e-13)
(-5.21072e-12 5.54827e-12 -1.27603e-12)
(-3.09431e-12 3.68976e-12 -2.37638e-12)
(-1.369e-12 4.51307e-12 -3.27009e-12)
(-3.13349e-12 3.3907e-12 -2.41822e-12)
(-3.17546e-12 2.00367e-12 -3.73266e-12)
(-1.34565e-12 2.36954e-12 -5.06246e-12)
(-1.83122e-12 1.34062e-12 -3.82962e-12)
(-1.33393e-12 1.86824e-12 -2.64143e-12)
(7.07431e-14 3.28525e-12 -3.09445e-12)
(-2.17318e-12 3.93334e-12 1.2181e-13)
(-2.01149e-12 4.4919e-12 2.39865e-12)
(-1.22883e-13 5.05255e-12 2.29208e-12)
(1.46912e-12 5.45442e-12 8.75316e-13)
(2.2404e-12 3.29964e-12 -4.86563e-12)
(1.2216e-12 4.09086e-12 -7.91557e-12)
(-8.04884e-13 4.73851e-12 -7.31882e-12)
(-1.02186e-12 4.19482e-12 -8.49853e-12)
(-1.21879e-12 2.71775e-12 -9.66777e-12)
(-1.18553e-12 3.45914e-12 -1.1739e-11)
(5.02724e-13 2.09241e-12 -9.6206e-12)
(7.74043e-13 2.53901e-12 -7.65523e-12)
(-6.87351e-13 3.51917e-12 -5.20486e-12)
(-1.0466e-12 4.42141e-12 -7.33821e-12)
(-8.6213e-13 3.77686e-12 -5.92322e-12)
(-1.15353e-12 2.49619e-12 -6.30705e-12)
(-9.92071e-13 1.84258e-12 -7.06273e-12)
(-2.66313e-12 1.1883e-12 -8.57375e-12)
(-1.5708e-12 2.62084e-12 -9.0691e-12)
(2.79721e-12 1.48449e-12 -6.38545e-12)
(3.45141e-12 1.77623e-12 3.38221e-12)
(8.20832e-13 2.45324e-12 6.19971e-12)
(-1.15239e-12 4.07561e-12 4.50651e-12)
(-6.12585e-13 4.95676e-12 2.99719e-12)
(2.5974e-12 5.07839e-12 2.41342e-12)
(2.69232e-12 3.95362e-12 1.07987e-12)
(-1.23629e-12 5.03469e-12 -9.0048e-13)
(-2.31215e-12 3.9657e-12 2.85761e-13)
(-3.29842e-13 3.66565e-12 1.23833e-12)
(2.10016e-12 2.05641e-12 -2.72078e-12)
(2.86562e-12 2.84916e-12 1.62289e-12)
(8.90883e-13 2.83361e-12 8.03687e-12)
(1.17855e-12 4.29358e-12 1.23161e-11)
(1.53724e-12 3.82316e-12 1.44169e-11)
(-1.52296e-13 2.61996e-12 1.18877e-11)
(1.22153e-12 -1.97708e-12 3.17206e-12)
(1.74179e-12 -1.12118e-12 5.18557e-12)
(2.77209e-12 -1.58039e-12 6.17703e-12)
(2.59488e-12 -3.51734e-12 7.69468e-12)
(2.48693e-12 -4.66547e-12 7.04405e-12)
(1.68691e-12 -4.32011e-12 7.02964e-12)
(1.02565e-12 -7.51126e-12 3.18836e-12)
(-1.5451e-12 -6.21974e-12 -3.39159e-12)
(-3.71815e-12 -4.09978e-12 -1.01402e-11)
(-2.84573e-12 -1.7294e-12 -1.30159e-11)
(-2.80106e-12 -3.08842e-12 -1.35507e-11)
(-1.83212e-12 -2.05194e-12 -1.31848e-11)
(-1.55779e-12 -2.72404e-12 -1.31581e-11)
(-2.61213e-12 -2.78223e-12 -1.26467e-11)
(-1.70237e-12 1.87356e-13 -1.23389e-11)
(3.02585e-13 1.25822e-12 -1.15099e-11)
(-1.0043e-13 1.60343e-12 -1.07753e-11)
(1.02935e-12 -2.07649e-13 -1.05583e-11)
(1.46628e-12 -4.68156e-13 -9.20124e-12)
(2.56087e-13 1.24719e-12 -7.71628e-12)
(3.2954e-13 3.05432e-12 -7.47287e-12)
(4.07283e-13 5.98542e-13 -8.31622e-12)
(-5.69234e-13 9.99126e-13 -8.76627e-12)
(-1.16185e-12 1.6287e-13 -9.29001e-12)
(-7.71936e-13 1.93976e-12 -9.49286e-12)
(-1.97612e-12 2.28037e-12 -7.26085e-12)
(-1.78009e-12 2.2799e-12 -3.34407e-12)
(-3.32652e-13 -1.42084e-13 3.53342e-12)
(-8.03708e-13 -2.03112e-12 8.03358e-12)
(8.12394e-13 3.8459e-13 1.12069e-11)
(2.02729e-12 1.33154e-12 1.37177e-11)
(1.99058e-12 3.00893e-13 1.51059e-11)
(1.96571e-12 -5.4669e-14 1.44386e-11)
(1.80093e-12 1.74871e-12 1.26726e-11)
(3.96417e-12 5.92959e-13 8.8523e-12)
(3.65482e-12 1.70012e-12 3.65799e-12)
(3.69188e-12 1.0938e-12 6.6308e-13)
(4.17147e-12 -7.92433e-13 9.78776e-13)
(3.42044e-12 -2.59374e-12 2.26257e-13)
(2.59345e-12 -1.45099e-12 5.89538e-13)
(2.25915e-12 -2.20647e-12 -7.42752e-14)
(2.31349e-12 -3.12673e-12 2.00254e-13)
(1.86343e-12 -3.3216e-12 -1.45805e-12)
(8.08303e-13 -4.21342e-12 -3.57606e-12)
(1.84145e-13 -3.20624e-12 -3.81941e-12)
(3.26503e-13 -2.47851e-12 -3.52215e-12)
(-2.47295e-13 -2.88502e-12 -2.40398e-12)
(-5.77343e-13 -3.05967e-12 -2.41219e-12)
(1.55118e-13 -2.90692e-12 -1.90354e-12)
(5.1482e-13 -1.59659e-12 -1.02703e-12)
(3.82066e-13 6.97461e-13 9.71535e-13)
(-7.24926e-13 1.93523e-12 2.06756e-12)
(-8.97925e-13 2.77458e-12 2.78776e-12)
(-1.22362e-12 2.39109e-12 2.20112e-12)
(-1.19859e-12 3.41217e-12 1.63108e-12)
(-4.9379e-13 2.70801e-12 8.94133e-13)
(-1.42538e-12 3.32895e-12 -8.25036e-14)
(-3.25147e-12 2.44489e-12 -1.87365e-12)
(-2.47741e-12 4.56609e-13 -3.88129e-12)
(-1.14534e-12 9.19317e-13 -5.18565e-12)
(-2.00027e-12 5.94671e-13 -6.097e-12)
(-2.3734e-12 -1.33978e-12 -7.09427e-12)
(-1.63885e-12 -8.84522e-13 -6.39428e-12)
(-1.65253e-12 -6.38031e-13 -5.72296e-12)
(-2.06959e-12 -2.32867e-12 -5.30446e-12)
(-2.08773e-12 1.79071e-13 -2.64621e-12)
(-1.53563e-12 1.65933e-12 -2.3407e-13)
(-8.78185e-13 6.66724e-13 3.15006e-14)
(-7.01467e-13 1.21181e-13 -1.58007e-12)
(-1.72434e-15 2.06118e-12 -3.74271e-12)
(1.40633e-12 1.22616e-12 -7.59466e-12)
(1.08886e-12 1.26888e-12 -9.96943e-12)
(6.81493e-14 1.3302e-12 -9.49426e-12)
(-5.57107e-13 2.48621e-13 -1.07583e-11)
(-7.19957e-13 8.60848e-13 -1.19494e-11)
(-8.52536e-13 -2.81191e-13 -1.16093e-11)
(-9.12742e-13 1.4657e-13 -1.10862e-11)
(-7.18068e-13 1.80836e-12 -9.76135e-12)
(-1.45954e-12 2.64562e-12 -8.25196e-12)
(-7.81671e-13 2.08759e-12 -7.91273e-12)
(6.06119e-13 2.55001e-12 -7.44733e-12)
(5.13081e-13 6.96392e-13 -5.82154e-12)
(3.75966e-13 2.01347e-13 -4.9406e-12)
(-6.04645e-13 -7.73692e-13 -5.4547e-12)
(-1.33079e-13 -2.0307e-12 -5.70739e-12)
(1.00846e-12 -3.26441e-12 -4.00483e-12)
(1.32119e-12 -1.63557e-13 3.09209e-13)
(7.23329e-13 -4.94923e-13 3.20285e-12)
(2.64308e-13 6.01231e-13 2.66804e-12)
(2.28263e-13 -1.2903e-12 1.63824e-12)
(5.08423e-13 9.27887e-13 6.55007e-13)
(8.71729e-13 2.29802e-12 -8.2035e-13)
(-7.12966e-13 2.15957e-12 -1.50678e-12)
(-6.5727e-13 1.9242e-12 -1.25153e-12)
(1.52446e-12 1.17924e-12 -7.87939e-13)
(1.6927e-12 -1.32105e-12 4.43736e-13)
(1.06416e-12 2.06868e-12 4.18388e-12)
(6.5536e-13 1.16271e-12 8.80843e-12)
(1.06666e-12 2.18626e-12 1.16217e-11)
(1.52207e-12 1.37601e-12 1.36121e-11)
(1.22059e-12 -9.57307e-12 3.57224e-12)
(1.86186e-12 -1.02137e-11 4.62615e-12)
(2.73971e-12 -1.0428e-11 4.22273e-12)
(2.64108e-12 -1.14256e-11 5.60465e-12)
(2.28035e-12 -1.29294e-11 5.984e-12)
(1.79129e-12 -1.17402e-11 6.84386e-12)
(1.61786e-12 -1.40931e-11 2.28563e-12)
(-1.85882e-12 -1.20583e-11 -3.60099e-12)
(-4.58293e-12 -1.1209e-11 -1.07484e-11)
(-2.82071e-12 -1.0097e-11 -1.36556e-11)
(-3.16323e-12 -1.01724e-11 -1.34432e-11)
(-1.98422e-12 -7.84219e-12 -1.32703e-11)
(-5.85435e-13 -9.22966e-12 -1.27132e-11)
(-2.68344e-12 -9.43107e-12 -1.13681e-11)
(-2.85422e-12 -7.70764e-12 -1.1655e-11)
(-4.32504e-13 -6.9219e-12 -1.24228e-11)
(-2.60482e-13 -8.15766e-12 -1.11392e-11)
(1.36925e-12 -8.59447e-12 -1.00962e-11)
(1.21499e-12 -8.02562e-12 -8.37513e-12)
(-3.48791e-13 -7.57997e-12 -7.1718e-12)
(7.88019e-13 -5.92255e-12 -6.73901e-12)
(6.65681e-13 -7.88306e-12 -6.64061e-12)
(-1.14233e-12 -8.5326e-12 -7.40013e-12)
(-1.56573e-12 -8.27831e-12 -7.65694e-12)
(-9.98329e-13 -7.13868e-12 -8.4512e-12)
(-8.20658e-13 -8.10751e-12 -6.53062e-12)
(-1.11722e-12 -7.19039e-12 -2.79586e-12)
(1.56211e-15 -8.66033e-12 4.37641e-12)
(-6.62457e-13 -1.04498e-11 8.77488e-12)
(8.29227e-13 -7.7605e-12 1.17031e-11)
(1.7102e-12 -8.62016e-12 1.48307e-11)
(1.70919e-12 -6.90428e-12 1.60382e-11)
(1.32224e-12 -7.8591e-12 1.63215e-11)
(1.0257e-12 -6.16193e-12 1.41569e-11)
(3.47499e-12 -7.5384e-12 1.02083e-11)
(3.7173e-12 -6.80294e-12 3.88398e-12)
(4.38766e-12 -7.90352e-12 1.69091e-12)
(4.80239e-12 -7.92229e-12 1.29687e-12)
(2.85172e-12 -9.89607e-12 1.33653e-12)
(2.16111e-12 -9.17632e-12 8.73259e-13)
(3.0334e-12 -1.02901e-11 1.56827e-13)
(3.09056e-12 -9.20271e-12 -1.24597e-13)
(2.04276e-12 -9.47799e-12 -1.02059e-12)
(1.02776e-12 -1.01358e-11 -3.2369e-12)
(-4.86708e-14 -1.15132e-11 -3.85359e-12)
(3.13421e-13 -1.03372e-11 -4.0764e-12)
(-2.29132e-13 -9.10311e-12 -2.56645e-12)
(-1.35225e-12 -1.04633e-11 -2.38557e-12)
(1.96551e-13 -1.08141e-11 -1.98273e-12)
(6.27324e-13 -8.99736e-12 -1.81702e-12)
(-2.2257e-13 -9.04898e-12 -1.01924e-12)
(-3.69246e-13 -7.09088e-12 -2.84945e-13)
(-6.46307e-13 -7.60375e-12 1.4673e-12)
(-1.86652e-12 -6.99896e-12 1.20796e-12)
(-1.87862e-12 -5.66195e-12 1.33187e-12)
(-9.65498e-13 -5.24706e-12 9.35913e-13)
(-1.52108e-12 -6.95891e-12 -2.34441e-13)
(-2.59217e-12 -6.04818e-12 -2.71771e-12)
(-1.83707e-12 -6.46336e-12 -4.98143e-12)
(-8.01016e-13 -6.87479e-12 -7.1617e-12)
(-1.31671e-12 -7.60853e-12 -9.08264e-12)
(-1.73878e-12 -8.39916e-12 -9.59949e-12)
(-1.69913e-12 -7.80937e-12 -7.37951e-12)
(-1.32904e-12 -7.61692e-12 -6.47855e-12)
(-2.51865e-12 -7.91267e-12 -4.6371e-12)
(-3.2638e-12 -6.13933e-12 -1.9596e-12)
(-2.00371e-12 -8.01235e-12 -3.04022e-15)
(-6.86244e-13 -8.85567e-12 -3.39914e-13)
(-9.39336e-13 -8.94974e-12 -2.76566e-12)
(6.34919e-14 -6.59063e-12 -5.84363e-12)
(1.68863e-12 -6.4333e-12 -9.07066e-12)
(9.72805e-13 -7.72062e-12 -1.00687e-11)
(1.46378e-13 -6.56253e-12 -1.00218e-11)
(-3.93843e-13 -8.5571e-12 -1.12133e-11)
(-5.46128e-13 -7.74479e-12 -1.35908e-11)
(-6.82862e-13 -7.40639e-12 -1.22641e-11)
(-8.10317e-13 -8.81728e-12 -1.15062e-11)
(-6.35636e-13 -7.55128e-12 -1.08665e-11)
(-1.3003e-12 -8.07007e-12 -9.02145e-12)
(-9.42084e-13 -7.5171e-12 -8.00843e-12)
(6.70415e-13 -6.17124e-12 -7.70764e-12)
(9.50702e-13 -8.14984e-12 -4.94665e-12)
(9.31008e-13 -7.96649e-12 -3.14772e-12)
(-3.11275e-13 -9.0715e-12 -3.08983e-12)
(-3.34835e-14 -8.71709e-12 -3.96859e-12)
(6.73763e-13 -9.42027e-12 -4.22793e-12)
(1.0742e-12 -7.94348e-12 -1.4679e-12)
(2.5369e-13 -6.67601e-12 3.36885e-12)
(-3.63257e-13 -7.17363e-12 9.65321e-13)
(-7.17237e-14 -8.13747e-12 -2.26481e-13)
(-6.21075e-14 -7.53548e-12 -8.53841e-13)
(5.10604e-13 -7.23608e-12 -1.71629e-12)
(-1.16839e-12 -7.549e-12 -2.49821e-12)
(-3.25395e-13 -6.96144e-12 -2.23923e-12)
(2.85778e-12 -6.66637e-12 -1.91604e-12)
(2.00489e-12 -6.99912e-12 1.06855e-12)
(4.21838e-13 -5.26456e-12 5.57137e-12)
(4.74234e-13 -8.10537e-12 9.10778e-12)
(1.6213e-13 -6.44498e-12 1.24199e-11)
(1.41225e-12 -8.59343e-12 1.49419e-11)
(2.37916e-12 -1.33944e-11 2.49536e-12)
(2.76667e-12 -1.28918e-11 3.19429e-12)
(3.62336e-12 -1.21695e-11 2.15367e-12)
(2.82937e-12 -1.2565e-11 1.48517e-12)
(1.88436e-12 -1.11801e-11 9.44711e-13)
(8.22617e-13 -1.16845e-11 -1.79191e-12)
(-2.04519e-12 -9.50082e-12 -3.88253e-12)
(-3.46841e-12 -1.10283e-11 -8.96004e-12)
(-3.16047e-12 -9.73187e-12 -1.17331e-11)
(-5.19097e-12 -8.43191e-12 -1.23449e-11)
(-2.85614e-12 -8.34569e-12 -1.104e-11)
(-1.83889e-13 -8.25606e-12 -1.17107e-11)
(-3.24274e-12 -8.89761e-12 -1.13049e-11)
(-4.12207e-12 -1.04425e-11 -1.02217e-11)
(3.29572e-13 -1.08815e-11 -9.66686e-12)
(8.72153e-13 -1.08339e-11 -7.24217e-12)
(1.32094e-12 -1.0332e-11 -8.73283e-12)
(7.99055e-13 -8.15199e-12 -8.29907e-12)
(-1.22448e-12 -7.87339e-12 -4.93499e-12)
(6.12939e-13 -7.82802e-12 -5.30881e-12)
(2.6963e-12 -7.17599e-12 -5.26159e-12)
(-6.38688e-13 -9.10813e-12 -4.65515e-12)
(-2.56079e-12 -8.73869e-12 -2.78003e-12)
(-5.91479e-13 -8.56354e-12 -4.67548e-12)
(-9.34177e-13 -9.42401e-12 -3.5807e-12)
(-1.76419e-12 -1.0157e-11 6.72128e-13)
(7.55767e-13 -1.08983e-11 4.02103e-12)
(-1.16555e-12 -9.28675e-12 7.61198e-12)
(2.9006e-13 -1.1372e-11 1.14857e-11)
(5.83047e-13 -1.11397e-11 1.56633e-11)
(1.00359e-12 -8.96609e-12 1.67788e-11)
(1.65963e-12 -8.4615e-12 1.57334e-11)
(1.77822e-12 -9.44998e-12 1.53903e-11)
(3.96956e-12 -8.68905e-12 1.31064e-11)
(3.97098e-12 -8.32841e-12 6.62831e-12)
(3.41816e-12 -9.10196e-12 1.78679e-12)
(5.4551e-12 -9.21056e-12 6.70196e-13)
(4.12626e-12 -9.67039e-12 1.76947e-12)
(2.96212e-12 -1.08433e-11 1.45629e-12)
(2.20761e-12 -1.03134e-11 -3.5133e-13)
(2.99599e-13 -1.10017e-11 -2.36146e-12)
(1.72706e-12 -1.15969e-11 -4.77153e-12)
(2.64673e-12 -1.15959e-11 -3.86414e-12)
(5.04189e-13 -1.22485e-11 -2.39062e-12)
(-2.06563e-12 -1.25109e-11 -2.20086e-12)
(7.91736e-14 -1.18377e-11 -1.55343e-12)
(2.00961e-12 -1.17851e-11 -1.5004e-12)
(4.44107e-13 -1.16515e-11 -1.59259e-12)
(5.75167e-14 -1.07099e-11 -1.43116e-12)
(-9.99874e-13 -1.07022e-11 -2.13299e-12)
(-1.80852e-12 -1.01192e-11 -1.20527e-12)
(-1.16433e-12 -9.57991e-12 -4.79527e-13)
(-2.97301e-12 -9.18552e-12 3.26129e-13)
(-2.19693e-12 -1.02561e-11 1.07693e-12)
(5.11558e-14 -8.88044e-12 1.20304e-12)
(-8.52658e-13 -7.55108e-12 -1.02126e-12)
(-4.23313e-12 -9.59424e-12 -4.86826e-12)
(-2.17873e-12 -9.71958e-12 -7.55918e-12)
(-1.78519e-13 -1.09208e-11 -8.74257e-12)
(-1.21968e-12 -1.22394e-11 -7.83792e-12)
(-2.52137e-12 -1.18434e-11 -7.43698e-12)
(-2.01609e-12 -1.13838e-11 -6.99145e-12)
(-1.35052e-12 -1.06965e-11 -6.12191e-12)
(-3.15246e-12 -9.25568e-12 -5.29325e-12)
(-1.70325e-12 -8.18326e-12 -1.70631e-12)
(4.59607e-13 -9.60367e-12 6.06575e-13)
(-4.06577e-13 -1.10361e-11 -1.018e-12)
(-2.49043e-12 -1.02483e-11 -1.5667e-12)
(-1.47807e-12 -1.0188e-11 -8.49054e-12)
(2.58225e-12 -9.90083e-12 -1.22216e-11)
(8.77627e-13 -9.20334e-12 -1.25507e-11)
(9.79044e-13 -8.17074e-12 -1.14298e-11)
(9.15666e-13 -1.07098e-11 -1.22811e-11)
(-2.8636e-12 -1.14317e-11 -1.40274e-11)
(1.3597e-13 -1.04355e-11 -1.24997e-11)
(6.98325e-13 -1.02635e-11 -1.09383e-11)
(-9.26852e-13 -1.03819e-11 -9.8535e-12)
(-1.31357e-12 -1.01591e-11 -7.95432e-12)
(-2.35519e-12 -8.69459e-12 -9.43525e-12)
(1.14489e-12 -9.77516e-12 -8.54825e-12)
(1.94966e-12 -9.30189e-12 -5.6995e-12)
(6.44372e-13 -1.08913e-11 -2.57819e-12)
(-1.12092e-12 -1.14853e-11 -2.53019e-12)
(-1.00532e-12 -1.2348e-11 -3.70027e-12)
(-8.34987e-14 -1.1717e-11 -3.88437e-12)
(-1.08336e-12 -1.20282e-11 -3.20646e-12)
(1.10794e-13 -1.00016e-11 -2.10136e-12)
(1.42874e-12 -1.08808e-11 -2.36577e-12)
(1.02861e-12 -1.0345e-11 -2.62694e-12)
(6.25766e-13 -1.10434e-11 -2.12155e-12)
(1.06387e-12 -8.89829e-12 -4.01178e-12)
(-5.50897e-13 -8.47975e-12 -4.81423e-12)
(-1.39639e-12 -1.00026e-11 -4.20752e-12)
(9.17741e-13 -1.08671e-11 -4.19056e-12)
(8.21187e-13 -8.5322e-12 1.69009e-13)
(2.26752e-12 -8.27999e-12 5.9306e-12)
(1.51861e-12 -1.05719e-11 8.06163e-12)
(1.73682e-12 -9.70783e-12 1.22667e-11)
(2.42848e-12 -5.90822e-12 1.39784e-12)
(2.76184e-12 -6.84411e-12 2.13745e-12)
(3.28811e-12 -5.63684e-12 -4.96585e-13)
(1.32504e-12 -4.64297e-12 -3.03747e-12)
(6.15899e-13 -2.55179e-12 -3.94543e-12)
(-7.00439e-14 -3.14532e-12 -4.92368e-12)
(-1.62922e-12 -2.33613e-12 -5.06863e-12)
(-3.02754e-12 -1.86732e-12 -8.4482e-12)
(-4.20031e-12 -1.59474e-12 -1.07508e-11)
(-4.85201e-12 -1.08648e-12 -1.21291e-11)
(-3.00375e-12 -2.47136e-12 -1.09104e-11)
(-7.41137e-13 -2.53521e-12 -1.17329e-11)
(-1.97011e-12 -2.3851e-12 -1.14518e-11)
(-2.35689e-12 -4.90597e-12 -1.04243e-11)
(-3.16809e-15 -5.59595e-12 -1.03069e-11)
(1.10953e-13 -5.66005e-12 -9.32748e-12)
(4.52242e-13 -4.57784e-12 -9.50872e-12)
(-1.26149e-13 -2.51884e-12 -8.06541e-12)
(-9.55322e-13 -2.07298e-12 -5.01454e-12)
(6.54665e-13 -3.12461e-12 -4.27987e-12)
(1.55964e-12 -1.81954e-12 -3.83191e-12)
(-5.33321e-13 -1.36036e-12 -2.9791e-12)
(-1.77936e-12 -1.76216e-12 -1.17643e-12)
(-9.48165e-15 -2.77445e-12 -3.44351e-12)
(-2.24666e-13 -2.54682e-12 -2.9605e-12)
(-1.49887e-12 -4.33141e-12 -5.68275e-13)
(-1.35461e-12 -5.34656e-12 3.51025e-12)
(-4.02117e-13 -3.26851e-12 8.05028e-12)
(1.78714e-12 -6.0237e-12 1.21651e-11)
(2.0296e-13 -4.72105e-12 1.58591e-11)
(5.72497e-14 -5.32605e-12 1.70878e-11)
(2.26984e-12 -3.98378e-12 1.54004e-11)
(2.90569e-12 -4.94066e-12 1.5027e-11)
(2.29781e-12 -3.48544e-12 1.32119e-11)
(3.60059e-12 -2.62149e-12 9.75515e-12)
(4.33285e-12 -2.96298e-12 6.34229e-12)
(4.90528e-12 -4.88261e-12 3.09839e-12)
(4.55271e-12 -3.82317e-12 3.16942e-12)
(2.56691e-12 -6.03421e-12 1.73387e-12)
(1.94131e-12 -5.69986e-12 -6.25153e-13)
(1.56231e-12 -8.29241e-12 -2.75731e-12)
(1.54015e-12 -8.08327e-12 -3.97928e-12)
(1.53137e-12 -8.26282e-12 -3.67431e-12)
(1.00671e-12 -7.02855e-12 -2.74052e-12)
(-3.26524e-13 -7.57898e-12 -2.04483e-12)
(-1.97676e-13 -7.87041e-12 -1.82814e-12)
(3.92649e-13 -6.44706e-12 -1.76425e-12)
(1.49652e-13 -3.95327e-12 -1.33586e-12)
(3.81112e-13 -4.20713e-12 -1.23756e-12)
(-1.06187e-12 -3.82272e-12 -1.32454e-12)
(-2.22827e-12 -4.96912e-12 -1.43347e-12)
(-1.74246e-12 -4.65348e-12 -1.71908e-12)
(-1.9476e-12 -4.21072e-12 -6.55524e-13)
(-2.06205e-12 -5.72394e-12 1.17723e-12)
(-1.42545e-12 -4.92384e-12 1.92557e-12)
(1.9482e-15 -3.59697e-12 5.46572e-13)
(-2.42032e-12 -4.69148e-12 -3.53198e-12)
(-1.98072e-12 -5.0335e-12 -7.53281e-12)
(3.20628e-13 -5.84196e-12 -7.44938e-12)
(-1.62096e-12 -6.08215e-12 -7.2023e-12)
(-2.97389e-12 -6.94886e-12 -6.94078e-12)
(-2.34073e-12 -6.57808e-12 -6.89024e-12)
(-2.48619e-12 -5.7876e-12 -6.1903e-12)
(-4.08619e-12 -4.76944e-12 -5.10932e-12)
(-1.83386e-12 -5.12371e-12 -2.38526e-12)
(9.31002e-13 -4.38676e-12 -9.98519e-13)
(2.63473e-13 -4.92887e-12 -2.77052e-12)
(-2.02722e-12 -3.96344e-12 -5.86604e-12)
(-9.20978e-13 -5.01906e-12 -1.11931e-11)
(6.88734e-13 -5.23839e-12 -1.26968e-11)
(-3.75346e-13 -4.13399e-12 -1.29395e-11)
(1.2953e-12 -4.72656e-12 -1.26756e-11)
(1.54777e-12 -4.66208e-12 -1.24637e-11)
(-1.50753e-12 -6.00221e-12 -1.28938e-11)
(-1.05979e-12 -7.74277e-12 -1.19458e-11)
(-5.28478e-13 -4.89045e-12 -1.1829e-11)
(-6.81435e-13 -5.30861e-12 -1.0747e-11)
(-2.00966e-12 -4.94914e-12 -1.08091e-11)
(-1.86466e-12 -5.53327e-12 -1.21581e-11)
(1.40581e-12 -4.76624e-12 -9.41261e-12)
(2.02911e-12 -3.08239e-12 -6.30484e-12)
(1.13987e-12 -5.71596e-12 -4.73816e-12)
(-7.48749e-13 -6.4526e-12 -4.38882e-12)
(-6.12017e-13 -8.45689e-12 -4.38466e-12)
(3.75311e-13 -8.46024e-12 -6.64873e-12)
(-1.61353e-13 -8.49638e-12 -5.84818e-12)
(-4.87467e-13 -7.69633e-12 -6.106e-12)
(2.82186e-13 -7.52313e-12 -5.62798e-12)
(3.64117e-13 -6.0309e-12 -5.08589e-12)
(2.89185e-13 -5.64732e-12 -5.83533e-12)
(-6.47995e-13 -4.64006e-12 -6.66334e-12)
(-5.80109e-13 -3.03133e-12 -7.32745e-12)
(5.70143e-13 -4.7486e-12 -6.37181e-12)
(1.57278e-12 -6.74102e-12 -4.26127e-12)
(-2.3407e-13 -5.97115e-12 -7.479e-13)
(1.85476e-12 -4.58452e-12 2.64012e-12)
(1.47327e-12 -4.85264e-12 6.67626e-12)
(2.72201e-13 -6.55593e-12 1.16383e-11)
(2.83296e-12 -1.26307e-12 -1.82099e-12)
(2.70696e-12 -3.05637e-12 -1.52837e-12)
(3.76206e-12 -2.72044e-12 -6.56704e-12)
(1.91178e-12 -2.98909e-12 -1.06615e-11)
(5.90596e-13 -1.5205e-12 -1.09522e-11)
(-1.44717e-12 -1.3488e-12 -1.05156e-11)
(-5.04852e-12 4.40048e-13 -8.67569e-12)
(-4.86318e-12 2.64569e-12 -9.00794e-12)
(-4.29272e-12 2.05928e-12 -8.56577e-12)
(-5.25104e-12 1.89513e-12 -1.03435e-11)
(-2.13492e-12 1.0933e-12 -1.05269e-11)
(-7.32354e-13 -7.59433e-13 -9.44141e-12)
(-2.70453e-12 1.21042e-12 -9.47179e-12)
(-1.70223e-12 1.96851e-13 -8.16303e-12)
(1.1861e-12 -1.34498e-12 -6.397e-12)
(6.34398e-13 -2.01691e-12 -4.55086e-12)
(-6.85637e-13 -1.89745e-12 -5.09426e-12)
(-1.53356e-12 -9.16618e-13 -4.66574e-12)
(-1.42841e-12 1.42226e-13 -3.07226e-12)
(5.92466e-13 2.36921e-12 -1.71835e-12)
(1.25948e-12 1.10643e-12 5.64085e-13)
(-7.85395e-13 8.18511e-13 2.30363e-12)
(-1.97804e-13 2.99098e-13 4.14194e-12)
(-4.25806e-14 -6.25095e-13 3.78939e-12)
(-6.16816e-13 -2.01271e-13 3.62589e-12)
(-6.49405e-13 -4.01615e-13 4.3656e-12)
(-1.09063e-12 2.91671e-13 5.60959e-12)
(-6.09871e-13 1.41906e-12 5.01559e-12)
(9.51349e-13 -9.63132e-13 8.72978e-12)
(-2.17024e-13 -2.37857e-12 1.51702e-11)
(1.44638e-12 -3.31665e-12 1.87555e-11)
(1.20658e-12 -2.71627e-12 1.69555e-11)
(2.1349e-12 -1.07407e-12 1.62885e-11)
(2.97379e-12 -1.5214e-12 1.63734e-11)
(3.12115e-12 2.14526e-12 1.46462e-11)
(5.14745e-12 6.77888e-13 1.16244e-11)
(4.76858e-12 -2.76868e-12 7.90003e-12)
(3.09261e-12 -5.45101e-13 5.15604e-12)
(4.38123e-12 -2.68979e-12 2.64473e-12)
(4.13038e-12 -4.85376e-12 4.49443e-13)
(9.7545e-13 -5.12084e-12 -1.94745e-13)
(5.78705e-13 -3.8023e-12 -6.15075e-13)
(4.29102e-13 -4.40593e-12 -5.64587e-13)
(-8.02207e-13 -3.4934e-12 -2.68549e-13)
(-1.51543e-12 -4.22365e-12 -1.38558e-13)
(-6.03539e-13 -4.15553e-12 -4.44087e-13)
(-6.39524e-13 -2.35072e-12 -2.10505e-12)
(-1.03367e-12 -1.5145e-12 -4.72619e-12)
(6.32425e-13 2.01547e-13 -4.72127e-12)
(5.70473e-13 -1.47116e-12 -4.3799e-12)
(-7.68085e-13 -2.42579e-12 -3.03183e-12)
(-6.15511e-13 -1.99051e-12 -2.30066e-12)
(5.60597e-13 -2.72723e-12 1.09353e-13)
(-8.76209e-13 -3.19785e-12 4.95998e-12)
(-1.1992e-12 -4.79675e-12 6.93814e-12)
(-1.58868e-12 -3.94358e-12 4.52569e-12)
(-4.0957e-12 -2.67948e-12 1.55567e-12)
(-2.05041e-12 -2.28181e-12 -1.19482e-12)
(4.03389e-13 -2.87252e-12 -2.40635e-12)
(-1.31337e-13 -2.21762e-12 -4.29224e-12)
(-2.1327e-12 -2.31419e-12 -5.9649e-12)
(-3.67884e-12 -2.66489e-12 -6.38106e-12)
(-2.59206e-12 -2.1775e-12 -6.28571e-12)
(-2.33779e-12 -3.68338e-12 -5.72204e-12)
(-7.89785e-13 -4.59793e-12 -4.91859e-12)
(5.80748e-13 -4.0212e-12 -5.56653e-12)
(-6.21519e-13 -4.61613e-12 -7.72243e-12)
(-2.31064e-12 -3.14955e-12 -1.18939e-11)
(-5.78501e-13 -1.28761e-12 -1.58429e-11)
(1.46148e-12 -1.76207e-12 -1.61606e-11)
(9.73495e-13 -1.4626e-12 -1.64082e-11)
(1.65949e-12 -4.53766e-12 -1.62716e-11)
(1.23912e-12 -3.65635e-12 -1.6006e-11)
(6.10786e-13 -3.1708e-12 -1.45103e-11)
(-8.85044e-13 -4.49203e-12 -1.31134e-11)
(-1.4579e-12 -3.10161e-12 -1.20182e-11)
(-1.1661e-13 -1.62396e-12 -1.12608e-11)
(-5.0567e-13 -1.92279e-12 -1.06401e-11)
(-1.66092e-12 -1.88667e-12 -1.04002e-11)
(-1.75337e-12 7.46603e-14 -1.00343e-11)
(1.87748e-12 -1.53066e-13 -6.25738e-12)
(3.79107e-12 -2.53175e-12 -3.82894e-12)
(1.43643e-12 -3.0396e-12 -2.97793e-12)
(1.09436e-12 -4.59103e-12 -4.68704e-12)
(6.68939e-13 -4.0973e-12 -8.58519e-12)
(-8.46198e-13 -3.72809e-12 -1.00182e-11)
(-2.74795e-13 -3.52811e-12 -1.05072e-11)
(3.41734e-13 -3.74206e-12 -1.07275e-11)
(3.94048e-13 -3.36234e-12 -1.10693e-11)
(2.56767e-13 -3.81512e-12 -1.15341e-11)
(-7.84345e-13 -2.99259e-12 -1.13494e-11)
(-1.13223e-12 -3.33292e-12 -1.14157e-11)
(5.91623e-13 -3.81489e-12 -1.07763e-11)
(2.0479e-12 -5.3658e-12 -8.44295e-12)
(-3.59387e-13 -4.1704e-12 -5.17492e-12)
(8.16292e-13 -1.82337e-13 -1.56766e-12)
(2.94751e-12 -3.3088e-12 2.91717e-12)
(1.67694e-12 -3.00725e-12 9.89546e-12)
(2.4641e-12 2.7894e-12 -3.13215e-12)
(3.69806e-12 1.99053e-12 -4.36129e-12)
(2.78277e-12 3.38553e-12 -9.1858e-12)
(1.6481e-12 4.63725e-12 -1.27028e-11)
(-3.68973e-14 5.01001e-12 -1.3001e-11)
(-2.13863e-12 4.91472e-12 -1.1983e-11)
(-5.77393e-12 5.21867e-12 -1.09925e-11)
(-5.17631e-12 4.4059e-12 -1.07579e-11)
(-4.16084e-12 5.04119e-12 -1.06054e-11)
(-4.45954e-12 4.22774e-12 -1.10078e-11)
(-1.28063e-12 3.93229e-12 -1.08606e-11)
(-1.34903e-12 5.27482e-12 -1.00843e-11)
(-3.00238e-12 4.55402e-12 -9.0531e-12)
(-1.24145e-13 4.69951e-12 -8.06448e-12)
(1.6007e-12 4.65945e-12 -5.16937e-12)
(-4.12085e-13 6.51853e-12 -3.40448e-12)
(-1.51495e-12 6.492e-12 -4.23329e-12)
(-1.51411e-12 6.19429e-12 -4.86803e-12)
(-2.50689e-12 6.2479e-12 -3.30201e-12)
(-4.62542e-13 7.73522e-12 -1.52289e-12)
(2.49738e-12 7.6359e-12 5.12099e-13)
(-8.92521e-13 7.2726e-12 3.36123e-12)
(-7.35014e-13 6.69493e-12 7.08763e-12)
(1.17348e-13 6.90846e-12 6.61546e-12)
(-4.09159e-13 6.8991e-12 5.83201e-12)
(-3.85105e-13 6.65442e-12 5.11468e-12)
(-1.98702e-12 6.97554e-12 4.24336e-12)
(-4.9495e-13 6.85329e-12 2.14866e-12)
(4.16965e-12 6.37225e-12 6.82764e-12)
(1.86807e-12 3.81446e-12 1.39784e-11)
(3.76946e-13 3.164e-12 1.83129e-11)
(6.20485e-13 2.81697e-12 1.68236e-11)
(1.79883e-12 2.41981e-12 1.63249e-11)
(7.31903e-13 2.61553e-12 1.70999e-11)
(1.81698e-12 4.72003e-12 1.51194e-11)
(8.06679e-12 3.16181e-12 1.21208e-11)
(4.26858e-12 2.9013e-12 8.66694e-12)
(3.38058e-12 3.29873e-12 4.24454e-12)
(5.63998e-12 3.04427e-12 2.05591e-12)
(3.3612e-12 2.76437e-12 6.29602e-13)
(3.79697e-13 3.08929e-12 2.48754e-14)
(6.06389e-13 3.02353e-12 -1.02051e-14)
(8.1704e-13 3.70588e-12 1.29217e-13)
(2.4313e-13 3.37699e-12 4.05974e-13)
(1.2877e-13 2.84503e-12 6.34075e-13)
(-1.14882e-12 2.73519e-12 4.11326e-13)
(-1.54719e-12 4.50126e-12 -9.86899e-13)
(-2.70059e-12 4.65192e-12 -4.2342e-12)
(2.15589e-13 5.20065e-12 -5.899e-12)
(1.61255e-12 5.06515e-12 -3.14505e-12)
(-6.05376e-13 5.74898e-12 -2.28863e-12)
(-3.82948e-13 5.33033e-12 -2.60451e-12)
(-2.08731e-13 4.01465e-12 6.50778e-13)
(-9.62588e-13 3.66638e-12 5.78511e-12)
(-7.45417e-13 2.80508e-12 9.63085e-12)
(-1.51841e-12 2.70384e-12 6.42628e-12)
(-3.05517e-12 1.77117e-12 4.42806e-12)
(-1.94707e-12 2.08212e-12 4.64207e-12)
(-2.01145e-13 2.59503e-12 6.7311e-13)
(-1.98211e-12 2.32281e-12 -3.21967e-12)
(-2.1573e-12 4.549e-12 -5.41116e-12)
(-2.46432e-12 4.04632e-12 -6.37201e-12)
(-1.61686e-12 3.6087e-12 -6.48564e-12)
(-1.07497e-12 2.00189e-12 -5.91467e-12)
(-1.2506e-12 6.77046e-13 -5.54517e-12)
(-6.67338e-14 7.1015e-13 -5.86591e-12)
(-5.88875e-13 6.76069e-13 -9.24221e-12)
(-3.62739e-12 1.70835e-12 -1.22367e-11)
(-1.39025e-12 1.51589e-12 -1.47867e-11)
(6.42863e-13 2.64626e-12 -1.66724e-11)
(2.13648e-12 2.72627e-12 -1.72243e-11)
(3.28025e-12 1.71561e-12 -1.72611e-11)
(1.13052e-12 2.87787e-12 -1.67772e-11)
(-8.50564e-14 2.87874e-12 -1.50812e-11)
(-4.25194e-13 2.8641e-12 -1.29418e-11)
(-2.39026e-12 6.09302e-13 -1.17679e-11)
(-1.18181e-12 5.66968e-13 -1.08897e-11)
(-1.30586e-12 1.8502e-12 -1.01569e-11)
(-3.19003e-12 3.74256e-12 -1.01323e-11)
(3.30749e-13 3.02791e-12 -1.077e-11)
(3.16717e-12 2.36887e-12 -4.25348e-12)
(3.85441e-12 4.57824e-12 -2.59478e-12)
(1.85791e-12 4.07766e-12 -1.48935e-12)
(4.77872e-13 2.66716e-12 -4.60627e-12)
(-1.32584e-13 2.7488e-12 -9.30726e-12)
(-1.48724e-12 2.25085e-12 -1.03317e-11)
(-1.41006e-13 2.00778e-12 -1.10902e-11)
(7.48198e-13 2.42551e-12 -1.15e-11)
(4.64593e-13 2.46169e-12 -1.1186e-11)
(-4.20049e-14 2.61233e-12 -1.22907e-11)
(-5.58015e-13 2.4491e-12 -1.15801e-11)
(-4.10501e-13 1.17441e-12 -1.16374e-11)
(1.2349e-12 3.48654e-13 -1.17021e-11)
(1.50064e-12 -4.42282e-13 -9.44273e-12)
(-3.24933e-12 4.32058e-13 -7.25555e-12)
(5.03139e-14 2.39284e-12 -3.70177e-12)
(3.92393e-12 2.94629e-12 1.91576e-12)
(3.99882e-13 4.17777e-12 8.8183e-12)
(2.81046e-12 1.98885e-12 -3.59978e-13)
(2.14209e-12 3.30197e-12 -5.42124e-12)
(3.03237e-13 4.13477e-12 -1.26862e-11)
(2.13119e-13 6.09884e-12 -1.57459e-11)
(4.889e-13 5.98047e-12 -1.48825e-11)
(-4.90341e-13 6.54347e-12 -1.33341e-11)
(-2.60626e-12 4.58867e-12 -1.2163e-11)
(-3.6027e-12 1.52128e-12 -1.14961e-11)
(-4.26548e-12 2.37137e-12 -1.13679e-11)
(-4.64013e-12 2.96278e-12 -1.12316e-11)
(-3.3212e-12 3.29762e-12 -1.08718e-11)
(-1.27576e-12 5.94351e-12 -9.67656e-12)
(-1.40455e-12 4.7923e-12 -7.5557e-12)
(-1.37198e-12 4.54494e-12 -7.77934e-12)
(-1.64951e-12 5.85845e-12 -6.16158e-12)
(-2.41665e-12 8.05879e-12 -4.95922e-12)
(-1.43598e-12 7.62727e-12 -4.55666e-12)
(-1.18999e-12 7.60639e-12 -3.10743e-12)
(-7.58192e-13 6.98019e-12 -2.91415e-12)
(2.9247e-14 5.17767e-12 -2.2151e-12)
(2.48471e-13 7.34237e-12 -5.24638e-14)
(9.59625e-14 8.57821e-12 3.64028e-12)
(-6.50369e-13 6.49207e-12 5.82049e-12)
(-2.86078e-13 6.75694e-12 6.20277e-12)
(2.50939e-14 5.92563e-12 7.36744e-12)
(-5.47423e-13 6.15483e-12 6.8712e-12)
(7.13033e-15 6.62661e-12 4.96644e-12)
(6.23597e-13 4.50424e-12 3.53412e-12)
(2.92345e-12 6.58231e-12 5.55886e-12)
(3.9515e-12 6.10793e-12 9.82939e-12)
(1.63186e-12 4.59308e-12 1.30324e-11)
(2.2683e-12 2.28376e-12 1.45395e-11)
(3.14716e-12 1.80889e-12 1.45405e-11)
(1.85525e-12 3.00303e-12 1.49764e-11)
(2.80397e-12 1.34628e-12 1.38473e-11)
(5.08374e-12 1.12619e-12 1.2406e-11)
(3.19227e-12 3.58585e-12 8.68389e-12)
(1.45328e-12 1.78263e-12 4.23963e-12)
(2.58516e-12 3.2609e-12 1.92136e-12)
(2.59464e-12 3.58651e-12 1.16016e-12)
(1.52705e-12 3.72947e-12 9.33736e-13)
(1.5875e-13 3.29333e-12 1.81369e-12)
(4.56039e-14 5.07926e-12 1.95119e-12)
(2.97489e-13 4.07366e-12 2.25391e-12)