/*--------------------------------*- C++ -*----------------------------------*\
| =========                 |                                                 |
| \\      /  F ield         | OpenFOAM: The Open Source CFD Toolbox           |
|  \\    /   O peration     | Version:  2406                                  |
|   \\  /    A nd           | Website:  www.openfoam.com                      |
|    \\/     M anipulation  |                                                 |
\*---------------------------------------------------------------------------*/
FoamFile
{
    version     2.0;
    format      ascii;
    arch        "LSB;label=32;scalar=64";
    class       volVectorField;
    location    "0.055";
    object      U;
}
// * * * * * * * * * * * * * * * * * * * * * * * * * * * * * * * * * * * * * //

dimensions      [0 1 -1 0 0 0 0];

internalField   nonuniform List<vector> 
13946
(
(-1.77514e-12 9.86759e-12 3.47515e-12)
(-3.46744e-12 1.06141e-11 4.00202e-12)
(-2.71636e-12 1.21125e-11 3.5833e-12)
(-2.18353e-12 1.16265e-11 6.43378e-12)
(-2.1949e-12 1.28033e-11 5.72974e-12)
(-9.96763e-13 1.21263e-11 3.59181e-12)
(2.4703e-12 1.59769e-11 6.66563e-13)
(6.82384e-12 1.30418e-11 -3.92503e-12)
(5.65903e-12 1.22069e-11 -1.3556e-11)
(-1.45851e-12 8.81403e-12 -2.08331e-11)
(-3.82038e-12 1.14344e-11 -2.81772e-11)
(-1.77745e-12 1.2447e-11 -3.17698e-11)
(-3.26366e-12 1.2389e-11 -3.28596e-11)
(-3.92113e-12 1.21752e-11 -3.33626e-11)
(-1.36459e-12 1.25152e-11 -3.001e-11)
(2.21814e-12 1.20218e-11 -2.57461e-11)
(-1.82061e-14 8.15957e-12 -1.98892e-11)
(3.89052e-13 7.76054e-12 -1.3242e-11)
(1.62029e-12 7.49584e-12 -9.81045e-12)
(3.67145e-12 7.5821e-12 -9.4919e-12)
(1.96613e-12 7.59122e-12 -1.08446e-11)
(-3.66125e-13 8.68673e-12 -1.25983e-11)
(7.69232e-13 8.64764e-12 -1.44821e-11)
(1.5546e-12 9.99646e-12 -1.65953e-11)
(1.68013e-12 1.21491e-11 -1.74954e-11)
(2.76408e-12 9.49648e-12 -1.18906e-11)
(-3.18763e-13 9.58441e-12 -2.07524e-12)
(-1.52666e-12 9.05066e-12 -3.96458e-12)
(-5.25214e-13 8.7137e-12 -7.55772e-12)
(-3.27808e-12 8.95175e-12 -9.68705e-12)
(-4.32834e-12 1.04121e-11 -8.42768e-12)
(-2.57692e-12 9.12067e-12 -4.43056e-12)
(-3.78211e-12 7.21942e-12 2.35666e-12)
(-3.4194e-12 9.17478e-12 9.19044e-12)
(-1.23709e-12 8.02506e-12 1.19869e-11)
(-4.93311e-14 8.86249e-12 4.48878e-12)
(6.08835e-13 8.02552e-12 -6.76163e-12)
(-1.1541e-12 6.79331e-12 -7.30035e-12)
(-1.71397e-12 7.79172e-12 -7.00266e-12)
(-3.33649e-14 1.18567e-11 -6.84917e-12)
(-9.22392e-13 1.30655e-11 -5.43536e-12)
(-1.48036e-13 1.17434e-11 -1.32396e-11)
(2.64487e-12 1.22695e-11 -1.13654e-11)
(2.42272e-12 1.12797e-11 -5.02494e-12)
(4.21286e-12 1.30013e-11 7.46383e-12)
(4.69686e-12 1.18311e-11 1.8085e-11)
(1.65159e-12 1.15803e-11 1.83932e-11)
(1.54259e-12 9.99184e-12 1.12095e-11)
(3.23265e-12 1.24195e-11 4.56365e-12)
(5.63123e-12 1.2784e-11 -2.40507e-12)
(8.32493e-12 1.02519e-11 -1.15333e-11)
(5.09349e-12 9.70268e-12 -1.96749e-11)
(3.32735e-12 1.01538e-11 -1.88689e-11)
(1.77825e-12 1.07796e-11 -1.94146e-11)
(-3.5248e-13 9.26686e-12 -1.54465e-11)
(1.08175e-12 7.077e-12 -1.16036e-11)
(3.27092e-12 7.37778e-12 -9.48609e-12)
(2.69085e-12 8.08148e-12 -6.72988e-12)
(2.998e-12 8.77608e-12 -6.64541e-12)
(2.05567e-12 7.87787e-12 -3.54454e-12)
(9.85924e-13 7.45031e-12 -6.39221e-12)
(-6.79312e-13 7.56317e-12 -5.51554e-12)
(-1.15857e-12 9.97405e-12 -7.33999e-12)
(-4.85215e-13 1.15373e-11 -5.44088e-12)
(-1.7723e-12 1.23926e-11 -7.62176e-12)
(-9.7819e-13 9.95085e-12 -6.09648e-12)
(-9.00613e-13 7.85821e-12 -3.19216e-12)
(-2.3675e-12 4.97594e-12 -3.47834e-12)
(-2.99707e-12 6.05994e-12 -3.60565e-12)
(-1.64249e-12 5.11401e-12 -4.45526e-12)
(-2.89915e-12 5.32737e-12 -5.17435e-12)
(-3.89158e-12 4.01187e-12 -6.20187e-12)
(-4.95701e-12 3.35244e-12 -4.0728e-12)
(-5.54075e-12 3.10119e-12 -4.08561e-12)
(-2.61722e-12 4.74438e-12 -4.60503e-12)
(-1.1841e-12 1.80596e-12 -6.08174e-12)
(-2.62231e-12 1.92046e-12 -6.42761e-12)
(-2.97487e-12 3.21775e-12 -2.09309e-12)
(-2.72667e-12 3.28815e-12 3.86059e-12)
(-4.57888e-12 3.95183e-12 6.17672e-12)
(-2.06281e-12 3.43277e-12 -8.85149e-13)
(-1.9491e-12 6.7991e-12 -7.24629e-12)
(-3.97639e-12 5.33274e-12 -1.04632e-11)
(-1.91054e-12 6.38477e-12 -1.15086e-11)
(1.13465e-12 4.50926e-12 -1.319e-11)
(2.86641e-12 5.71428e-12 -1.71549e-11)
(1.80537e-12 2.64605e-12 -2.14786e-11)
(2.39263e-13 1.48819e-12 -1.6668e-11)
(7.52871e-14 5.41764e-12 -8.08509e-12)
(-1.47124e-14 3.86922e-12 3.37807e-13)
(2.43311e-12 4.54597e-12 3.47872e-12)
(4.50981e-12 4.42443e-12 3.58693e-12)
(-1.29736e-12 1.22017e-11 7.58396e-12)
(-4.2508e-12 9.09065e-12 5.42369e-12)
(-3.23705e-12 1.02702e-11 5.51876e-12)
(-2.9334e-12 9.70881e-12 8.18391e-12)
(-2.25171e-12 1.11833e-11 6.58476e-12)
(-3.17969e-13 8.86958e-12 3.79771e-12)
(2.49925e-12 1.14172e-11 -8.60061e-14)
(7.93932e-12 9.49551e-12 -4.51012e-12)
(6.45058e-12 1.12624e-11 -1.53592e-11)
(-1.11562e-12 9.3423e-12 -2.49074e-11)
(-4.27514e-12 6.82561e-12 -3.24829e-11)
(-3.26918e-12 7.62542e-12 -3.41922e-11)
(-3.65992e-12 9.41829e-12 -3.23401e-11)
(-3.71956e-12 9.25252e-12 -3.27791e-11)
(-1.84733e-12 8.92142e-12 -2.97626e-11)
(1.9565e-12 1.13712e-11 -2.73465e-11)
(1.19149e-12 1.0541e-11 -2.01402e-11)
(1.76356e-12 8.34174e-12 -1.24638e-11)
(2.3878e-12 5.47582e-12 -1.00707e-11)
(2.98198e-12 6.76555e-12 -1.01666e-11)
(2.31054e-12 8.08128e-12 -1.13027e-11)
(4.06808e-13 7.28492e-12 -1.30779e-11)
(1.16251e-12 6.31063e-12 -1.5676e-11)
(7.77609e-14 8.6658e-12 -1.84015e-11)
(8.47224e-13 9.28195e-12 -2.08887e-11)
(3.2036e-12 8.58256e-12 -1.69049e-11)
(5.13211e-13 1.21667e-11 -6.66509e-12)
(-8.30259e-13 8.85316e-12 -3.47452e-12)
(-2.02011e-12 1.14725e-11 -8.50639e-12)
(-3.28311e-12 1.39381e-11 -1.19419e-11)
(-2.13469e-12 1.04662e-11 -9.89586e-12)
(-1.66065e-12 8.19125e-12 -5.12938e-12)
(-5.04948e-12 6.97389e-12 1.99991e-12)
(-3.93782e-12 1.00671e-11 1.10392e-11)
(-1.44372e-12 8.35822e-12 1.5736e-11)
(-1.65954e-14 9.81993e-12 9.37525e-12)
(5.75737e-13 8.30216e-12 -3.46044e-12)
(-3.27788e-13 1.04886e-11 -8.41453e-12)
(-2.95349e-12 9.0543e-12 -8.46953e-12)
(-3.25245e-12 1.12932e-11 -7.91985e-12)
(-6.41614e-13 1.28306e-11 -8.75241e-12)
(1.56296e-12 1.08923e-11 -1.43071e-11)
(3.96881e-12 1.04758e-11 -1.19059e-11)
(2.44837e-12 7.89652e-12 -6.34163e-12)
(2.03518e-12 1.14955e-11 3.91754e-12)
(4.25791e-12 1.6087e-11 1.30576e-11)
(4.10129e-12 1.59567e-11 1.26465e-11)
(3.12402e-12 1.30558e-11 8.79716e-12)
(2.83207e-12 1.52991e-11 4.80231e-12)
(5.5851e-12 1.43005e-11 -6.96001e-13)
(8.48764e-12 1.13931e-11 -9.93429e-12)
(5.72848e-12 1.08324e-11 -1.75424e-11)
(1.99739e-12 9.16496e-12 -1.92917e-11)
(2.51671e-12 9.66804e-12 -2.11745e-11)
(1.69077e-12 7.95399e-12 -1.60971e-11)
(1.70034e-12 5.68169e-12 -1.3614e-11)
(2.58237e-12 5.09278e-12 -1.07785e-11)
(2.39755e-12 7.51958e-12 -8.63593e-12)
(2.59585e-12 6.00418e-12 -7.80976e-12)
(3.24952e-12 7.16242e-12 -7.06288e-12)
(1.49593e-12 7.58109e-12 -8.47996e-12)
(-2.08934e-12 7.59401e-12 -8.41189e-12)
(-3.79632e-12 7.76757e-12 -8.9985e-12)
(-2.69572e-12 1.3497e-11 -7.91129e-12)
(3.34066e-13 1.28349e-11 -9.73058e-12)
(2.85264e-13 9.73584e-12 -6.07831e-12)
(4.69791e-13 8.23402e-12 -9.73507e-13)
(-1.85734e-12 5.58409e-12 -2.35347e-12)
(-3.4464e-12 4.96198e-12 -3.1342e-12)
(-1.70881e-12 4.12741e-12 -4.69498e-12)
(-2.55417e-12 5.90904e-12 -6.52995e-12)
(-3.69322e-12 6.2471e-12 -5.35074e-12)
(-4.15662e-12 7.05222e-12 -2.19526e-12)
(-5.29454e-12 2.79225e-12 -4.40551e-12)
(-2.5363e-12 4.81523e-12 -7.36677e-12)
(-1.51741e-12 3.73387e-12 -6.89661e-12)
(-4.48696e-12 5.50273e-12 -5.81814e-12)
(-3.6008e-12 3.63467e-12 -1.47984e-12)
(-4.12097e-12 5.92833e-12 4.20818e-12)
(-4.36016e-12 6.02431e-12 2.1264e-12)
(-2.11795e-12 8.62038e-12 -4.89061e-12)
(-1.53434e-12 9.7439e-12 -9.05882e-12)
(-3.20541e-12 8.22755e-12 -1.18028e-11)
(-1.04923e-12 3.86652e-12 -1.3107e-11)
(1.45209e-12 3.91396e-13 -1.4897e-11)
(3.0175e-12 2.16046e-12 -1.76612e-11)
(3.29754e-12 1.65925e-12 -1.97838e-11)
(-8.82712e-13 8.93473e-13 -1.69212e-11)
(1.91053e-13 5.13763e-12 -1.08905e-11)
(1.46295e-12 2.82218e-12 -8.18618e-13)
(1.03471e-12 4.32176e-12 -1.16121e-12)
(2.19631e-12 3.41121e-12 -1.57266e-12)
(2.43423e-13 1.47976e-11 7.97398e-12)
(-2.54073e-12 1.22812e-11 5.86566e-12)
(-2.84958e-12 1.01669e-11 5.83175e-12)
(-2.79232e-12 1.05481e-11 7.58112e-12)
(-2.14781e-12 1.20903e-11 5.19644e-12)
(-1.63542e-14 1.09656e-11 1.42509e-12)
(2.63367e-12 1.00173e-11 -2.31262e-12)
(6.53236e-12 1.15409e-11 -4.26918e-12)
(4.98456e-12 1.38743e-11 -1.3396e-11)
(1.42396e-12 1.30772e-11 -2.61936e-11)
(-1.99838e-12 8.75496e-12 -3.50566e-11)
(-3.52974e-12 8.67675e-12 -3.77998e-11)
(-4.20669e-12 1.09025e-11 -3.71907e-11)
(-3.35134e-12 1.09845e-11 -3.42001e-11)
(-3.04643e-12 1.0232e-11 -2.84891e-11)
(-1.357e-13 1.0882e-11 -2.35517e-11)
(1.58044e-12 9.37864e-12 -1.6951e-11)
(3.25145e-12 6.80797e-12 -1.18122e-11)
(2.45601e-12 7.09765e-12 -9.2785e-12)
(2.08355e-12 8.14062e-12 -1.04288e-11)
(2.18495e-12 9.91588e-12 -1.15843e-11)
(7.22024e-13 1.02885e-11 -1.41606e-11)
(4.33369e-13 9.26473e-12 -1.66741e-11)
(6.70296e-13 1.00308e-11 -1.96361e-11)
(2.81315e-12 9.78963e-12 -1.70578e-11)
(5.84406e-13 9.87072e-12 -1.36346e-11)
(-1.22981e-13 1.14821e-11 -9.57757e-12)
(-1.09502e-12 1.1781e-11 -8.2805e-12)
(-3.95232e-12 1.32771e-11 -1.13475e-11)
(-2.20863e-12 1.43898e-11 -1.4701e-11)
(-9.26119e-14 1.46651e-11 -1.08354e-11)
(-1.2646e-12 1.27647e-11 -5.73316e-12)
(-5.50004e-12 1.10608e-11 -5.26378e-13)
(-3.83562e-12 1.14884e-11 6.73332e-12)
(-1.33812e-12 8.41923e-12 1.60513e-11)
(-9.05191e-13 7.88721e-12 9.13821e-12)
(-3.38934e-13 8.807e-12 -3.04752e-12)
(-5.30028e-13 1.2882e-11 -9.45837e-12)
(-2.3805e-12 1.15813e-11 -9.19214e-12)
(-3.26858e-12 8.87021e-12 -9.46978e-12)
(-2.01084e-13 8.04304e-12 -9.20463e-12)
(1.81052e-12 8.8932e-12 -1.14756e-11)
(3.59891e-12 8.67716e-12 -1.03742e-11)
(2.18125e-12 8.10354e-12 -6.3196e-12)
(-7.04607e-13 8.68566e-12 -6.06279e-13)
(2.08736e-12 1.3369e-11 3.38111e-12)
(4.40844e-12 1.78227e-11 6.08956e-12)
(2.92243e-12 1.77795e-11 5.49696e-12)
(2.45651e-12 1.78883e-11 2.27908e-12)
(6.88448e-12 1.60831e-11 -2.15303e-12)
(8.67469e-12 1.24674e-11 -1.01559e-11)
(6.58185e-12 1.46096e-11 -1.81287e-11)
(4.02925e-12 1.22443e-11 -2.03913e-11)
(3.07272e-12 9.57331e-12 -1.88238e-11)
(1.49028e-12 9.18864e-12 -1.667e-11)
(2.53883e-12 9.06389e-12 -1.63224e-11)
(2.13895e-12 8.14068e-12 -1.2995e-11)
(3.00739e-12 1.06815e-11 -1.06764e-11)
(3.29773e-12 8.0423e-12 -9.86678e-12)
(1.26897e-12 8.44539e-12 -9.30866e-12)
(1.33144e-12 7.58018e-12 -9.45898e-12)
(-1.31836e-12 7.77237e-12 -8.36317e-12)
(-6.17333e-12 8.42649e-12 -1.06502e-11)
(-4.95378e-12 1.11116e-11 -1.27795e-11)
(7.69271e-13 1.25394e-11 -1.04751e-11)
(7.59642e-13 1.38662e-11 -6.1881e-12)
(1.30002e-12 9.33817e-12 -2.48942e-12)
(-5.45672e-13 9.37261e-12 -3.16283e-12)
(-1.80802e-12 7.14666e-12 -3.74663e-12)
(-1.94367e-12 7.41854e-12 -4.17697e-12)
(-4.12134e-12 9.33201e-12 -6.62115e-12)
(-4.44669e-12 1.11295e-11 -6.44271e-12)
(-2.41834e-12 7.11297e-12 -4.83599e-12)
(-4.03443e-12 4.59696e-12 -5.74513e-12)
(-3.23612e-12 3.82064e-12 -6.95902e-12)
(-1.85837e-12 5.88641e-12 -6.9307e-12)
(-3.26748e-12 5.24335e-12 -6.88417e-12)
(-3.09268e-12 3.40852e-12 -2.37272e-12)
(-4.77929e-12 4.28847e-12 2.37701e-12)
(-6.64228e-12 3.85669e-12 -1.45011e-12)
(-4.30502e-12 8.43313e-12 -6.72264e-12)
(-1.03294e-12 1.00205e-11 -1.04902e-11)
(-8.6962e-13 7.19821e-12 -1.35642e-11)
(2.9684e-12 4.37621e-12 -1.53202e-11)
(2.40916e-12 3.22837e-12 -1.65489e-11)
(2.20809e-12 1.5846e-12 -1.86825e-11)
(1.83459e-12 3.14152e-12 -2.05489e-11)
(-1.62931e-12 3.42376e-12 -1.61842e-11)
(3.62506e-13 2.55653e-12 -1.06714e-11)
(6.45064e-13 2.87183e-12 -5.93001e-12)
(9.23772e-13 3.84725e-12 -5.91713e-12)
(1.98343e-12 3.54418e-12 -7.2072e-12)
(-1.14247e-12 1.29564e-11 5.17734e-12)
(-1.46124e-12 1.44013e-11 5.4651e-12)
(-1.18782e-12 1.45043e-11 5.07446e-12)
(-2.26724e-12 1.14879e-11 5.70495e-12)
(-4.08207e-12 1.2084e-11 8.48546e-12)
(-2.34583e-12 1.28016e-11 3.00239e-12)
(2.4184e-12 1.35711e-11 -7.62217e-13)
(3.02063e-12 1.22076e-11 -3.29592e-12)
(4.00548e-12 1.44982e-11 -2.22509e-12)
(4.99931e-12 1.53016e-11 -1.17919e-11)
(4.10316e-12 1.44013e-11 -2.58965e-11)
(-1.00327e-12 1.13489e-11 -3.6387e-11)
(-5.81146e-12 1.10697e-11 -4.01815e-11)
(-6.03438e-12 1.18472e-11 -4.22689e-11)
(-2.9548e-12 1.17306e-11 -3.44763e-11)
(-7.45381e-13 9.57021e-12 -2.45704e-11)
(2.88612e-12 6.71186e-12 -1.79062e-11)
(4.46305e-12 8.10731e-12 -1.30408e-11)
(2.69848e-12 6.87515e-12 -9.50758e-12)
(1.47416e-12 8.97014e-12 -7.22981e-12)
(1.30663e-12 8.33791e-12 -1.08595e-11)
(6.63773e-13 1.07042e-11 -1.1719e-11)
(5.73779e-13 1.04852e-11 -1.5746e-11)
(1.53658e-12 1.20127e-11 -1.33515e-11)
(2.20353e-13 1.21382e-11 -1.31023e-11)
(1.67965e-12 1.30893e-11 -1.08842e-11)
(2.1235e-12 1.39343e-11 -9.58864e-12)
(1.78074e-13 1.22469e-11 -9.72207e-12)
(-1.70055e-12 1.3691e-11 -1.0902e-11)
(-4.48645e-12 1.17565e-11 -1.28316e-11)
(-3.49285e-12 9.93552e-12 -1.60186e-11)
(-1.75295e-12 1.2312e-11 -1.15192e-11)
(-9.92459e-15 1.07381e-11 -6.50686e-12)
(-2.45483e-12 1.20748e-11 -3.11989e-12)
(-2.30827e-13 8.60687e-12 2.17343e-12)
(2.307e-12 8.36317e-12 1.02459e-11)
(-3.12538e-14 6.38036e-12 6.91119e-12)
(-2.79151e-12 8.11782e-12 -4.6612e-12)
(-2.22421e-12 1.07409e-11 -1.22304e-11)
(-1.3208e-12 1.11835e-11 -9.23103e-12)
(-1.29806e-12 8.94812e-12 -9.41349e-12)
(-9.04969e-13 7.43601e-12 -7.63589e-12)
(7.33721e-13 7.57796e-12 -9.37109e-12)
(3.22987e-12 8.8152e-12 -8.62076e-12)
(1.97073e-12 1.00945e-11 -6.35686e-12)
(-1.18052e-12 8.96182e-12 -2.79444e-12)
(-1.39598e-12 9.5137e-12 8.66031e-13)
(1.74842e-12 1.19191e-11 2.58543e-12)
(2.94736e-12 1.34315e-11 1.81297e-12)
(3.4443e-12 1.23823e-11 -8.6544e-13)
(7.93458e-12 1.19781e-11 -5.92034e-12)
(7.83798e-12 1.23407e-11 -1.28124e-11)
(5.89434e-12 1.30399e-11 -2.15159e-11)
(5.66623e-12 1.23177e-11 -2.33046e-11)
(4.94787e-12 1.13925e-11 -1.86577e-11)
(1.93616e-12 1.02291e-11 -1.77486e-11)
(2.53213e-12 8.37821e-12 -2.02937e-11)
(9.91871e-13 9.90241e-12 -1.52144e-11)
(2.73563e-12 8.9585e-12 -1.18004e-11)
(4.71685e-12 1.02037e-11 -1.0939e-11)
(2.84536e-12 9.69052e-12 -1.01605e-11)
(1.59531e-12 7.6678e-12 -9.44019e-12)
(-2.4537e-12 9.7633e-12 -8.33392e-12)
(-7.6222e-12 1.04868e-11 -1.08699e-11)
(-6.2052e-12 8.96479e-12 -1.43422e-11)
(-1.49511e-12 9.5539e-12 -1.04194e-11)
(2.33252e-12 1.13427e-11 -6.99055e-12)
(3.1606e-12 1.03128e-11 -5.69859e-12)
(-5.56709e-13 1.21198e-11 -3.97133e-12)
(-1.10869e-12 1.02586e-11 -5.03841e-12)
(-3.21367e-12 1.02042e-11 -5.85218e-12)
(-6.11146e-12 1.02337e-11 -8.02939e-12)
(-1.88322e-12 1.02001e-11 -6.36633e-12)
(6.76622e-13 6.35006e-12 -5.63525e-12)
(-2.6546e-12 7.3942e-12 -6.01647e-12)
(-3.00177e-12 5.07829e-12 -6.43765e-12)
(-2.55948e-12 7.81671e-12 -6.0762e-12)
(-3.32827e-12 6.48019e-12 -4.86789e-12)
(-3.3329e-12 7.03152e-12 -3.94793e-12)
(-4.85674e-12 7.16663e-12 -3.24105e-12)
(-7.63419e-12 6.75334e-12 -5.10817e-12)
(-6.06763e-12 5.76581e-12 -8.79004e-12)
(-7.17751e-13 8.45291e-12 -1.18825e-11)
(1.04714e-12 5.88324e-12 -1.48981e-11)
(2.40879e-12 6.42779e-12 -1.70342e-11)
(3.57941e-12 5.39641e-12 -1.93434e-11)
(2.79677e-12 5.05904e-12 -1.92314e-11)
(1.59032e-12 5.92167e-12 -2.0068e-11)
(-8.27972e-14 6.36348e-12 -1.5696e-11)
(1.02353e-12 3.93852e-12 -1.17537e-11)
(7.11554e-13 5.43589e-12 -9.23749e-12)
(4.83772e-13 4.41709e-12 -8.61215e-12)
(7.21749e-14 6.80476e-12 -8.43901e-12)
(-5.02884e-13 6.2455e-12 -9.56412e-12)
(-1.96021e-13 1.37789e-11 7.44075e-13)
(-1.33355e-12 1.15313e-11 3.35363e-12)
(1.15975e-13 1.08069e-11 5.67389e-12)
(-6.64972e-13 8.80982e-12 4.63576e-12)
(-3.54901e-12 8.09476e-12 3.1634e-12)
(-2.77167e-12 8.00936e-12 -5.37454e-13)
(7.58682e-13 1.10658e-11 -3.83717e-12)
(2.26867e-12 1.0891e-11 -6.74867e-12)
(3.44694e-12 1.32321e-11 -7.19714e-12)
(4.63035e-12 1.1777e-11 -1.4092e-11)
(4.77194e-12 8.99734e-12 -2.64799e-11)
(8.74196e-13 7.45713e-12 -3.43856e-11)
(-3.8952e-12 6.18414e-12 -3.71134e-11)
(-3.97721e-12 6.43595e-12 -4.00812e-11)
(-1.84432e-12 6.37263e-12 -3.12542e-11)
(-2.02159e-13 1.21972e-12 -1.88758e-11)
(-3.35849e-13 3.3865e-13 -1.07646e-11)
(1.517e-12 3.91842e-12 -8.79462e-12)
(1.5811e-12 6.65547e-12 -6.23311e-12)
(1.19493e-12 6.61705e-12 -5.70331e-12)
(1.10009e-12 6.17811e-12 -7.06198e-12)
(7.61884e-14 5.84311e-12 -8.00395e-12)
(-2.10383e-13 6.98726e-12 -8.73539e-12)
(1.78937e-13 8.71726e-12 -6.69698e-12)
(7.68746e-13 1.03629e-11 -4.70681e-12)
(7.99636e-13 8.86438e-12 -3.67022e-12)
(4.14261e-13 1.1777e-11 -5.49105e-12)
(1.09623e-12 1.17266e-11 -7.97328e-12)
(-2.86178e-13 1.02244e-11 -1.01323e-11)
(-9.9786e-13 9.26351e-12 -1.16648e-11)
(-1.83406e-12 6.43823e-12 -1.1772e-11)
(-1.80669e-12 6.86211e-12 -8.64825e-12)
(-1.10771e-12 5.15034e-12 -5.61277e-12)
(-1.97897e-12 6.3607e-12 -5.2496e-12)
(-6.5328e-13 5.01167e-12 -4.93553e-12)
(1.22276e-13 7.72739e-12 -2.96173e-12)
(-3.8289e-14 8.18843e-12 -3.72083e-12)
(-1.83542e-12 5.9185e-12 -8.72983e-12)
(-2.92346e-12 5.93569e-12 -1.30867e-11)
(-2.20262e-12 8.31489e-12 -1.29609e-11)
(-7.34831e-13 9.2014e-12 -1.11341e-11)
(2.8552e-13 8.78305e-12 -8.19061e-12)
(-1.29517e-13 7.53389e-12 -7.97157e-12)
(1.02314e-12 9.87199e-12 -8.26342e-12)
(1.75925e-12 8.07566e-12 -6.25602e-12)
(6.61854e-13 8.13632e-12 -3.34197e-12)
(9.79043e-13 7.13936e-12 -1.4167e-12)
(1.92948e-12 5.74891e-12 -1.6876e-12)
(2.73953e-12 6.05252e-12 -3.32765e-12)
(3.43862e-12 7.46781e-12 -7.08219e-12)
(6.07767e-12 7.25174e-12 -1.13375e-11)
(6.99151e-12 8.73572e-12 -1.48662e-11)
(5.97983e-12 8.10079e-12 -1.5883e-11)
(6.0025e-12 9.47338e-12 -1.66427e-11)
(4.96774e-12 8.08058e-12 -1.59023e-11)
(3.58955e-12 7.905e-12 -1.58222e-11)
(3.37674e-12 6.6258e-12 -1.71345e-11)
(2.29236e-12 6.44639e-12 -1.48562e-11)
(3.09872e-12 4.25668e-12 -1.13208e-11)
(3.39799e-12 5.8788e-12 -1.1173e-11)
(1.78268e-12 5.82861e-12 -1.03098e-11)
(6.98046e-13 8.08544e-12 -8.97415e-12)
(-2.20716e-12 8.39612e-12 -7.43812e-12)
(-5.11417e-12 6.97854e-12 -7.50375e-12)
(-4.50034e-12 4.80566e-12 -9.39963e-12)
(-2.28466e-12 4.34855e-12 -7.41505e-12)
(-2.49479e-13 6.15453e-12 -6.78453e-12)
(3.09513e-13 9.11844e-12 -7.41811e-12)
(3.93325e-13 9.79054e-12 -6.30488e-12)
(8.40409e-13 8.05981e-12 -6.38418e-12)
(-1.86381e-12 8.18897e-12 -5.33132e-12)
(-4.1277e-12 6.96673e-12 -5.87049e-12)
(-1.89094e-12 5.01512e-12 -5.46713e-12)
(-1.04024e-12 6.17626e-12 -5.17613e-12)
(-2.69846e-12 7.58172e-12 -5.65485e-12)
(-3.38325e-12 6.7046e-12 -6.37771e-12)
(-3.50031e-12 7.21558e-12 -6.04959e-12)
(-3.00613e-12 7.8669e-12 -5.60701e-12)
(-3.67311e-12 8.5045e-12 -5.73988e-12)
(-3.99542e-12 6.95424e-12 -6.519e-12)
(-5.07481e-12 7.95247e-12 -6.87253e-12)
(-4.71968e-12 5.55855e-12 -1.05238e-11)
(-2.2696e-12 5.50451e-12 -1.49516e-11)
(7.70405e-13 6.94672e-12 -1.63972e-11)
(3.55754e-12 6.18572e-12 -1.72375e-11)
(3.51069e-12 4.58055e-12 -1.75425e-11)
(1.68154e-12 5.00887e-12 -1.92328e-11)
(7.16654e-13 5.75948e-12 -1.77439e-11)
(2.98092e-13 7.69253e-12 -1.46233e-11)
(1.19482e-12 6.2435e-12 -1.23894e-11)
(1.02847e-12 6.17202e-12 -1.01925e-11)
(-2.56248e-13 5.7083e-12 -8.79624e-12)
(-2.31631e-13 5.79304e-12 -7.43429e-12)
(-4.01639e-13 5.97037e-12 -6.58674e-12)
(6.05858e-13 9.03176e-12 -2.03406e-12)
(-4.22292e-13 6.59273e-12 1.29265e-12)
(6.40437e-13 4.00951e-12 4.80118e-12)
(1.30084e-12 4.26256e-12 5.08311e-12)
(-3.21019e-12 3.52427e-12 2.09006e-12)
(-5.22082e-12 4.2427e-12 -2.86965e-12)
(5.32847e-13 5.23331e-12 -6.41519e-12)
(2.38907e-12 6.20611e-12 -9.44827e-12)
(2.98519e-12 8.39745e-12 -8.55607e-12)
(5.52331e-12 6.70984e-12 -1.43302e-11)
(5.22991e-12 1.9054e-12 -2.39928e-11)
(2.02278e-12 3.53722e-12 -3.15782e-11)
(-3.32004e-12 1.90433e-13 -3.26884e-11)
(-5.21174e-12 6.42762e-13 -3.38455e-11)
(-2.11972e-13 1.84839e-12 -2.37249e-11)
(1.53631e-12 -2.46773e-12 -1.09585e-11)
(6.25605e-13 -3.97067e-12 -7.4808e-12)
(-5.76869e-13 -1.31115e-12 -6.67217e-12)
(4.20122e-13 7.09655e-13 -4.55297e-12)
(1.25652e-12 -5.56679e-13 -4.54321e-12)
(1.67037e-12 -3.95497e-13 -5.0004e-12)
(9.06641e-14 1.7483e-13 -5.38128e-12)
(-1.4421e-12 -4.25448e-13 -5.45611e-12)
(-5.51121e-13 2.44175e-13 -3.97026e-12)
(1.01869e-12 3.33886e-12 -1.74534e-12)
(6.29634e-13 3.72944e-12 -4.44834e-13)
(-1.76824e-13 4.75564e-12 -3.97349e-12)
(1.86447e-12 4.1213e-12 -6.89795e-12)
(6.85385e-14 4.06463e-12 -8.23167e-12)
(-7.86559e-13 1.96327e-12 -8.67744e-12)
(-1.63951e-12 1.81754e-12 -8.47998e-12)
(-1.41287e-12 1.74398e-12 -6.95628e-12)
(-5.72671e-13 2.72228e-12 -5.87888e-12)
(-1.64424e-12 5.39631e-13 -5.48843e-12)
(-1.1481e-12 6.07488e-13 -6.28044e-12)
(-1.00661e-12 3.91003e-13 -6.1885e-12)
(5.1961e-13 1.20232e-12 -7.21947e-12)
(-1.71812e-12 4.33588e-13 -8.98582e-12)
(-4.73012e-12 1.7023e-12 -1.21046e-11)
(-3.07781e-12 3.27176e-12 -1.295e-11)
(-1.35714e-12 5.40433e-12 -1.12754e-11)
(-2.12695e-14 4.63e-12 -8.78162e-12)
(-3.0544e-13 5.42204e-12 -1.0312e-11)
(1.90903e-12 5.91371e-12 -8.61384e-12)
(2.48803e-12 1.78349e-12 -5.67756e-12)
(2.26185e-13 2.06773e-12 -3.1715e-12)
(1.37628e-12 2.34305e-12 -2.03968e-12)
(2.53384e-12 6.04002e-14 -2.41642e-12)
(2.00944e-12 -8.43644e-13 -4.61841e-12)
(3.50335e-12 1.16054e-12 -8.5565e-12)
(6.39242e-12 2.31846e-12 -1.0243e-11)
(7.06658e-12 3.03739e-12 -1.23738e-11)
(6.27899e-12 2.69523e-12 -1.22346e-11)
(6.28349e-12 3.01165e-12 -1.20022e-11)
(5.11243e-12 3.03674e-12 -1.26562e-11)
(3.0836e-12 1.51723e-12 -1.50385e-11)
(4.16778e-12 2.57596e-12 -1.82679e-11)
(3.74195e-12 2.77852e-13 -1.66594e-11)
(2.64348e-12 1.81359e-13 -1.35352e-11)
(3.31253e-12 1.28063e-13 -1.17501e-11)
(6.41097e-13 2.24873e-12 -9.75713e-12)
(-3.9273e-13 2.93767e-12 -7.9257e-12)
(-1.32163e-12 2.89044e-12 -6.10393e-12)
(-3.683e-12 9.46921e-13 -5.64092e-12)
(-4.55658e-12 2.60336e-13 -4.68502e-12)
(-3.04239e-12 -8.53512e-13 -4.97333e-12)
(-9.27005e-13 3.76112e-13 -5.77798e-12)
(2.46225e-13 1.70003e-12 -6.27247e-12)
(6.62738e-13 1.20356e-12 -6.49264e-12)
(7.48892e-13 1.85623e-12 -5.95414e-12)
(-2.39963e-12 1.99845e-12 -5.61871e-12)
(-3.47912e-12 6.16243e-13 -5.39015e-12)
(-9.70084e-13 -1.59387e-12 -4.99293e-12)
(-1.00688e-12 1.40551e-12 -4.58033e-12)
(-2.82555e-12 4.02865e-12 -5.2814e-12)
(-2.5449e-12 4.4679e-12 -6.95722e-12)
(-4.0913e-12 3.31513e-12 -6.90756e-12)
(-4.24367e-12 5.18771e-12 -6.08011e-12)
(-2.91805e-12 3.97866e-12 -6.06359e-12)
(-4.05075e-12 3.6654e-12 -5.29099e-12)
(-5.79532e-12 3.59212e-12 -7.97546e-12)
(-3.38554e-12 2.1555e-12 -1.22627e-11)
(-2.54523e-12 3.08994e-12 -1.61139e-11)
(3.81245e-14 5.02385e-12 -1.75309e-11)
(3.90806e-12 3.14954e-12 -1.71248e-11)
(4.98192e-12 2.69489e-12 -1.68425e-11)
(2.04089e-12 3.54262e-13 -1.70834e-11)
(-6.39267e-13 4.48305e-13 -1.5726e-11)
(6.11577e-15 2.28748e-12 -1.38096e-11)
(2.26319e-12 1.7296e-12 -1.21144e-11)
(9.28837e-13 7.30903e-13 -1.02407e-11)
(2.47256e-13 1.89602e-12 -8.37886e-12)
(-1.5171e-13 6.72783e-13 -6.87311e-12)
(-1.55847e-12 3.58617e-12 -5.60758e-12)
(4.39027e-13 1.03987e-11 -9.15549e-12)
(2.74673e-12 8.96668e-12 -3.21523e-12)
(6.2531e-13 6.35946e-12 1.82672e-12)
(-1.05061e-12 7.9518e-12 3.1727e-12)
(-3.21005e-12 7.78285e-12 1.54606e-12)
(-3.3716e-12 7.57935e-12 -4.06145e-12)
(4.53364e-13 8.14972e-12 -9.14672e-12)
(6.4527e-13 7.68669e-12 -1.17168e-11)
(2.31836e-12 8.01621e-12 -1.13259e-11)
(6.71146e-12 6.87876e-12 -1.04095e-11)
(4.71112e-12 4.65952e-12 -2.00009e-11)
(2.5848e-12 5.35523e-12 -2.62653e-11)
(-2.64501e-13 2.95563e-12 -2.48889e-11)
(-4.30996e-12 3.28865e-12 -2.27358e-11)
(2.15608e-12 -9.33853e-14 -1.51991e-11)
(5.02899e-12 9.70021e-13 -6.96388e-12)
(5.88894e-13 7.02487e-13 -4.5706e-12)
(9.19349e-14 2.97447e-12 -3.29906e-12)
(2.85558e-12 2.0209e-12 -1.87959e-12)
(2.17522e-12 1.49637e-12 -1.83835e-12)
(-1.13865e-12 2.62539e-12 -2.08643e-12)
(-3.18022e-13 4.92146e-12 -2.58631e-12)
(5.07212e-13 3.0035e-12 -2.50566e-12)
(-2.00365e-12 3.12799e-12 -2.11729e-12)
(-2.2389e-12 4.97783e-12 -1.78057e-12)
(1.4598e-13 7.50895e-12 -3.86346e-12)
(1.66403e-12 5.42146e-12 -3.26555e-12)
(5.18575e-13 3.36139e-12 -6.14734e-12)
(-7.04274e-13 2.68481e-12 -6.21595e-12)
(-5.73303e-13 1.54459e-12 -3.99387e-12)
(-2.0207e-12 3.47778e-12 -2.83771e-12)
(-2.58294e-12 1.02572e-12 -4.06746e-12)
(1.03214e-13 2.01995e-12 -4.46283e-12)
(-3.78379e-13 2.16906e-12 -2.71238e-12)
(-7.63624e-13 4.61842e-12 -4.21805e-12)
(2.09373e-13 3.93906e-12 -6.60672e-12)
(-5.36012e-13 3.10369e-12 -9.54821e-12)
(-2.95061e-12 4.69214e-12 -1.04216e-11)
(-4.35802e-12 4.5636e-12 -1.29794e-11)
(-3.19773e-12 2.94017e-12 -1.40075e-11)
(-9.74259e-13 4.04208e-12 -1.26046e-11)
(-3.72522e-13 4.67684e-12 -8.01935e-12)
(-1.99212e-12 6.54879e-12 -1.13763e-11)
(3.33389e-12 5.55368e-12 -1.01365e-11)
(4.10785e-12 4.81009e-12 -6.37084e-12)
(-3.90594e-14 5.48908e-12 -4.14794e-12)
(1.727e-12 6.82767e-12 -1.96316e-12)
(4.71578e-12 4.22498e-12 -2.59642e-12)
(2.97839e-12 1.74697e-12 -5.53904e-12)
(2.28877e-12 1.12407e-12 -9.53566e-12)
(4.51844e-12 3.16753e-12 -9.14746e-12)
(5.72941e-12 2.75248e-12 -1.12163e-11)
(5.56058e-12 3.93891e-12 -1.02614e-11)
(5.45933e-12 3.93658e-12 -7.54097e-12)
(6.54581e-12 5.95905e-12 -9.58056e-12)
(3.81259e-12 2.50405e-12 -1.34554e-11)
(3.65703e-12 1.92083e-12 -1.88025e-11)
(3.96419e-12 8.43917e-13 -1.83987e-11)
(2.59491e-12 2.89901e-12 -1.4896e-11)
(7.51353e-13 4.29217e-12 -9.83564e-12)
(8.81516e-14 8.97933e-12 -7.59981e-12)
(1.12508e-13 7.52524e-12 -5.54228e-12)
(-1.14798e-12 8.42318e-12 -3.99137e-12)
(-2.51161e-12 5.87928e-12 -2.97683e-12)
(-2.16747e-12 5.8683e-12 -1.98622e-12)
(-9.99004e-13 3.97977e-12 -2.44994e-12)
(-9.94888e-13 4.33099e-12 -2.94699e-12)
(3.08912e-15 3.98126e-12 -2.81933e-12)
(-5.8946e-13 3.84854e-12 -3.81507e-12)
(-1.6386e-12 2.93715e-12 -4.25719e-12)
(-2.10398e-12 4.04129e-12 -4.79815e-12)
(-1.25102e-12 3.39082e-12 -5.10914e-12)
(-1.56938e-12 2.51158e-12 -4.80642e-12)
(-4.70686e-12 4.17071e-12 -4.38852e-12)
(-5.65542e-12 7.81443e-12 -4.18468e-12)
(-3.24146e-12 9.54953e-12 -6.10855e-12)
(-3.69822e-12 9.90483e-12 -7.7348e-12)
(-2.42568e-12 9.86205e-12 -7.86118e-12)
(-1.95399e-12 8.02111e-12 -7.71772e-12)
(-3.0859e-12 9.91395e-12 -7.84677e-12)
(-3.31246e-12 7.43424e-12 -9.45995e-12)
(-4.6305e-12 6.19012e-12 -1.21909e-11)
(-4.56025e-12 7.57199e-12 -1.52936e-11)
(3.83835e-13 6.1803e-12 -1.72792e-11)
(4.34252e-12 7.00197e-12 -1.5511e-11)
(6.08071e-12 5.54286e-12 -1.47002e-11)
(4.36386e-12 3.04927e-12 -1.42709e-11)
(4.90985e-13 3.54971e-12 -1.36061e-11)
(3.62624e-13 4.21083e-12 -1.20758e-11)
(2.01977e-12 4.16057e-12 -1.11457e-11)
(4.22956e-13 3.15088e-12 -9.43678e-12)
(-1.48593e-12 4.39162e-12 -7.00462e-12)
(-2.11618e-12 6.85968e-12 -4.50869e-12)
(-2.82009e-12 8.86438e-12 -3.72613e-12)
(-3.79176e-13 1.45343e-11 -9.82998e-12)
(3.67458e-12 1.47743e-11 -5.11588e-12)
(7.58769e-13 1.40847e-11 -1.77236e-12)
(-1.49361e-12 1.56121e-11 -6.39126e-13)
(-2.8555e-12 1.53788e-11 -2.17572e-12)
(-4.64925e-12 1.37143e-11 -4.67691e-12)
(1.73464e-13 1.1231e-11 -7.53044e-12)
(2.5322e-12 1.16629e-11 -1.06315e-11)
(3.69469e-12 9.2406e-12 -1.07179e-11)
(7.10387e-12 1.01807e-11 -9.79772e-12)
(5.35302e-12 9.15262e-12 -1.4563e-11)
(2.36858e-12 8.89588e-12 -1.82494e-11)
(-7.09131e-13 9.97185e-12 -1.77708e-11)
(-7.72006e-13 9.1836e-12 -1.43743e-11)
(4.0606e-12 6.64116e-12 -8.14985e-12)
(1.74458e-12 8.34358e-12 -1.27848e-12)
(-7.17143e-13 8.78102e-12 -1.47322e-12)
(2.36824e-14 9.95305e-12 -1.14195e-12)
(3.06027e-12 9.7786e-12 -8.22189e-13)
(1.72262e-12 1.22878e-11 -8.38539e-13)
(-2.50439e-12 1.29565e-11 -1.02718e-12)
(-3.63531e-13 1.35565e-11 -1.45465e-12)
(1.0909e-12 1.2536e-11 -1.46576e-12)
(-2.08732e-12 1.3462e-11 -1.8911e-12)
(-3.74841e-12 1.20191e-11 -2.82914e-12)
(2.89907e-13 1.27255e-11 -5.63456e-12)
(4.14446e-12 1.08035e-11 -2.67252e-12)
(2.59492e-12 1.00265e-11 -3.73919e-12)
(-2.33141e-13 8.09382e-12 -2.98875e-12)
(-2.79325e-12 8.52175e-12 -2.13533e-12)
(-1.60778e-12 8.68835e-12 -2.14939e-12)
(-2.80767e-13 7.13473e-12 -1.80996e-12)
(-1.59013e-12 6.37391e-12 -1.43983e-12)
(-3.14449e-12 9.59592e-12 -1.55713e-12)
(-2.05268e-12 1.15329e-11 -2.78693e-12)
(1.81091e-13 1.14927e-11 -4.74866e-12)
(-6.54945e-13 1.13343e-11 -7.26924e-12)
(-3.37078e-12 1.29231e-11 -8.84821e-12)
(-3.23699e-12 1.18787e-11 -1.11349e-11)
(-1.8864e-12 9.56765e-12 -1.25153e-11)
(-1.431e-12 8.24337e-12 -1.15022e-11)
(-1.72361e-12 9.55418e-12 -9.41779e-12)
(-1.41858e-12 9.63812e-12 -1.29162e-11)
(4.08209e-12 8.6809e-12 -1.06035e-11)
(2.59488e-12 1.18819e-11 -7.65248e-12)
(-3.36314e-12 1.23333e-11 -5.54825e-12)
(2.55387e-12 1.20356e-11 -3.44283e-12)
(7.97624e-12 1.13942e-11 -2.87537e-12)
(4.7014e-12 1.06318e-11 -4.34811e-12)
(2.2637e-12 8.90711e-12 -6.10391e-12)
(4.05176e-12 9.81053e-12 -6.7455e-12)
(5.78792e-12 1.03388e-11 -7.11465e-12)
(5.04312e-12 1.13312e-11 -6.61941e-12)
(4.39531e-12 1.0878e-11 -5.25614e-12)
(6.86191e-12 1.1456e-11 -8.21696e-12)
(5.69155e-12 1.05896e-11 -1.1874e-11)
(4.83997e-12 8.16857e-12 -1.43752e-11)
(2.85356e-12 6.88623e-12 -1.43031e-11)
(-2.68832e-13 8.45027e-12 -1.08812e-11)
(-3.36604e-12 1.08992e-11 -8.08032e-12)
(-1.61511e-12 1.45939e-11 -5.68161e-12)
(3.77141e-13 1.56106e-11 -4.13856e-12)
(-3.29127e-13 1.42799e-11 -2.45723e-12)
(-1.26021e-12 1.28715e-11 -1.4397e-12)
(-1.62036e-12 1.30954e-11 -1.91474e-12)
(-4.28969e-13 1.35147e-11 -1.67599e-12)
(-6.22149e-13 1.33505e-11 -2.5344e-12)
(5.85894e-13 1.36816e-11 -3.04219e-12)
(-8.16666e-14 1.52815e-11 -3.92124e-12)
(-1.67109e-12 1.25792e-11 -4.64708e-12)
(-3.50981e-12 1.36624e-11 -5.24616e-12)
(-2.02253e-12 1.42133e-11 -5.53416e-12)
(-1.63374e-12 1.40721e-11 -5.45891e-12)
(-4.92507e-12 1.4848e-11 -5.27921e-12)
(-6.32577e-12 1.74043e-11 -5.31836e-12)
(-4.69814e-12 1.64112e-11 -6.63594e-12)
(-4.21554e-12 1.84559e-11 -8.17211e-12)
(-2.33483e-12 1.71047e-11 -8.98063e-12)
(-2.13456e-12 1.80501e-11 -9.31679e-12)
(-2.98853e-12 1.77718e-11 -9.86621e-12)
(-2.24901e-12 1.76997e-11 -1.07652e-11)
(-4.24278e-12 1.35765e-11 -1.13924e-11)
(-3.22577e-12 1.19822e-11 -1.3231e-11)
(2.83949e-13 1.02532e-11 -1.31098e-11)
(4.26874e-12 1.24999e-11 -1.28897e-11)
(8.54901e-12 1.07141e-11 -1.18676e-11)
(4.32848e-12 1.02394e-11 -1.13097e-11)
(-8.05556e-13 8.88747e-12 -1.12006e-11)
(1.20002e-12 8.98826e-12 -1.08034e-11)
(2.80909e-12 1.13625e-11 -1.08635e-11)
(-1.60759e-14 1.07206e-11 -8.75743e-12)
(-2.70179e-12 1.13019e-11 -4.69582e-12)