/*--------------------------------*- C++ -*----------------------------------*\
| =========                 |                                                 |
| \\      /  F ield         | OpenFOAM: The Open Source CFD Toolbox           |
|  \\    /   O peration     | Version:  2406                                  |
|   \\  /    A nd           | Website:  www.openfoam.com                      |
|    \\/     M anipulation  |                                                 |
\*---------------------------------------------------------------------------*/
FoamFile
{
    version     2.0;
    format      ascii;
    arch        "LSB;label=32;scalar=64";
    class       volVectorField;
    location    "0.1";
    object      U;
}
// * * * * * * * * * * * * * * * * * * * * * * * * * * * * * * * * * * * * * //

dimensions      [0 1 -1 0 0 0 0];

internalField   nonuniform List<vector> 
13962
(
(347.059 2.14697e-11 -2.89414e-11)
(347.059 1.84196e-11 -2.85652e-11)
(347.059 1.40345e-11 -3.02809e-11)
(347.059 7.07784e-12 -3.10805e-11)
(347.059 6.31678e-12 -3.28851e-11)
(347.059 7.00838e-12 -3.33304e-11)
(347.059 7.71851e-12 -3.28119e-11)
(347.059 6.86983e-12 -3.30834e-11)
(347.059 5.47876e-12 -3.32347e-11)
(347.059 -1.97638e-13 -3.3796e-11)
(347.059 7.05952e-14 -3.24686e-11)
(347.059 3.38701e-12 -3.1767e-11)
(347.059 8.35601e-12 -3.08483e-11)
(347.059 5.83924e-12 -2.99939e-11)
(347.059 8.37643e-12 -2.89217e-11)
(347.059 1.26655e-11 -2.81434e-11)
(347.059 1.516e-11 -2.78363e-11)
(347.059 1.51751e-11 -2.84683e-11)
(347.059 1.12726e-11 -2.8562e-11)
(347.059 8.16569e-12 -2.85011e-11)
(347.059 1.00808e-11 -2.87691e-11)
(347.059 1.46243e-11 -2.93574e-11)
(347.059 1.41781e-11 -2.89934e-11)
(347.059 1.17869e-11 -2.91201e-11)
(347.059 1.58223e-11 -2.93989e-11)
(347.059 1.8738e-11 -2.93984e-11)
(347.059 1.97384e-11 -2.99681e-11)
(347.059 1.50367e-11 -3.07664e-11)
(347.059 6.74623e-12 -3.13895e-11)
(347.059 -5.5832e-12 -3.02402e-11)
(347.059 -2.45094e-11 -2.93124e-11)
(347.059 -3.20979e-11 -2.7399e-11)
(347.059 -2.77696e-11 -2.80087e-11)
(347.059 -2.84831e-11 -2.89486e-11)
(347.059 -3.18581e-11 -2.97373e-11)
(347.059 -3.02462e-11 -2.98043e-11)
(347.059 -2.85993e-11 -3.05853e-11)
(347.059 -2.10802e-11 -3.10082e-11)
(347.059 -1.0842e-11 -3.11352e-11)
(347.059 -2.74334e-12 -3.35744e-11)
(347.059 2.21041e-12 -3.21137e-11)
(347.059 1.50464e-12 -3.15742e-11)
(347.059 -3.65962e-12 -3.17188e-11)
(347.059 -8.69461e-12 -3.20692e-11)
(347.059 -1.37985e-11 -3.05013e-11)
(347.059 -1.69184e-11 -3.04742e-11)
(347.059 -1.60177e-11 -3.06912e-11)
(347.059 -1.42891e-11 -3.08307e-11)
(347.059 -1.35389e-11 -3.08164e-11)
(347.059 2.71675e-11 -3.18356e-11)
(347.059 -3.74839e-10 -2.53989e-11)
(347.054 -4.5818e-09 2.72687e-10)
(346.928 3.04725e-07 -1.1533e-08)
(343.99 -4.99369e-06 1.26995e-07)
(326.645 -1.2296e-05 7.43509e-07)
(318.423 2.63321e-05 -9.26606e-07)
(318.305 1.57068e-05 -6.54792e-07)
(318.311 -3.96193e-07 -1.34928e-07)
(318.316 -7.74292e-06 1.87731e-07)
(318.319 -1.57594e-05 5.8332e-07)
(318.321 -1.79691e-05 6.79188e-07)
(318.322 -2.37656e-05 9.16471e-07)
(318.321 -1.51603e-05 7.30471e-07)
(318.321 6.0486e-06 8.50566e-08)
(318.328 1.77159e-05 -3.37619e-07)
(318.336 2.33141e-05 -6.427e-07)
(318.34 2.26219e-05 -6.78116e-07)
(318.344 1.78079e-05 -6.13972e-07)
(318.346 7.67401e-06 -3.55498e-07)
(318.344 -3.90718e-06 -3.75191e-08)
(318.336 -1.05969e-05 1.93971e-07)
(318.327 -1.38098e-05 3.6937e-07)
(318.323 -1.52942e-05 4.86475e-07)
(318.321 -1.59841e-05 5.78408e-07)
(318.319 -1.3071e-05 6.03289e-07)
(318.318 -2.61529e-06 3.6629e-07)
(318.317 8.40475e-06 2.48901e-08)
(318.321 1.26983e-05 -1.72588e-07)
(318.322 1.21406e-05 -2.27398e-07)
(318.321 1.1075e-05 -2.1928e-07)
(318.321 8.99533e-06 -1.99037e-07)
(318.322 5.01471e-06 -1.36994e-07)
(318.323 -3.25116e-06 7.99048e-08)
(318.324 -8.75649e-06 2.68405e-07)
(318.321 -9.9815e-06 3.41135e-07)
(318.318 -9.56695e-06 3.50133e-07)
(318.315 -8.59089e-06 3.2446e-07)
(318.31 -5.83897e-06 2.53077e-07)
(318.306 -1.65062e-07 1.01326e-07)
(318.303 5.39375e-06 -6.2999e-08)
(318.304 6.95332e-06 -1.23016e-07)
(318.308 6.74333e-06 -1.3265e-07)
(318.312 6.14796e-06 -1.15791e-07)
(318.317 3.53657e-06 -2.715e-08)
(318.321 -1.26948e-06 1.16549e-07)
(318.324 -5.59887e-06 2.30274e-07)
(318.324 -6.42908e-06 2.2886e-07)
(318.32 -4.92126e-06 1.63778e-07)
(318.316 -2.96147e-06 1.02048e-07)
(318.315 -2.09932e-06 7.82832e-08)
(318.314 4.55205e-07 7.0433e-09)
(318.315 4.72865e-06 -1.12081e-07)
(318.316 7.3613e-06 -1.66683e-07)
(318.32 6.83229e-06 -1.2766e-07)
(318.325 4.42998e-06 -4.03223e-08)
(318.329 1.99079e-06 3.84244e-08)
(318.331 1.33262e-06 6.58012e-08)
(318.333 1.17186e-07 1.52835e-07)
(318.335 -1.84977e-06 1.96106e-07)
(318.336 -3.66837e-06 2.19261e-07)
(318.335 -4.58457e-06 2.37533e-07)
(318.334 -4.75976e-06 2.29121e-07)
(318.332 -4.61725e-06 2.2158e-07)
(318.33 -4.41599e-06 2.12654e-07)
(318.327 -4.66631e-06 2.25895e-07)
(318.323 -4.76174e-06 2.31771e-07)
(318.32 -3.71224e-06 1.83455e-07)
(318.32 -2.35536e-06 1.17673e-07)
(318.32 -2.07813e-06 1.04409e-07)
(318.321 -2.18634e-06 1.06142e-07)
(318.322 -2.45737e-06 8.85494e-08)
(318.323 -1.29487e-06 2.62566e-08)
(318.324 8.32023e-07 -6.15217e-08)
(318.321 2.19957e-06 -1.37469e-07)
(318.316 2.71295e-06 -1.80785e-07)
(318.313 2.71898e-06 -1.86128e-07)
(318.31 3.21636e-06 -1.99229e-07)
(318.307 3.85359e-06 -1.99673e-07)
(318.306 2.15204e-06 -1.04131e-07)
(318.307 -8.06116e-07 2.87026e-08)
(318.311 -3.11634e-06 1.25639e-07)
(318.317 -4.96799e-06 1.94094e-07)
(318.32 -5.67004e-06 2.17272e-07)
(318.323 -5.76429e-06 2.15006e-07)
(318.326 -4.77747e-06 1.6005e-07)
(318.328 -2.29485e-06 6.09242e-08)
(318.329 -7.97638e-07 1.25471e-08)
(318.328 7.71048e-07 -4.41919e-08)
(318.328 1.60028e-06 -7.92538e-08)
(318.327 1.92834e-06 -9.38077e-08)
(318.326 1.56569e-06 -7.63578e-08)
(318.325 -8.67808e-07 4.17171e-08)
(318.323 -2.91099e-06 1.45947e-07)
(318.324 -4.31203e-06 2.06379e-07)
(318.323 -4.64943e-06 2.19579e-07)
(318.324 -5.15739e-06 2.30925e-07)
(318.324 -4.97589e-06 1.97764e-07)
(318.326 -2.63264e-06 8.12635e-08)
(318.327 2.21388e-07 -3.26102e-08)
(318.326 2.34944e-06 -1.24215e-07)
(318.324 4.50291e-06 -2.16088e-07)
(318.322 5.60064e-06 -2.60063e-07)
(318.319 5.92312e-06 -2.71501e-07)
(318.316 5.73118e-06 -2.63492e-07)
(318.314 4.31966e-06 -2.06803e-07)
(318.313 2.62393e-06 -1.24919e-07)
(318.315 9.25359e-07 -3.01858e-08)
(318.318 -7.9133e-07 6.94034e-08)
(318.322 -1.92383e-06 1.38384e-07)
(318.324 -1.99867e-06 1.53102e-07)
(318.326 -1.71779e-06 1.51073e-07)
(318.327 -1.52445e-06 1.53345e-07)
(318.327 -1.38111e-06 1.51178e-07)
(318.326 -1.45992e-06 1.54108e-07)
(318.326 -1.25838e-06 1.37941e-07)
(318.325 -1.42943e-06 1.54782e-07)
(318.324 -1.37072e-06 1.60562e-07)
(318.323 -8.89254e-07 1.32549e-07)
(318.321 -5.55885e-06 3.27284e-07)
(318.315 3.84902e-06 -7.5232e-08)
(318.306 -1.47593e-05 7.65531e-07)
(318.305 2.05141e-05 -7.36756e-07)
(318.311 -1.42191e-05 6.46396e-07)
(318.339 1.21731e-05 -3.8652e-07)
(318.412 2.4316e-05 -1.22957e-06)
(318.546 -9.60551e-05 4.34517e-06)
(318.746 0.000180202 -8.34778e-06)
(318.999 -0.000274523 1.26203e-05)
(319.289 0.000230681 -1.09435e-05)
(319.598 -0.000156441 8.45189e-06)
(319.92 0.000213955 -1.08728e-05)
(320.241 -0.000285849 1.48878e-05)
(320.564 0.000409757 -2.30685e-05)
(320.873 -0.000778699 3.79251e-05)
(321.18 0.000678792 -2.84737e-05)
(321.45 -0.000874257 3.09419e-05)
(321.778 0.0115116 -0.000335555)
(322.024 0.0126992 -0.000479134)
(322.19 0.012058 -0.00051655)
(322.24 0.0107806 -0.000470464)
(322.237 0.00875304 -0.000390909)
(322.228 0.0081273 -0.000360153)
(322.208 0.00831998 -0.000366112)
(322.181 0.00808089 -0.000357912)
(322.15 0.00694367 -0.000304748)
(322.118 0.00546406 -0.000242449)
(322.089 0.00470312 -0.000207379)
(322.066 0.00434632 -0.000195559)
(322.049 0.00381776 -0.000167803)
(322.035 0.00342444 -0.000150446)
(322.019 0.00318139 -0.000152578)
(321.989 0.00306605 -0.000122198)
(321.921 0.00266797 -0.000114045)
(321.766 0.00246326 -0.000218041)
(321.451 0.00205249 0.000112944)
(320.951 0.00266066 0.000441448)
(320.414 0.00244066 -0.00167013)
(320.028 0.00108852 -0.000164478)
(319.797 0.00126714 0.00139199)
(319.638 0.00169554 0.000559975)
(319.504 0.00164522 -0.000702994)
(319.381 0.00129607 -0.00101133)
(319.269 0.000981223 -0.000473264)
(319.173 0.000840089 0.000126617)
(319.095 0.000833267 0.000383741)
(319.032 0.000856659 0.000306088)
(318.981 0.000846693 0.000155002)
(318.943 0.000743232 -9.39902e-05)
(318.914 0.000573984 -0.000133732)
(318.891 0.000436446 1.19572e-05)
(318.875 0.000392901 0.000103081)
(318.861 0.000398738 0.000101889)
(318.849 0.000419135 3.01939e-05)
(318.838 0.000426631 -6.39062e-05)
(318.828 0.000394993 -0.000102931)
(318.817 0.00034922 -8.76434e-05)
(318.806 0.000330005 -7.00296e-05)
(318.794 0.000298028 -4.85077e-05)
(318.782 0.000279287 -5.2047e-05)
(318.768 0.000276792 -6.51908e-05)
(318.754 0.000275913 -6.09105e-05)
(318.738 0.000260776 -3.59563e-05)
(318.724 0.000248774 -2.27136e-05)
(318.709 0.000237889 -1.53394e-05)
(318.695 0.000212344 -1.16026e-05)
(318.684 0.000162718 -6.90135e-06)
(318.676 0.000109117 5.84137e-06)
(318.672 7.19867e-05 2.61221e-05)
(318.672 6.13482e-05 4.07553e-05)
(318.672 7.99984e-05 3.49729e-05)
(318.673 9.31221e-05 2.40501e-05)
(318.673 0.00010499 3.98984e-06)
(318.673 0.000127349 -5.32697e-05)
(318.673 0.000131554 -7.62381e-05)
(318.671 0.000120567 -7.78685e-05)
(318.67 0.000113125 -7.45312e-05)
(318.668 8.72817e-05 -6.10043e-05)
(318.666 7.27224e-06 -2.47906e-05)
(318.663 -0.000113084 3.31487e-05)
(318.66 -0.000152407 5.41953e-05)
(318.656 -0.000158222 6.00193e-05)
(318.652 -0.000153089 7.00933e-05)
(318.647 -0.000120185 8.285e-05)
(318.641 -6.34797e-05 9.41076e-05)
(318.635 -7.66347e-06 9.72169e-05)
(318.628 3.9559e-05 8.51351e-05)
(318.622 6.21403e-05 6.96611e-05)
(318.617 6.22441e-05 5.61177e-05)
(318.613 5.03449e-05 1.84339e-05)
(318.61 2.4888e-05 -2.71157e-05)
(318.608 -5.51725e-06 -6.57416e-05)
(318.607 -3.22253e-05 -8.84149e-05)
(318.608 -5.9082e-05 -9.90938e-05)
(318.608 -7.79405e-05 -6.89827e-05)
(318.609 -0.000103259 -9.44576e-05)
(318.61 -9.90682e-05 -4.46098e-05)
(318.61 -8.96857e-05 -6.03711e-06)
(318.611 -8.63299e-05 1.62215e-05)
(318.611 -7.448e-05 3.86739e-05)
(318.61 -5.07321e-05 5.31684e-05)
(318.609 -3.94952e-05 5.53844e-05)
(318.607 -1.81273e-05 4.45568e-05)
(318.604 -3.75256e-06 3.53981e-05)
(318.6 1.49375e-06 2.74364e-05)
(318.595 4.69256e-06 1.10613e-05)
(318.589 2.69901e-06 -8.91363e-06)
(318.584 -2.06326e-06 -2.6131e-05)
(318.579 -4.62795e-06 -3.89447e-05)
(318.574 -6.55887e-06 -4.45168e-05)
(318.569 -5.97376e-06 -4.42067e-05)
(318.563 9.97993e-08 -3.8807e-05)
(318.559 4.5557e-06 -3.36192e-05)
(318.554 7.34401e-06 -3.02816e-05)
(318.55 1.18344e-05 -2.24483e-05)
(318.546 1.0629e-05 -1.02583e-05)
(318.543 -2.26209e-06 6.18089e-06)
(318.54 -1.78191e-05 2.40694e-05)
(318.539 -3.16613e-05 3.7466e-05)
(318.537 -4.99573e-05 4.83483e-05)
(318.535 -6.92806e-05 5.80779e-05)
(318.534 -7.6153e-05 6.3429e-05)
(318.533 -6.63951e-05 6.02881e-05)
(318.532 -4.50947e-05 4.96521e-05)
(318.53 -1.89429e-05 3.53499e-05)
(318.529 1.08046e-05 1.82791e-05)
(318.528 3.78641e-05 4.1811e-07)
(318.526 4.92642e-05 -8.6727e-06)
(318.523 5.47844e-05 -1.5029e-05)
(318.521 5.5069e-05 -2.27439e-05)
(318.519 4.17625e-05 -2.59534e-05)
(318.516 1.70854e-05 -2.31991e-05)
(318.513 -8.04605e-06 -1.55448e-05)
(318.51 -2.73998e-05 -5.74283e-06)
(318.508 -3.85837e-05 3.51313e-06)
(318.506 -3.84624e-05 1.22723e-05)
(318.504 -3.28189e-05 1.79193e-05)
(318.502 -2.76902e-05 1.94392e-05)
(318.5 -1.71069e-05 1.91842e-05)
(318.498 -2.88574e-06 1.70867e-05)
(318.497 1.06327e-05 9.28635e-06)
(318.497 1.85772e-05 1.80782e-06)
(318.498 1.78424e-05 -3.7817e-06)
(318.499 9.54573e-06 -8.30936e-06)
(318.5 -1.8005e-06 -1.15528e-05)
(318.5 -1.36791e-05 -1.06015e-05)
(318.5 -2.37567e-05 -5.03496e-06)
(318.498 -2.90709e-05 1.94327e-06)
(318.496 -2.7785e-05 8.31903e-06)
(318.494 -2.12872e-05 1.27637e-05)
(318.491 -1.67901e-05 1.43907e-05)
(318.489 -8.80227e-06 1.64171e-05)
(318.487 2.73278e-06 1.86919e-05)
(318.485 1.05139e-05 2.10407e-05)
(318.482 1.44898e-05 2.07477e-05)
(318.479 1.23435e-05 2.36279e-05)
(318.475 8.05588e-06 2.57658e-05)
(318.472 8.94651e-07 2.2674e-05)
(318.47 -7.61491e-06 2.44364e-05)
(318.469 -1.39873e-05 2.88918e-05)
(318.468 -1.60364e-05 2.83633e-05)
(318.467 -1.37171e-05 2.55843e-05)
(318.465 -8.30289e-06 2.32316e-05)
(318.463 -7.57982e-07 2.04962e-05)
(318.462 5.47331e-06 1.68006e-05)
(318.461 9.37949e-06 1.30018e-05)
(318.461 1.41807e-05 5.23058e-06)
(318.461 1.62559e-05 -4.02071e-06)
(318.461 1.38222e-05 -1.11074e-05)
(318.46 8.42598e-06 -1.44834e-05)
(318.459 2.82221e-06 -1.40234e-05)
(318.458 -2.04652e-06 -9.74829e-06)
(318.456 -6.04449e-06 -3.96213e-06)
(318.455 -7.31905e-06 -1.66895e-06)
(318.454 -9.60709e-06 3.20356e-06)
(318.454 -1.24814e-05 8.62174e-06)
(318.455 -1.29991e-05 9.54447e-06)
(318.457 -1.29766e-05 6.74059e-06)
(318.459 -8.91584e-06 -2.6581e-06)
(318.461 -6.12144e-06 -1.19517e-05)
(318.46 5.15644e-07 -2.41678e-05)
(318.46 7.38535e-06 -3.19055e-05)
(318.459 1.3053e-05 -3.66586e-05)
(318.458 1.80402e-05 -4.0058e-05)
(318.459 2.38731e-05 -4.26455e-05)
(318.46 2.58927e-05 -3.94812e-05)
(318.461 2.1395e-05 -2.95044e-05)
(318.462 9.8086e-06 -1.71949e-05)
(318.462 1.41867e-06 -1.04734e-05)
(318.463 -1.33304e-05 1.49046e-06)
(318.462 -2.63739e-05 1.3233e-05)
(318.463 -3.30952e-05 2.09105e-05)
(318.463 -3.35281e-05 2.42303e-05)
(318.464 -2.75488e-05 2.30073e-05)
(318.465 -1.77087e-05 1.92587e-05)
(318.466 -5.63874e-06 1.33173e-05)
(318.465 1.56434e-06 9.14162e-06)
(318.463 7.28737e-06 5.04788e-06)
(318.461 1.38823e-05 -1.58997e-06)
(318.459 1.58956e-05 -6.76329e-06)
(318.456 1.21425e-05 -7.51196e-06)
(318.455 4.73675e-06 -4.3331e-06)
(318.453 -2.81347e-06 3.35764e-08)
(318.451 -9.51269e-06 5.56751e-06)
(318.449 -1.55619e-05 1.23116e-05)
(318.448 -1.89168e-05 1.72972e-05)
(318.447 -2.07839e-05 2.04403e-05)
(318.446 -2.1901e-05 2.21637e-05)
(318.445 -2.18136e-05 2.2184e-05)
(318.444 -2.02071e-05 1.95058e-05)
(318.443 -1.7622e-05 1.37045e-05)
(318.442 -1.50307e-05 7.15813e-06)
(318.44 -1.18533e-05 1.19073e-06)
(318.439 -7.85492e-06 -4.04363e-06)
(318.437 -3.85303e-06 -8.69107e-06)
(318.435 8.71517e-08 -1.20613e-05)
(318.433 4.12576e-06 -1.30528e-05)
(318.432 7.45891e-06 -1.13452e-05)
(318.431 9.40474e-06 -8.0436e-06)
(318.43 9.6737e-06 -4.10301e-06)
(318.427 8.92204e-06 -9.81012e-07)
(318.424 8.18653e-06 1.12105e-06)
(318.421 6.99451e-06 4.0999e-06)
(318.417 5.799e-06 5.94224e-06)
(318.414 3.81636e-06 6.80495e-06)
(318.411 2.94481e-06 6.95802e-06)
(318.409 3.54449e-06 5.25452e-06)
(318.406 3.47383e-06 2.32906e-06)
(318.404 2.14964e-06 -1.76556e-06)
(318.401 9.81111e-07 -4.42682e-06)
(318.399 4.43695e-07 -5.81914e-06)
(318.397 -4.75538e-07 -5.99787e-06)
(318.396 -1.52858e-06 -5.36543e-06)
(318.395 -2.73471e-06 -2.54428e-06)
(318.396 -3.71066e-06 1.6072e-06)
(318.399 -3.61422e-06 7.97334e-06)
(318.403 -2.40774e-06 1.5638e-05)
(318.406 -1.3045e-07 2.22267e-05)
(318.408 2.77717e-06 2.88563e-05)
(318.409 4.89785e-06 3.41917e-05)
(318.41 5.75703e-06 3.92587e-05)
(318.411 7.25404e-06 4.35035e-05)
(318.412 7.55002e-06 4.71009e-05)
(318.413 5.69848e-06 4.95489e-05)
(318.414 3.51288e-06 5.11391e-05)
(318.414 1.83941e-06 5.24506e-05)
(318.414 2.36292e-07 5.31581e-05)
(318.412 -1.13392e-06 5.40522e-05)
(318.409 -1.11688e-06 5.25717e-05)
(318.406 1.58086e-07 5.03186e-05)
(318.404 3.21965e-07 4.96333e-05)
(318.402 2.3268e-06 4.69095e-05)
(318.401 6.91359e-06 4.14073e-05)
(318.4 1.08438e-05 3.62788e-05)
(318.399 1.19477e-05 3.24522e-05)
(318.397 1.16071e-05 3.07473e-05)
(318.396 9.85237e-06 2.76079e-05)
(318.396 6.30292e-06 2.42567e-05)
(318.395 1.93107e-06 2.20581e-05)
(318.395 -3.96699e-06 2.10586e-05)
(318.395 -1.11345e-05 2.10053e-05)
(318.395 -1.70619e-05 2.18141e-05)
(318.395 -2.08452e-05 2.20536e-05)
(318.394 -2.18309e-05 2.22802e-05)
(318.393 -2.02781e-05 2.22218e-05)
(318.392 -1.52553e-05 2.08305e-05)
(318.392 -1.4965e-05 2.04726e-05)
(318.391 -7.92134e-06 1.8471e-05)
(318.391 -1.28225e-06 1.60647e-05)
(318.392 1.36746e-06 1.43704e-05)
(318.392 4.38517e-06 1.20129e-05)
(318.391 9.37664e-06 8.474e-06)
(318.389 1.00954e-05 5.0832e-06)
(318.387 3.93232e-06 2.42915e-06)
(318.386 -2.24683e-06 7.80878e-07)
(318.384 -6.84824e-06 -1.64431e-07)
(318.383 -1.33865e-05 -5.40143e-07)
(318.382 -1.92136e-05 3.2725e-07)
(318.38 -2.04832e-05 2.13931e-06)
(318.378 -1.84369e-05 4.27717e-06)
(318.376 -1.5327e-05 5.90613e-06)
(318.375 -1.26904e-05 7.08273e-06)
(318.373 -6.25425e-06 9.66584e-06)
(318.373 2.51031e-06 1.13625e-05)
(318.373 1.07325e-05 1.27215e-05)
(318.374 1.76952e-05 1.32664e-05)
(318.374 2.42381e-05 1.24664e-05)
(318.375 2.96144e-05 1.08712e-05)
(318.375 2.84112e-05 7.2014e-06)
(318.375 2.65013e-05 4.02288e-06)
(318.376 2.37783e-05 1.90708e-06)
(318.376 1.75495e-05 -1.09887e-06)
(318.377 1.42673e-05 -1.99952e-06)
(318.378 8.27118e-06 -4.45071e-06)
(318.379 2.26619e-06 -7.18589e-06)
(347.059 2.51027e-11 -2.71823e-11)
(347.059 2.00273e-11 -2.85904e-11)
(347.059 1.03993e-11 -3.20653e-11)
(347.059 -1.33581e-12 -3.44648e-11)
(347.059 -9.06368e-13 -3.52938e-11)
(347.059 3.22123e-12 -3.69751e-11)
(347.059 3.82093e-12 -3.8143e-11)
(347.059 1.56654e-12 -3.79706e-11)
(347.059 9.3488e-13 -3.80863e-11)
(347.059 7.83963e-13 -3.89504e-11)
(347.059 -2.87012e-12 -3.69432e-11)
(347.059 -2.98391e-13 -3.71041e-11)
(347.059 8.90131e-12 -3.64685e-11)
(347.059 8.04281e-12 -3.5311e-11)
(347.059 9.05826e-12 -3.43649e-11)
(347.059 1.14475e-11 -3.44722e-11)
(347.059 1.25912e-11 -3.44333e-11)
(347.059 1.10319e-11 -3.43608e-11)
(347.059 8.93814e-12 -3.40961e-11)
(347.059 4.12825e-12 -3.39492e-11)
(347.059 1.09302e-11 -3.3578e-11)
(347.059 1.91555e-11 -3.38427e-11)
(347.059 1.94944e-11 -3.40496e-11)
(347.059 1.83735e-11 -3.38482e-11)
(347.059 1.91902e-11 -3.52422e-11)
(347.059 2.23724e-11 -3.5296e-11)
(347.059 2.38573e-11 -3.5526e-11)
(347.059 1.83706e-11 -3.6701e-11)
(347.059 7.83121e-12 -3.70346e-11)
(347.059 -7.45209e-12 -3.55857e-11)
(347.059 -2.77281e-11 -3.42419e-11)
(347.059 -2.99504e-11 -3.15462e-11)
(347.059 -2.99479e-11 -3.28679e-11)
(347.059 -2.93119e-11 -3.37633e-11)
(347.059 -2.85246e-11 -3.40362e-11)
(347.059 -3.00564e-11 -3.49851e-11)
(347.059 -2.59143e-11 -3.63084e-11)
(347.059 -1.92393e-11 -3.60676e-11)
(347.059 -1.17147e-11 -3.64697e-11)
(347.059 -3.95983e-12 -3.6562e-11)
(347.059 -1.57137e-12 -3.4442e-11)
(347.059 -1.96388e-12 -3.42562e-11)
(347.059 -6.02058e-12 -3.46744e-11)
(347.059 -1.19466e-11 -3.486e-11)
(347.059 -2.00292e-11 -3.42802e-11)
(347.059 -2.11752e-11 -3.42885e-11)
(347.059 -1.86736e-11 -3.41756e-11)
(347.059 -1.57851e-11 -3.44402e-11)
(347.059 -1.36551e-11 -3.41503e-11)
(347.059 2.39366e-11 -3.55198e-11)
(347.059 -3.28845e-10 -3.04079e-11)
(347.054 -4.15655e-09 2.26967e-10)
(346.928 2.68555e-07 -9.51442e-09)
(343.99 -4.21609e-06 8.58473e-08)
(326.645 -1.2746e-05 8.01138e-07)
(318.423 2.40587e-05 -8.67673e-07)
(318.305 1.43863e-05 -6.21457e-07)
(318.311 -2.14981e-07 -1.46939e-07)
(318.316 -6.68192e-06 1.4384e-07)
(318.319 -1.39437e-05 5.06356e-07)
(318.321 -1.60591e-05 6.01313e-07)
(318.322 -2.1573e-05 8.32389e-07)
(318.321 -1.39059e-05 6.71526e-07)
(318.321 5.46986e-06 7.99295e-08)
(318.328 1.61797e-05 -3.08129e-07)
(318.336 2.14256e-05 -6.01219e-07)
(318.34 2.08252e-05 -6.4123e-07)
(318.344 1.64893e-05 -5.886e-07)
(318.346 7.28587e-06 -3.50129e-07)
(318.344 -3.21516e-06 -5.77617e-08)
(318.336 -9.34756e-06 1.54962e-07)
(318.327 -1.24337e-05 3.1942e-07)
(318.323 -1.39158e-05 4.28315e-07)
(318.321 -1.45997e-05 5.12345e-07)
(318.319 -1.19874e-05 5.38051e-07)
(318.318 -2.59447e-06 3.34496e-07)
(318.317 7.32946e-06 3.65907e-08)
(318.321 1.1362e-05 -1.43598e-07)
(318.322 1.10055e-05 -1.97896e-07)
(318.321 1.00034e-05 -1.90412e-07)
(318.321 8.00587e-06 -1.71446e-07)
(318.322 4.34013e-06 -1.20372e-07)
(318.323 -3.17799e-06 6.7096e-08)
(318.324 -8.29892e-06 2.37168e-07)
(318.321 -9.44947e-06 3.02039e-07)
(318.318 -9.02948e-06 3.0802e-07)
(318.315 -8.09955e-06 2.83122e-07)
(318.31 -5.52875e-06 2.1523e-07)
(318.306 -4.52333e-07 8.35568e-08)
(318.303 4.59645e-06 -5.60204e-08)
(318.304 6.13191e-06 -1.09437e-07)
(318.308 5.9356e-06 -1.16935e-07)
(318.312 5.37716e-06 -1.01332e-07)
(318.317 3.00801e-06 -2.01522e-08)
(318.321 -1.23303e-06 1.09091e-07)
(318.324 -5.00009e-06 2.04538e-07)
(318.324 -5.7006e-06 1.94787e-07)
(318.32 -4.29229e-06 1.29461e-07)
(318.316 -2.50641e-06 7.31388e-08)
(318.315 -1.75876e-06 5.28778e-08)
(318.314 4.65102e-07 -9.89917e-09)
(318.315 4.15277e-06 -1.06836e-07)
(318.316 6.35776e-06 -1.42245e-07)
(318.32 5.99676e-06 -1.07336e-07)
(318.325 4.05974e-06 -3.78823e-08)
(318.329 1.99256e-06 1.98966e-08)
(318.331 1.43393e-06 3.36989e-08)
(318.333 4.57856e-07 1.04079e-07)
(318.335 -1.15695e-06 1.7222e-07)
(318.336 -2.86997e-06 1.93515e-07)
(318.335 -4.00901e-06 2.13062e-07)
(318.334 -4.65448e-06 2.18887e-07)
(318.332 -4.56459e-06 2.12834e-07)
(318.33 -4.52996e-06 2.09859e-07)
(318.327 -5.03504e-06 2.37504e-07)
(318.323 -5.18768e-06 2.53959e-07)
(318.32 -3.97873e-06 2.00009e-07)
(318.32 -2.40422e-06 1.24352e-07)
(318.32 -2.07732e-06 1.09678e-07)
(318.321 -2.06819e-06 1.01348e-07)
(318.322 -2.18456e-06 7.96031e-08)
(318.323 -9.37031e-07 2.01216e-08)
(318.324 1.18287e-06 -7.21096e-08)
(318.321 2.51691e-06 -1.5471e-07)
(318.316 2.91015e-06 -2.0011e-07)
(318.313 2.84284e-06 -2.04322e-07)
(318.31 3.25925e-06 -2.16738e-07)
(318.307 3.79068e-06 -2.14594e-07)
(318.306 2.07174e-06 -1.16284e-07)
(318.307 -8.16563e-07 1.84608e-08)
(318.311 -3.00878e-06 1.14459e-07)
(318.317 -4.74247e-06 1.7925e-07)
(318.32 -5.3967e-06 1.98988e-07)
(318.323 -5.47984e-06 1.94892e-07)
(318.326 -4.49313e-06 1.36749e-07)
(318.328 -2.00296e-06 3.60655e-08)
(318.329 -4.95491e-07 -9.37039e-09)
(318.328 9.94261e-07 -6.2326e-08)
(318.328 1.76033e-06 -9.22255e-08)
(318.327 2.06051e-06 -1.04898e-07)
(318.326 1.69393e-06 -8.44031e-08)
(318.325 -6.55937e-07 3.26884e-08)
(318.323 -2.66432e-06 1.36025e-07)
(318.324 -4.0931e-06 2.02201e-07)
(318.323 -4.42393e-06 2.17161e-07)
(318.324 -4.89553e-06 2.31776e-07)
(318.324 -4.73056e-06 2.04712e-07)
(318.326 -2.58708e-06 9.47321e-08)
(318.327 5.2261e-08 -1.45311e-08)
(318.326 2.21066e-06 -1.09521e-07)
(318.324 4.52945e-06 -2.10508e-07)
(318.322 5.74009e-06 -2.6107e-07)
(318.319 6.10614e-06 -2.74772e-07)
(318.316 5.9928e-06 -2.69656e-07)
(318.314 4.71448e-06 -2.19556e-07)
(318.313 3.09331e-06 -1.44804e-07)
(318.315 1.37484e-06 -4.89323e-08)
(318.318 -4.52563e-07 5.68552e-08)
(318.322 -1.65892e-06 1.33801e-07)
(318.324 -1.79186e-06 1.49256e-07)
(318.326 -1.56144e-06 1.46268e-07)
(318.327 -1.45956e-06 1.48236e-07)
(318.327 -1.46449e-06 1.52121e-07)
(318.326 -1.67005e-06 1.58819e-07)
(318.326 -1.56577e-06 1.50302e-07)
(318.325 -1.7545e-06 1.64029e-07)
(318.324 -1.75527e-06 1.67113e-07)
(318.323 -9.90208e-07 1.24113e-07)
(318.321 -6.25502e-06 3.54727e-07)
(318.315 5.73013e-06 -1.77842e-07)
(318.306 -1.82357e-05 9.34005e-07)
(318.305 2.51786e-05 -1.00948e-06)
(318.311 -1.8131e-05 8.66523e-07)
(318.339 1.57865e-05 -6.06835e-07)
(318.412 1.98136e-05 -1.0413e-06)
(318.546 -8.97869e-05 4.12432e-06)
(318.746 0.00018557 -8.61837e-06)
(318.999 -0.000292622 1.33251e-05)
(319.289 0.000268651 -1.23481e-05)
(319.598 -0.000189943 9.493e-06)
(319.92 0.000233354 -1.12736e-05)
(320.241 -0.00028461 1.42541e-05)
(320.564 0.000388469 -2.16316e-05)
(320.872 -0.00069309 3.46272e-05)
(321.18 0.000682299 -3.03121e-05)
(321.45 -0.0011589 4.24684e-05)
(321.764 0.00907365 -0.000262942)
(322.023 0.012416 -0.000475071)
(322.191 0.0103399 -0.000463097)
(322.24 0.00875032 -0.000399003)
(322.238 0.0069748 -0.000323979)
(322.228 0.00672058 -0.000306192)
(322.208 0.00708256 -0.000318936)
(322.181 0.00692651 -0.000313971)
(322.15 0.0058782 -0.000264045)
(322.118 0.00452909 -0.000206922)
(322.089 0.00391292 -0.00017783)
(322.066 0.00361848 -0.000168233)
(322.049 0.00317042 -0.000143935)
(322.035 0.00284198 -0.000129074)
(322.019 0.0026646 -0.000133336)
(321.989 0.00259897 -0.000104582)
(321.921 0.00227538 -9.85088e-05)
(321.766 0.00212366 -0.000205928)
(321.451 0.00175986 0.000130373)
(320.95 0.00235524 0.000437022)
(320.414 0.00212651 -0.00164913)
(320.028 0.000859143 -0.000136782)
(319.797 0.000988008 0.00139797)
(319.638 0.00139135 0.000560018)
(319.504 0.00136518 -0.000694043)
(319.381 0.00104469 -0.000995774)
(319.269 0.000768263 -0.00045982)
(319.173 0.000660966 0.000138652)
(319.095 0.000687746 0.000390925)
(319.032 0.000740347 0.000310512)
(318.981 0.000739544 0.000160229)
(318.943 0.000653146 -9.2162e-05)
(318.914 0.00050122 -0.000132885)
(318.891 0.0003615 1.49467e-05)
(318.875 0.000311729 0.000106975)
(318.861 0.000313398 0.00010588)
(318.849 0.000324713 3.43037e-05)
(318.838 0.000329389 -5.88514e-05)
(318.828 0.000303095 -9.69161e-05)
(318.817 0.000266076 -8.21784e-05)
(318.806 0.000248559 -6.49359e-05)
(318.794 0.000219364 -4.42406e-05)
(318.782 0.000204598 -4.86131e-05)
(318.768 0.000205198 -6.22447e-05)
(318.754 0.000210563 -5.82513e-05)
(318.738 0.00020483 -3.3535e-05)
(318.724 0.00019533 -2.03488e-05)
(318.709 0.000180824 -1.28562e-05)
(318.695 0.000155329 -9.57251e-06)
(318.684 0.000112513 -5.8086e-06)
(318.676 6.67341e-05 5.83982e-06)
(318.672 3.78138e-05 2.49378e-05)
(318.672 4.1406e-05 3.89157e-05)
(318.672 7.18713e-05 3.34762e-05)
(318.673 8.65633e-05 2.30802e-05)
(318.673 9.64009e-05 3.50903e-06)
(318.673 0.000117732 -5.27394e-05)
(318.673 0.000119504 -7.53527e-05)
(318.671 0.000100073 -7.62739e-05)
(318.67 8.90863e-05 -7.23856e-05)
(318.668 5.48536e-05 -5.85433e-05)
(318.666 -2.80965e-05 -2.32991e-05)
(318.663 -0.000119273 3.22461e-05)
(318.66 -0.000148956 5.32757e-05)
(318.656 -0.000154651 5.83071e-05)
(318.652 -0.000151081 6.47049e-05)
(318.647 -0.000117443 7.24307e-05)
(318.641 -5.88832e-05 8.246e-05)
(318.635 -2.24876e-06 8.51113e-05)
(318.628 3.11829e-05 7.3019e-05)
(318.622 5.14094e-05 5.64918e-05)
(318.617 5.20814e-05 4.16636e-05)
(318.613 3.89604e-05 4.80641e-06)
(318.61 1.09056e-05 -3.58676e-05)
(318.608 -1.85403e-05 -6.76772e-05)
(318.607 -3.75301e-05 -8.5846e-05)
(318.608 -5.54914e-05 -9.4403e-05)
(318.608 -7.47089e-05 -6.56227e-05)
(318.609 -9.88326e-05 -8.92233e-05)
(318.61 -9.88017e-05 -4.23222e-05)
(318.61 -9.18894e-05 -3.83648e-06)
(318.611 -8.73711e-05 2.06358e-05)
(318.611 -7.42326e-05 4.27375e-05)
(318.61 -4.81923e-05 5.55403e-05)
(318.609 -3.41888e-05 5.7056e-05)
(318.607 -1.10383e-05 4.51427e-05)
(318.604 9.37777e-07 3.51554e-05)
(318.6 5.40282e-06 2.69924e-05)
(318.595 9.15364e-06 1.09323e-05)
(318.589 9.37862e-06 -8.03089e-06)
(318.584 6.66431e-06 -2.53271e-05)
(318.579 5.18847e-06 -3.84351e-05)
(318.574 5.55783e-06 -4.33521e-05)
(318.569 6.01392e-06 -4.1401e-05)
(318.563 4.81664e-06 -3.59353e-05)
(318.559 6.37421e-06 -3.12139e-05)
(318.554 9.95933e-06 -2.65272e-05)
(318.55 1.54291e-05 -1.69691e-05)
(318.546 1.32108e-05 -5.15603e-06)
(318.543 -2.58222e-06 9.30384e-06)
(318.54 -2.15974e-05 2.46725e-05)
(318.539 -3.53159e-05 3.55954e-05)
(318.537 -5.04879e-05 4.44485e-05)
(318.535 -6.73932e-05 5.3693e-05)
(318.534 -7.23502e-05 6.00889e-05)
(318.533 -6.45581e-05 5.76052e-05)
(318.532 -4.65683e-05 4.73371e-05)
(318.53 -2.2153e-05 3.37567e-05)
(318.529 7.84711e-06 1.74803e-05)
(318.528 3.51063e-05 5.99998e-07)
(318.526 4.82003e-05 -8.0029e-06)
(318.523 5.54045e-05 -1.41201e-05)
(318.521 5.77297e-05 -2.16709e-05)
(318.519 4.55788e-05 -2.48563e-05)
(318.516 2.10728e-05 -2.20506e-05)
(318.513 -4.63179e-06 -1.45717e-05)
(318.51 -2.51713e-05 -5.10943e-06)
(318.508 -3.7707e-05 3.83913e-06)
(318.506 -3.78312e-05 1.21323e-05)
(318.504 -3.19898e-05 1.76119e-05)
(318.502 -2.72404e-05 1.91107e-05)
(318.5 -1.68791e-05 1.87892e-05)
(318.498 -2.63737e-06 1.65488e-05)
(318.497 1.08676e-05 8.83222e-06)
(318.497 1.8584e-05 1.44049e-06)
(318.498 1.79406e-05 -4.07547e-06)
(318.499 9.62883e-06 -8.3994e-06)
(318.5 -2.15154e-06 -1.13321e-05)
(318.5 -1.45117e-05 -1.02056e-05)
(318.5 -2.48071e-05 -4.59216e-06)
(318.498 -2.96157e-05 2.25006e-06)
(318.496 -2.76085e-05 8.02271e-06)
(318.494 -2.10637e-05 1.17341e-05)
(318.491 -1.67976e-05 1.28119e-05)
(318.489 -8.57847e-06 1.42396e-05)
(318.487 3.81736e-06 1.64151e-05)
(318.485 1.3071e-05 1.93911e-05)
(318.482 1.69603e-05 1.9975e-05)
(318.479 1.50005e-05 2.32237e-05)
(318.475 9.22349e-06 2.53493e-05)
(318.472 1.57936e-06 2.25334e-05)
(318.47 -6.99684e-06 2.42382e-05)
(318.469 -1.32144e-05 2.85147e-05)
(318.468 -1.51997e-05 2.79001e-05)
(318.467 -1.30742e-05 2.50942e-05)
(318.465 -7.99266e-06 2.27424e-05)
(318.463 -9.42758e-07 2.01267e-05)
(318.462 5.02196e-06 1.65836e-05)
(318.461 9.00237e-06 1.28271e-05)
(318.461 1.40712e-05 5.18335e-06)
(318.461 1.65244e-05 -3.75976e-06)
(318.461 1.45667e-05 -1.04576e-05)
(318.46 9.46641e-06 -1.33967e-05)
(318.459 3.76353e-06 -1.26094e-05)
(318.458 -1.63553e-06 -8.5756e-06)
(318.456 -6.3135e-06 -3.4297e-06)
(318.455 -8.02306e-06 -1.32065e-06)
(318.454 -1.05045e-05 2.83495e-06)
(318.454 -1.32016e-05 7.40756e-06)
(318.455 -1.40556e-05 7.77512e-06)
(318.457 -1.27026e-05 4.94975e-06)
(318.459 -7.91668e-06 -3.95816e-06)
(318.461 -4.34697e-06 -1.27623e-05)
(318.46 1.24463e-06 -2.46783e-05)
(318.46 7.68315e-06 -3.20542e-05)
(318.459 1.2993e-05 -3.6161e-05)
(318.458 1.75196e-05 -3.90258e-05)
(318.459 2.33855e-05 -4.13263e-05)
(318.46 2.57403e-05 -3.78415e-05)
(318.461 2.14932e-05 -2.78433e-05)
(318.462 9.93688e-06 -1.5822e-05)
(318.462 1.4856e-06 -9.35269e-06)
(318.463 -1.34116e-05 1.56004e-06)
(318.462 -2.65649e-05 1.19166e-05)
(318.463 -3.34967e-05 1.86297e-05)
(318.463 -3.42873e-05 2.20956e-05)
(318.464 -2.85558e-05 2.13145e-05)
(318.465 -1.87753e-05 1.70992e-05)
(318.466 -6.56795e-06 1.03683e-05)
(318.465 9.33531e-07 5.68097e-06)
(318.463 7.09294e-06 1.20438e-06)
(318.461 1.45631e-05 -4.98511e-06)
(318.459 1.6909e-05 -8.51561e-06)
(318.456 1.28352e-05 -7.96083e-06)
(318.455 5.47338e-06 -4.28515e-06)
(318.453 -1.54334e-06 3.18328e-07)
(318.451 -7.84589e-06 5.99252e-06)
(318.449 -1.34783e-05 1.28164e-05)
(318.448 -1.7309e-05 1.76899e-05)
(318.447 -1.96322e-05 2.07296e-05)
(318.446 -2.09438e-05 2.23452e-05)