/*--------------------------------*- C++ -*----------------------------------*\
| =========                 |                                                 |
| \\      /  F ield         | OpenFOAM: The Open Source CFD Toolbox           |
|  \\    /   O peration     | Version:  2406                                  |
|   \\  /    A nd           | Website:  www.openfoam.com                      |
|    \\/     M anipulation  |                                                 |
\*---------------------------------------------------------------------------*/
FoamFile
{
    version     2.0;
    format      ascii;
    arch        "LSB;label=32;scalar=64";
    class       volScalarField;
    location    "0.075";
    object      rho;
}
// * * * * * * * * * * * * * * * * * * * * * * * * * * * * * * * * * * * * * //

dimensions      [1 -3 0 0 0 0 0];

internalField   nonuniform List<scalar> 
14020
(
4.73929
4.73929
4.73931
4.73932
4.73933
4.73934
4.73937
4.7394
4.73942
4.73943
4.73945
4.73948
4.73949
4.73951
4.73955
4.73962
4.73968
4.73973
4.73978
4.73984
4.73988
4.73988
4.73989
4.73994
4.73998
4.74002
4.74003
4.74001
4.73994
4.73986
4.73981
4.73982
4.73989
4.73993
4.73993
4.73992
4.73992
4.7399
4.73988
4.7399
4.73996
4.73997
4.73998
4.73996
4.73997
4.73994
4.73989
4.73986
4.73983
4.73977
4.73974
4.73973
4.73973
4.73971
4.73963
4.73963
4.73964
4.73967
4.73963
4.73963
4.73962
4.73965
4.7396
4.73954
4.73946
4.73939
4.73925
4.73904
4.73871
4.73821
4.73746
4.7363
4.73466
4.73228
4.72891
4.72403
4.71728
4.70787
4.69503
4.67766
4.65467
4.62448
4.58541
4.53547
4.47282
4.39544
4.30167
4.19018
4.0604
3.91295
3.74976
3.57436
3.39229
3.21121
3.04099
2.89392
2.78278
2.71329
2.68396
2.67939
2.67895
2.67868
2.67838
2.67835
2.67865
2.67918
2.67997
2.68094
2.68195
2.68295
2.68368
2.68386
2.68385
2.68369
2.68338
2.683
2.68267
2.68251
2.68242
2.68243
2.68255
2.68269
2.68273
2.68271
2.68263
2.68248
2.68229
2.6822
2.68222
2.68226
2.68238
2.68255
2.68271
2.68276
2.68275
2.6827
2.68259
2.68244
2.68232
2.68228
2.68227
2.6823
2.68239
2.68252
2.6826
2.68261
2.68262
2.68261
2.68256
2.6825
2.68249
2.68249
2.68251
2.68256
2.68261
2.68264
2.68264
2.68262
2.68258
2.68253
2.68247
2.68245
2.68245
2.68246
2.68249
2.68256
2.68263
2.68269
2.68275
2.68281
2.6829
2.68304
2.68322
2.68344
2.68362
2.68366
2.6832
2.68066
2.67572
2.66883
2.66086
2.65234
2.64347
2.63439
2.62518
2.6159
2.60656
2.59719
2.58778
2.57833
2.56884
2.55933
2.5498
2.54027
2.53076
2.52129
2.51186
2.5025
2.49316
2.48388
2.47461
2.46538
2.45614
2.44692
2.4377
2.42851
2.41931
2.41015
2.40102
2.39192
2.38285
2.37381
2.3648
2.35581
2.34686
2.3379
2.32898
2.32008
2.31121
2.3024
2.29358
2.28486
2.27615
2.26754
2.25894
2.25046
2.24205
2.23379
2.22548
2.21645
2.19956
4.73929
4.73929
4.73931
4.73932
4.73932
4.73934
4.73937
4.7394
4.73942
4.73943
4.73945
4.73948
4.73949
4.73951
4.73955
4.73962
4.73968
4.73973
4.73978
4.73984
4.73988
4.73988
4.73989
4.73994
4.73998
4.74002
4.74003
4.74001
4.73994
4.73986
4.73981
4.73983
4.73989
4.73993
4.73993
4.73992
4.73992
4.7399
4.73988
4.7399
4.73996
4.73997
4.73998
4.73996
4.73997
4.73994
4.73989
4.73985
4.73983
4.73977
4.73974
4.73973
4.73973
4.73971
4.73963
4.73963
4.73964
4.73966
4.73964
4.73963
4.73963
4.73965
4.7396
4.73954
4.73946
4.73939
4.73925
4.73903
4.7387
4.7382
4.73746
4.7363
4.73466
4.73229
4.72892
4.72403
4.71729
4.70788
4.69504
4.67769
4.65474
4.62456
4.58551
4.53563
4.47304
4.39575
4.30208
4.1907
4.06105
3.91371
3.75058
3.5752
3.39307
3.21185
3.04145
2.89421
2.78294
2.71339
2.68403
2.6794
2.67895
2.67868
2.67838
2.67835
2.67866
2.67919
2.67998
2.68094
2.68195
2.68295
2.68367
2.68386
2.68385
2.68369
2.68338
2.68301
2.68268
2.68251
2.68243
2.68243
2.68255
2.68269
2.68273
2.68271
2.68263
2.68248
2.68229
2.6822
2.68222
2.68227
2.68238
2.68255
2.68271
2.68276
2.68275
2.6827
2.68259
2.68244
2.68232
2.68228
2.68227
2.6823
2.68239
2.68252
2.68259
2.68261
2.68262
2.68261
2.68256
2.6825
2.68249
2.68249
2.68251
2.68256
2.68261
2.68264
2.68264
2.68262
2.68258
2.68253
2.68247
2.68245
2.68245
2.68246
2.68249
2.68256
2.68263
2.68269
2.68275
2.68281
2.6829
2.68304
2.68322
2.68344
2.68362
2.68366
2.6832
2.68066
2.67572
2.66883
2.66086
2.65234
2.64347
2.63439
2.62518
2.6159
2.60656
2.59719
2.58778
2.57833
2.56884
2.55933
2.54979
2.54027
2.53076
2.52129
2.51187
2.5025
2.49316
2.48388
2.47461
2.46538
2.45614
2.44692
2.4377
2.42851
2.41931
2.41015
2.40102
2.39192
2.38285
2.37381
2.3648
2.35581
2.34686
2.3379
2.32897
2.32008
2.31121
2.3024
2.29358
2.28486
2.27615
2.26754
2.25894
2.25046
2.24205
2.23379
2.22548
2.21643
2.19957
4.73929
4.73929
4.73931
4.73932
4.73932
4.73934
4.73937
4.7394
4.73942
4.73942
4.73945
4.73948
4.73949
4.73951
4.73955
4.73962
4.73968
4.73973
4.73978
4.73984
4.73988
4.73988
4.73989
4.73994
4.73998
4.74002
4.74003
4.74
4.73994
4.73986
4.73981
4.73983
4.73989
4.73992
4.73992
4.73992
4.73992
4.7399
4.73988
4.7399
4.73995
4.73997
4.73998
4.73996
4.73997
4.73994
4.73989
4.73985
4.73982
4.73977
4.73974
4.73974
4.73973
4.7397
4.73963
4.73962
4.73963
4.73967
4.73964
4.73964
4.73963
4.73965
4.73959
4.73954
4.73946
4.73939
4.73925
4.73903
4.7387
4.7382
4.73746
4.7363
4.73467
4.7323
4.72892
4.72404
4.71732
4.7079
4.69509
4.67781
4.65491
4.62479
4.58584
4.53612
4.47374
4.39672
4.30336
4.19228
4.06289
3.91574
3.75266
3.57717
3.39477
3.21317
3.04235
2.89473
2.78314
2.71345
2.68404
2.67937
2.67892
2.67867
2.67837
2.67834
2.67865
2.67919
2.67998
2.68094
2.68196
2.68295
2.68367
2.68385
2.68385
2.68369
2.68338
2.68301
2.68268
2.68251
2.68243
2.68243
2.68255
2.68269
2.68273
2.68271
2.68263
2.68248
2.68229
2.6822
2.68222
2.68227
2.68238
2.68255
2.68271
2.68276
2.68275
2.6827
2.68259
2.68244
2.68232
2.68228
2.68227
2.6823
2.68239
2.68252
2.68259
2.68261
2.68262
2.68261
2.68256
2.6825
2.68249
2.68249
2.68251
2.68256
2.68261
2.68264
2.68264
2.68262
2.68258
2.68253
2.68247
2.68245
2.68245
2.68246
2.68249
2.68256
2.68263
2.68269
2.68275
2.68281
2.6829
2.68304
2.68322
2.68344
2.68362
2.68366
2.6832
2.68066
2.67572
2.66883
2.66086
2.65234
2.64347
2.63439
2.62518
2.6159
2.60656
2.59719
2.58778
2.57833
2.56884
2.55933
2.54979
2.54027
2.53075
2.52129
2.51187
2.5025
2.49316
2.48388
2.47461
2.46538
2.45614
2.44692
2.4377
2.42851
2.41931
2.41015
2.40101
2.39192
2.38285
2.37381
2.3648
2.35581
2.34686
2.3379
2.32897
2.32008
2.31121
2.3024
2.29358
2.28486
2.27615
2.26754
2.25894
2.25046
2.24205
2.23379
2.22547
2.21642
2.19959
4.73929
4.73929
4.73931
4.73932
4.73932
4.73934
4.73937
4.7394
4.73942
4.73942
4.73945
4.73948
4.73949
4.73951
4.73955
4.73962
4.73968
4.73973
4.73978
4.73984
4.73988
4.73988
4.73989
4.73994
4.73998
4.74002
4.74003
4.74
4.73993
4.73986
4.73982
4.73984
4.73989
4.73992
4.73992
4.73992
4.73992
4.73991
4.73988
4.7399
4.73995
4.73997
4.73998
4.73996
4.73997
4.73994
4.73989
4.73985
4.73982
4.73977
4.73975
4.73974
4.73973
4.7397
4.73963
4.73962
4.73963
4.73967
4.73965
4.73965
4.73963
4.73964
4.73959
4.73953
4.73947
4.7394
4.73925
4.73902
4.73869
4.7382
4.73746
4.73631
4.73468
4.73232
4.72894
4.72407
4.71736
4.70794
4.69519
4.67801
4.65519
4.62518
4.58641
4.53695
4.47489
4.39825
4.30529
4.1946
4.06555
3.91855
3.75538
3.57958
3.39674
3.21467
3.04338
2.89533
2.78344
2.7136
2.68411
2.67936
2.6789
2.67865
2.67837
2.67833
2.67865
2.67918
2.67998
2.68095
2.68197
2.68295
2.68367
2.68385
2.68384
2.68368
2.68337
2.683
2.68268
2.68251
2.68243
2.68244
2.68255
2.6827
2.68273
2.68271
2.68263
2.68247
2.68229
2.6822
2.68222
2.68227
2.68238
2.68255
2.68271
2.68276
2.68275
2.6827
2.68259
2.68244
2.68232
2.68228
2.68227
2.6823
2.68239
2.68252
2.68259
2.68261
2.68262
2.68261
2.68256
2.6825
2.68249
2.68249
2.68251
2.68256
2.68261
2.68264
2.68264
2.68262
2.68258
2.68253
2.68247
2.68245
2.68245
2.68246
2.68249
2.68255
2.68263
2.68269
2.68275
2.68281
2.6829
2.68304
2.68322
2.68344
2.68362
2.68366
2.68321
2.68066
2.67572
2.66883
2.66086
2.65235
2.64347
2.63439
2.62518
2.6159
2.60656
2.59719
2.58778
2.57833
2.56884
2.55933
2.54979
2.54027
2.53075
2.52129
2.51187
2.5025
2.49316
2.48388
2.47461
2.46538
2.45614
2.44692
2.4377
2.42851
2.41931
2.41015
2.40101
2.39192
2.38285
2.37381
2.3648
2.35581
2.34686
2.3379
2.32898
2.32008
2.31121
2.3024
2.29358
2.28486
2.27615
2.26754
2.25894
2.25046
2.24205
2.23379
2.22546
2.2164
2.19963
4.73929
4.73929
4.73931
4.73932
4.73932
4.73934
4.73937
4.7394
4.73942
4.73942
4.73945
4.73948
4.73949
4.73951
4.73955
4.73962
4.73968
4.73973
4.73978
4.73985
4.73988
4.73988
4.73989
4.73994
4.73999
4.74002
4.74002
4.73999
4.73993
4.73986
4.73983
4.73984
4.73988
4.73991
4.73991
4.73992
4.73993
4.73991
4.73988
4.7399
4.73995
4.73997
4.73998
4.73996
4.73997
4.73994
4.73989
4.73984
4.73982
4.73977
4.73975
4.73975
4.73973
4.7397
4.73964
4.73961
4.73962
4.73967
4.73966
4.73966
4.73963
4.73963
4.73958
4.73953
4.73947
4.7394
4.73924
4.739
4.73868
4.7382
4.73747
4.73632
4.7347
4.73234
4.72896
4.7241
4.7174
4.708
4.69534
4.67826
4.65555
4.6257
4.58714
4.53798
4.47629
4.40005
4.30748
4.19712
4.06826
3.92122
3.75774
3.58154
3.3982
3.21561
3.04392
2.8956
2.78355
2.71365
2.6841
2.67933
2.67887
2.67863
2.67835
2.67832
2.67864
2.67918
2.67998
2.68096
2.68198
2.68296
2.68366
2.68384
2.68383
2.68367
2.68337
2.683
2.68268
2.68252
2.68244
2.68244
2.68256
2.6827
2.68273
2.68271
2.68263
2.68247
2.68229
2.6822
2.68222
2.68227
2.68238
2.68255
2.68271
2.68276
2.68275
2.6827
2.68259
2.68244
2.68232
2.68228
2.68227
2.6823
2.68239
2.68252
2.68259
2.68261
2.68262
2.68261
2.68256
2.6825
2.68249
2.68249
2.68251
2.68256
2.68261
2.68264
2.68264
2.68262
2.68258
2.68253
2.68247
2.68245
2.68245
2.68246
2.68249
2.68255
2.68262
2.68269
2.68275
2.68281
2.6829
2.68304
2.68322
2.68344
2.68362
2.68366
2.68321
2.68066
2.67572
2.66883
2.66087
2.65235
2.64348
2.63439
2.62518
2.6159
2.60656
2.59719
2.58778
2.57833
2.56884
2.55933
2.54979
2.54027
2.53075
2.52129
2.51186
2.5025
2.49316
2.48388
2.47462
2.46538
2.45614
2.44692
2.4377
2.42851
2.41931
2.41015
2.40101
2.39192
2.38285
2.37381
2.3648
2.35581
2.34686
2.3379
2.32898
2.32008
2.31122
2.3024
2.29358
2.28486
2.27615
2.26754
2.25894
2.25046
2.24205
2.23379
2.22545
2.21638
2.19967
4.73929
4.73929
4.73931
4.73932
4.73932
4.73934
4.73937
4.7394
4.73942
4.73942
4.73945
4.73948
4.73949
4.7395
4.73955
4.73962
4.73968
4.73973
4.73978
4.73985
4.73988
4.73988
4.73989
4.73994
4.73999
4.74002
4.74002
4.73999
4.73993
4.73987
4.73984
4.73985
4.73988
4.7399
4.73991
4.73992
4.73994
4.73991
4.73988
4.73989
4.73995
4.73997
4.73998
4.73996
4.73997
4.73994
4.73988
4.73984
4.73981
4.73977
4.73976
4.73975
4.73973
4.7397
4.73964
4.7396
4.73962
4.73968
4.73967
4.73967
4.73963
4.73962
4.73957
4.73953
4.73948
4.73941
4.73922
4.73898
4.73867
4.73821
4.73748
4.73633
4.73471
4.73237
4.72898
4.72413
4.71744
4.70807
4.6955
4.67852
4.65592
4.62622
4.58788
4.53899
4.47758
4.40162
4.30933
4.19915
4.0703
3.92311
3.75934
3.58277
3.39905
3.21615
3.04427
2.89581
2.78369
2.71374
2.68412
2.67932
2.67887
2.67862
2.67834
2.67831
2.67863
2.67918
2.67999
2.68097
2.68199
2.68296
2.68366
2.68383
2.68382
2.68367
2.68336
2.683
2.68268
2.68252
2.68244
2.68244
2.68256
2.6827
2.68273
2.68271
2.68263
2.68247
2.68228
2.6822
2.68222
2.68226
2.68238
2.68255
2.68271
2.68276
2.68275
2.6827
2.68259
2.68245
2.68232
2.68228
2.68227
2.6823
2.68239
2.68252
2.68259
2.68261
2.68262
2.68261
2.68256
2.6825
2.68248
2.68249
2.68251
2.68256
2.68261
2.68264
2.68264
2.68262
2.68258
2.68253
2.68248
2.68246
2.68245
2.68246
2.68249
2.68255
2.68262
2.68269
2.68275
2.68281
2.6829
2.68303
2.68322
2.68344
2.68362
2.68367
2.68321
2.68066
2.67573
2.66884
2.66087
2.65235
2.64348
2.6344
2.62518
2.6159
2.60657
2.59719
2.58778
2.57833
2.56884
2.55932
2.54979
2.54026
2.53075
2.52129
2.51186
2.5025
2.49316
2.48388
2.47462
2.46538
2.45614
2.44692
2.4377
2.42851
2.41931
2.41015
2.40101
2.39192
2.38285
2.37381
2.36479
2.35581
2.34686
2.3379
2.32898
2.32007
2.31122
2.30239
2.29358
2.28486
2.27615
2.26754
2.25893
2.25047
2.24204
2.23379
2.22544
2.21636
2.19971
4.73929
4.73929
4.73931
4.73932
4.73932
4.73934
4.73937
4.7394
4.73942
4.73942
4.73945
4.73948
4.73949
4.7395
4.73954
4.73962
4.73968
4.73973
4.73978
4.73985
4.73988
4.73988
4.73988
4.73994
4.73999
4.74002
4.74002
4.73999
4.73992
4.73987
4.73985
4.73985
4.73988
4.73989
4.7399
4.73992
4.73994
4.73992
4.73988
4.73989
4.73995
4.73997
4.73998
4.73996
4.73997
4.73994
4.73988
4.73983
4.73981
4.73978
4.73977
4.73975
4.73973
4.7397
4.73964
4.7396
4.73961
4.73968
4.73968
4.73968
4.73963
4.73961
4.73956
4.73953
4.73949
4.73941
4.73921
4.73896
4.73866
4.73821
4.73749
4.73634
4.73472
4.73238
4.729
4.72417
4.71747
4.70812
4.69563
4.67874
4.65619
4.62661
4.58846
4.53978
4.47856
4.4028
4.31058
4.20048
4.0716
3.92409
3.76009
3.58333
3.39934
3.21625
3.04427
2.89578
2.78367
2.71375
2.68414
2.67931
2.67883
2.67857
2.67829
2.67828
2.67861
2.67917
2.67999
2.68098
2.682
2.68297
2.68365
2.68382
2.68381
2.68366
2.68336
2.683
2.68269
2.68252
2.68244
2.68245
2.68256
2.6827
2.68273
2.68271
2.68263
2.68247
2.68228
2.6822
2.68222
2.68226
2.68238
2.68255
2.68271
2.68276
2.68275
2.6827
2.6826
2.68245
2.68232
2.68228
2.68227
2.6823
2.68239
2.68252
2.68259
2.68261
2.68262
2.68261
2.68256
2.6825
2.68248
2.68249
2.68251
2.68256
2.68261
2.68264
2.68264
2.68262
2.68258
2.68253
2.68248
2.68246
2.68245
2.68246
2.68249
2.68255
2.68262
2.68269
2.68275
2.68281
2.6829
2.68303
2.68322
2.68344
2.68362
2.68367
2.68321
2.68066
2.67573
2.66884
2.66087
2.65235
2.64348
2.6344
2.62518
2.6159
2.60657
2.59719
2.58778
2.57833
2.56884
2.55932
2.54979
2.54026
2.53075
2.52129
2.51186
2.5025
2.49317
2.48388
2.47462
2.46538
2.45614
2.44692
2.4377
2.42851
2.41931
2.41015
2.40101
2.39192
2.38285
2.37382
2.36479
2.35581
2.34686
2.3379
2.32898
2.32007
2.31122
2.30239
2.29358
2.28485
2.27615
2.26754
2.25893
2.25047
2.24204
2.23379
2.22543
2.21635
2.19974
4.73929
4.73929
4.73931
4.73932
4.73932
4.73934
4.73937
4.7394
4.73942
4.73942
4.73945
4.73948
4.73949
4.7395
4.73954
4.73962
4.73969
4.73973
4.73978
4.73985
4.73988
4.73988
4.73988
4.73994
4.73999
4.74002
4.74002
4.73998
4.73992
4.73987
4.73985
4.73985
4.73987
4.73988
4.7399
4.73993
4.73994
4.73992
4.73988
4.73989
4.73995
4.73997
4.73999
4.73996
4.73997
4.73994
4.73988
4.73983
4.73981
4.73978
4.73977
4.73976
4.73972
4.7397
4.73964
4.7396
4.73961
4.73968
4.73968
4.73969
4.73963
4.73959
4.73956
4.73953
4.73949
4.73941
4.7392
4.73894
4.73865
4.73821
4.73749
4.73636
4.73473
4.73237
4.72903
4.72419
4.71746
4.70815
4.69574
4.67888
4.65631
4.6268
4.58879
4.54022
4.47908
4.40347
4.31116
4.20116
4.07234
3.92457
3.76043
3.58369
3.39955
3.21633
3.0443
2.89574
2.78368
2.7138
2.68417
2.67928
2.6788
2.67854
2.67827
2.67826
2.6786
2.67917
2.67999
2.68099
2.68201
2.68297
2.68365
2.68382
2.68381
2.68365
2.68335
2.683
2.68269
2.68253
2.68245
2.68245
2.68256
2.6827
2.68273
2.68271
2.68262
2.68247
2.68228
2.6822
2.68222
2.68226
2.68238
2.68255
2.68271
2.68276
2.68275
2.6827
2.6826
2.68245
2.68232
2.68228
2.68227
2.6823
2.68239
2.68251
2.68259
2.68261
2.68262
2.68261
2.68256
2.6825
2.68248
2.68249
2.68252
2.68256
2.68261
2.68264
2.68264
2.68262
2.68258
2.68252
2.68248
2.68246
2.68245
2.68245
2.68249
2.68255
2.68262
2.68269
2.68275
2.68281
2.6829
2.68303
2.68322
2.68344
2.68362
2.68367
2.68321
2.68067
2.67573
2.66884
2.66088
2.65236
2.64349
2.6344
2.62518
2.6159
2.60657
2.59719
2.58778
2.57833
2.56884
2.55932
2.54979
2.54026
2.53075
2.52128
2.51186
2.5025
2.49317
2.48388
2.47462
2.46538
2.45615
2.44692
2.4377
2.42851
2.41932
2.41015
2.40101
2.39192
2.38285
2.37382
2.36479
2.35582
2.34685
2.33791
2.32897
2.32007
2.31122
2.30239
2.29359
2.28485
2.27615
2.26754
2.25893
2.25047
2.24203
2.23379
2.22543
2.21634
2.19977
4.73929
4.73929
4.73931
4.73932
4.73932
4.73934
4.73937
4.7394
4.73942
4.73942
4.73945
4.73948
4.73949
4.7395
4.73954
4.73962
4.73969
4.73973
4.73978
4.73985
4.73988
4.73988
4.73988
4.73994
4.73999
4.74002
4.74002
4.73998
4.73992
4.73987
4.73986
4.73985
4.73987
4.73988
4.7399
4.73993
4.73995
4.73992
4.73988
4.73989
4.73995
4.73997
4.73999
4.73996
4.73997
4.73994
4.73988
4.73983
4.73981
4.73978
4.73977
4.73976
4.73972
4.7397
4.73964
4.73959
4.73961
4.73968
4.73969
4.73969
4.73963
4.73959
4.73956
4.73953
4.7395
4.73941
4.73919
4.73893
4.73865
4.73821
4.7375
4.73637
4.73475
4.73236
4.72909
4.72419
4.71746
4.70819
4.6959
4.67896
4.65629
4.62674
4.58883
4.54059
4.47964
4.40408
4.31154
4.20153
4.07254
3.92467
3.76041
3.58356
3.39942
3.21627
3.04418
2.89567
2.78366
2.7138
2.68415
2.67923
2.67876
2.6785
2.67823
2.67824
2.67858
2.67916
2.67999
2.68098
2.68201
2.68298
2.68365
2.68382
2.68381
2.68365
2.68335
2.683
2.68269
2.68253
2.68245
2.68245
2.68257
2.6827
2.68273
2.68271
2.68262
2.68247
2.68228
2.6822
2.68222
2.68226
2.68238
2.68255
2.68271
2.68276
2.68275
2.6827
2.6826
2.68245
2.68232
2.68228
2.68227
2.6823
2.68239
2.68251
2.68259
2.68261
2.68262
2.68261
2.68256
2.6825
2.68248
2.68249
2.68252
2.68256
2.68261
2.68264
2.68264
2.68262
2.68258
2.68253
2.68248
2.68246
2.68245
2.68246
2.68249
2.68255
2.68262
2.68269
2.68275
2.68281
2.6829
2.68303
2.68322
2.68344
2.68362
2.68366
2.68321
2.68067
2.67573
2.66884
2.66088
2.65237
2.64349
2.6344
2.62519
2.61591
2.60657
2.59719
2.58778
2.57833
2.56884
2.55932
2.54979
2.54026
2.53075
2.52128
2.51186
2.5025
2.49317
2.48388
2.47462
2.46538
2.45615
2.44692
2.4377
2.42851
2.41932
2.41015
2.40101
2.39192
2.38285
2.37382
2.36479
2.35582
2.34685
2.33791
2.32897
2.32007
2.31122
2.30239
2.2936
2.28484
2.27615
2.26753
2.25894
2.25047
2.24203
2.2338
2.22542
2.21634
2.19978
1.22125
1.22125
1.22125
1.22125
1.22125
1.22125
1.22125
1.22125
1.22125
1.22125
1.22125
1.22125
1.22125
1.22125
1.22125
1.22125
1.22125
1.22125
1.22125
1.22125
1.22125
1.22125
1.22125
1.22125
1.22125
1.22125
1.22125
1.22125
1.22125
1.22125
1.22125
1.22125
1.22125
1.22125
1.22125
1.22125
1.22125
1.22125
1.22131
1.2221
1.22581
1.23367
1.2439
1.25424
1.26375
1.27242
1.28058
1.28846
1.29614
1.3035
1.31039
1.3169
1.32359
1.33138
1.34091
1.352
1.36404
1.37743
1.39324
1.40849
1.40969
1.35955
1.26054
1.1361
0.991957
0.781736
0.658773
0.700476
0.800823
0.917972
1.02067
1.09937
1.15115
1.17457
1.17979
1.17231
1.15436
1.13427
1.11059
1.0856
1.06289
1.04357
1.02587
1.0178
1.01835
1.01806
1.0175
1.0182
1.01896
1.02201
1.02593
1.03322
1.04232
1.04955
1.05755
1.06428
1.07241
1.07933
1.08862
1.11814
1.22125
1.22125
1.22125
1.22125
1.22125
1.22125
1.22125
1.22125
1.22125
1.22125
1.22125
1.22125
1.22125
1.22125
1.22125
1.22125
1.22125
1.22125
1.22125
1.22125
1.22125
1.22125
1.22125
1.22125
1.22125
1.22125
1.22125
1.22125
1.22125
1.22125
1.22125
1.22125
1.22125
1.22125
1.22125
1.22125
1.22125
1.22125
1.22125
1.22129
1.22195
1.22528
1.23271
1.24266
1.25287
1.26227
1.27082
1.2788
1.28647
1.29392
1.30108
1.30782
1.31417
1.32057
1.32783
1.33666
1.34715
1.3589
1.37224
1.38812
1.40284
1.40291
1.35123
1.2474
1.10811
0.936729
0.691499
0.583003
0.636689
0.754089
0.886641
1.00167
1.09193
1.15673
1.19323
1.20654
1.20696
1.19471
1.17283
1.14511
1.11738
1.09273
1.07301
1.05802
1.04991
1.04727
1.04239
1.04105
1.03898
1.03851
1.04066
1.04539
1.05331
1.06338
1.07245
1.085
1.09816
1.11252
1.12767
1.14621
1.22125
1.22125
1.22125
1.22125
1.22125
1.22125
1.22125
1.22125
1.22125
1.22125
1.22125
1.22125
1.22125
1.22125
1.22125
1.22125
1.22125
1.22125
1.22125
1.22125
1.22125
1.22125
1.22125
1.22125
1.22125
1.22125
1.22125
1.22125
1.22125
1.22125
1.22125
1.22125
1.22125
1.22125
1.22125
1.22125
1.22125
1.22125
1.22125
1.22128
1.22181
1.22473
1.23167
1.24131
1.25135
1.26064
1.26906
1.27686
1.2843
1.29149
1.29841
1.30495
1.31111
1.31719
1.32388
1.33189
1.34152
1.35258
1.36521
1.38007
1.39401
1.3963
1.35105
1.24592
1.09334
0.878433
0.608295
0.502793
0.572488
0.712463
0.862459
0.988749
1.08523
1.15529
1.19872
1.21942
1.22603
1.22213
1.20843
1.18863
1.16432
1.13921
1.11833
1.10329
1.09399
1.08966
1.0864
1.08555
1.08284
1.08148
1.08298
1.22125
1.22125
1.22125
1.22125
1.22125
1.22125
1.22125
1.22125
1.22125
1.22125
1.22125
1.22125
1.22125
1.22125
1.22125
1.22125
1.22125
1.22125
1.22125
1.22125
1.22125
1.22125
1.22125
1.22125
1.22125
1.22125
1.22125
1.22125
1.22125
1.22125
1.22125
1.22125
1.22125
1.22125
1.22125
1.22125
1.22125
1.22125
1.22125
1.22125
1.22127
1.22168
1.22418
1.23058
1.23983
1.24969
1.25886
1.26715
1.27476
1.28196
1.28887
1.29551
1.3018
1.30771
1.31346
1.31956
1.32665
1.33519
1.34516
1.22125
1.22125
1.22125
1.22125
1.22125
1.22125
1.22125
1.22125
1.22125
1.22125
1.22125
1.22125
1.22125
1.22125
1.22125
1.22125
1.22125
1.22125
1.22125
1.22125
1.22125
1.22125
1.22125
1.22125
1.22125
1.22125
1.22125
1.22125
1.22125
1.22125
1.22125
1.22125
1.22125
1.22125
1.22125
1.22125
1.22125
1.22125
1.22125
1.22125
1.22126
1.22156
1.22364
1.22943
1.23825
1.24788
1.25692
1.26506
1.2725
1.27945
1.28607
1.29239
1.29836
1.30398
1.30935
1.31485
1.32098
1.22125
1.22125
1.22125
1.22125
1.22125
1.22125
1.22125
1.22125
1.22125
1.22125
1.22125
1.22125
1.22125
1.22125
1.22125
1.22125
1.22125
1.22125
1.22125
1.22125
1.22125
1.22125
1.22125
1.22125
1.22125
1.22125
1.22125
1.22125
1.22125
1.22125
1.22125
1.22125
1.22125
1.22125
1.22125
1.22125
1.22125
1.22125
1.22125
1.22125
1.22126
1.22146
1.22313
1.22825
1.23656
1.24593
1.25482
1.26281
1.27006
1.27678
1.2831
1.28907
1.29469
1.29995
1.30491
1.30978
1.22125
1.22125
1.22125
1.22125
1.22125
1.22125
1.22125
1.22125
1.22125
1.22125
1.22125
1.22125
1.22125
1.22125
1.22125
1.22125
1.22125
1.22125
1.22125
1.22125
1.22125
1.22125
1.22125
1.22125
1.22125
1.22125
1.22125
1.22125
1.22125
1.22125
1.22125
1.22125
1.22125
1.22125
1.22125
1.22125
1.22125
1.22125
1.22125
1.22125
1.22126
1.22139
1.22265
1.22706
1.23478
1.24383
1.25255
1.2604
1.26746
1.27394
1.27997
1.28559
1.29082
1.29567
1.30017
1.30443
1.22125
1.22125
1.22125
1.22125
1.22125
1.22125
1.22125
1.22125
1.22125
1.22125
1.22125
1.22125
1.22125
1.22125
1.22125
1.22125
1.22125
1.22125
1.22125
1.22125
1.22125
1.22125
1.22125
1.22125
1.22125
1.22125
1.22125
1.22125
1.22125
1.22125
1.22125
1.22125
1.22125
1.22125
1.22125
1.22125
1.22125
1.22125
1.22125
1.22125
1.22125
1.22133
1.22223
1.22589
1.23293
1.24161
1.25013
1.25782
1.26469
1.27094
1.27669
1.28197
1.28681
1.29121
1.29522
1.29886
1.22125
1.22125
1.22125
1.22125
1.22125
1.22125
1.22125
1.22125
1.22125
1.22125
1.22125
1.22125
1.22125
1.22125
1.22125
1.22125
1.22125
1.22125
1.22125
1.22125
1.22125
1.22125
1.22125
1.22125
1.22125
1.22125
1.22125
1.22125
1.22125
1.22125
1.22125
1.22125
1.22125
1.22125
1.22125
1.22125
1.22125
1.22125
1.22125
1.22125
1.22125
1.22129
1.22189
1.22478
1.23103
1.23926
1.24756
1.25509
1.26177
1.2678
1.27328
1.27824
1.28269
1.28665
1.29015
1.29319
1.22125
1.22125
1.22125
1.22125
1.22125
1.22125
1.22125
1.22125
1.22125
1.22125
1.22125
1.22125
1.22125
1.22125
1.22125
1.22125
1.22125
1.22125
1.22125
1.22125
1.22125
1.22125
1.22125
1.22125
1.22125
1.22125
1.22125
1.22125
1.22125
1.22125
1.22125
1.22125
1.22125
1.22125
1.22125
1.22125
1.22125
1.22125
1.22125
1.22125
1.22125
1.22127
1.22163
1.22377
1.22913
1.23681
1.24486
1.25222
1.25871
1.26451
1.26974
1.27441
1.27852
1.28205
1.28506
1.28755
1.22125
1.22125
1.22125
1.22125
1.22125
1.22125
1.22125
1.22125
1.22125
1.22125
1.22125
1.22125
1.22125
1.22125
1.22125
1.22125
1.22125
1.22125
1.22125
1.22125
1.22125
1.22125
1.22125
1.22125
1.22125
1.22125
1.22125
1.22125
1.22125
1.22125
1.22125
1.22125
1.22125
1.22125
1.22125
1.22125
1.22125
1.22125
1.22125
1.22125
1.22125
1.22126
1.22145
1.2229
1.22729
1.23428
1.24203
1.24922
1.25553
1.26111
1.2661
1.27052
1.27432
1.27748
1.28004
1.28202
1.22125
1.22125
1.22125
1.22125
1.22125
1.22125
1.22125
1.22125
1.22125
1.22125
1.22125
1.22125
1.22125
1.22125
1.22125
1.22125
1.22125
1.22125
1.22125
1.22125
1.22125
1.22125
1.22125
1.22125
1.22125
1.22125
1.22125
1.22125
1.22125
1.22125
1.22125
1.22125
1.22125
1.22125
1.22125
1.22125
1.22125
1.22125
1.22125
1.22125
1.22125
1.22125
1.22134
1.22222
1.22556
1.23173
1.23909
1.24611
1.25226
1.25761
1.26236
1.26655
1.27012
1.27299
1.27518
1.27671
1.22125
1.22125
1.22125
1.22125
1.22125
1.22125
1.22125
1.22125
1.22125
1.22125
1.22125
1.22125
1.22125
1.22125
1.22125
1.22125
1.22125
1.22125
1.22125
1.22125
1.22125
1.22125
1.22125
1.22125
1.22125
1.22125
1.22125
1.22125
1.22125
1.22125
1.22125
1.22125
1.22125
1.22125
1.22125
1.22125
1.22125
1.22125
1.22125
1.22125
1.22125
1.22125
1.22128
1.22174
1.22405
1.22921
1.23607
1.24291
1.24892
1.25407
1.25857
1.26254
1.26592
1.26859
1.27051
1.2717
1.22125
1.22125
1.22125
1.22125
1.22125
1.22125
1.22125
1.22125
1.22125
1.22125
1.22125
1.22125
1.22125
1.22125
1.22125
1.22125
1.22125
1.22125
1.22125
1.22125
1.22125
1.22125
1.22125
1.22125
1.22125
1.22125
1.22125
1.22125
1.22125
1.22125
1.22125
1.22125
1.22125
1.22125
1.22125
1.22125
1.22125
1.22125
1.22125
1.22125
1.22125
1.22125
1.22126
1.22145
1.22284
1.22682
1.23298
1.23961
1.24553
1.25052
1.25478
1.2585
1.26171
1.26427
1.26605
1.26705
1.22125
1.22125
1.22125
1.22125
1.22125
1.22125
1.22125
1.22125
1.22125
1.22125
1.22125
1.22125
1.22125
1.22125
1.22125
1.22125
1.22125
1.22125
1.22125
1.22125
1.22125
1.22125
1.22125
1.22125
1.22125
1.22125
1.22125
1.22125
1.22125
1.22125
1.22125
1.22125
1.22125
1.22125
1.22125
1.22125
1.22125
1.22125
1.22125
1.22125
1.22125
1.22125
1.22125
1.22131
1.22199
1.22471
1.22991
1.2362
1.24208
1.24699
1.25105
1.25451
1.25751
1.25997
1.26174
1.2627
1.22125
1.22125
1.22125
1.22125
1.22125
1.22125
1.22125
1.22125
1.22125
1.22125
1.22125
1.22125
1.22125
1.22125
1.22125
1.22125
1.22125
1.22125
1.22125
1.22125
1.22125
1.22125
1.22125
1.22125
1.22125
1.22125
1.22125
1.22125
1.22125
1.22125
1.22125
1.22125
1.22125
1.22125
1.22125
1.22125
1.22125
1.22125
1.22125
1.22125
1.22125
1.22125
1.22125
1.22126
1.22152
1.22305
1.22698
1.23269
1.23853
1.24349
1.24745
1.25067
1.2534
1.25571
1.25748
1.25855
1.22125
1.22125
1.22125
1.22125
1.22125
1.22125
1.22125
1.22125
1.22125
1.22125
1.22125
1.22125
1.22125
1.22125
1.22125
1.22125
1.22125
1.22125
1.22125
1.22125
1.22125
1.22125
1.22125
1.22125
1.22125
1.22125
1.22125
1.22125
1.22125
1.22125
1.22125
1.22125
1.22125
1.22125
1.22125
1.22125
1.22125
1.22125
1.22125
1.22125
1.22125
1.22125
1.22125
1.22125
1.22132
1.22197
1.22447
1.22917
1.2348
1.23991
1.24396
1.24707
1.24954
1.25159
1.25326
1.25443
1.22125
1.22125
1.22125
1.22125
1.22125
1.22125
1.22125
1.22125
1.22125
1.22125
1.22125
1.22125
1.22125
1.22125
1.22125
1.22125
1.22125
1.22125
1.22125
1.22125
1.22125
1.22125
1.22125
1.22125
1.22125
1.22125
1.22125
1.22125
1.22125
1.22125
1.22125
1.22125
1.22125
1.22125
1.22125
1.22125
1.22125
1.22125
1.22125
1.22125
1.22125
1.22125
1.22125
1.22125
1.22126
1.22145
1.22265
1.22593
1.2309
1.23611
1.24045
1.24368
1.24604
1.24783
1.24926
1.25037
1.22125
1.22125
1.22125
1.22125
1.22125
1.22125
1.22125
1.22125
1.22125
1.22125
1.22125
1.22125
1.22125
1.22125
1.22125
1.22125
1.22125
1.22125
1.22125
1.22125
1.22125
1.22125
1.22125
1.22125
1.22125
1.22125
1.22125
1.22125
1.22125
1.22125
1.22125
1.22125
1.22125
1.22125
1.22125
1.22125
1.22125
1.22125
1.22125
1.22125
1.22125
1.22125
1.22125
1.22125
1.22125
1.22128
1.22166
1.22339
1.22711
1.232
1.23666
1.2403
1.24284
1.24455
1.24575
1.24661
1.22125
1.22125
1.22125
1.22125
1.22125
1.22125
1.22125
1.22125
1.22125
1.22125
1.22125
1.22125
1.22125
1.22125
1.22125
1.22125
1.22125
1.22125
1.22125
1.22125
1.22125
1.22125
1.22125
1.22125
1.22125
1.22125
1.22125
1.22125
1.22125
1.22125
1.22125
1.22125
1.22125
1.22125
1.22125
1.22125
1.22125
1.22125
1.22125
1.22125
1.22125
1.22125
1.22125
1.22125
1.22125
1.22125
1.22132
1.22191
1.22398
1.22782
1.23243
1.23657
1.23962
1.24161
1.2428
1.24348
1.22125
1.22125
1.22125
1.22125
1.22125
1.22125
1.22125
1.22125
1.22125
1.22125
1.22125
1.22125
1.22125
1.22125
1.22125
1.22125
1.22125
1.22125
1.22125
1.22125
1.22125
1.22125
1.22125
1.22125
1.22125
1.22125
1.22125
1.22125
1.22125
1.22125
1.22125
1.22125
1.22125
1.22125
1.22125
1.22125
1.22125
1.22125
1.22125
1.22125
1.22125
1.22125
1.22125
1.22125
1.22125
1.22125
1.22126
1.22136
1.22209
1.22427
1.22799
1.23225
1.23594
1.23857
1.24015
1.24095
1.22125
1.22125
1.22125
1.22125
1.22125
1.22125
1.22125
1.22125
1.22125
1.22125
1.22125
1.22125
1.22125
1.22125
1.22125
1.22125
1.22125
1.22125
1.22125
1.22125
1.22125
1.22125
1.22125
1.22125
1.22125
1.22125
1.22125
1.22125
1.22125
1.22125
1.22125
1.22125
1.22125
1.22125
1.22125
1.22125
1.22125
1.22125
1.22125
1.22125
1.22125
1.22125
1.22125
1.22125
1.22125
1.22125
1.22125
1.22126
1.22139
1.22213
1.22422
1.22764
1.23152
1.23488
1.23724
1.23857
1.22125
1.22125
1.22125
1.22125
1.22125
1.22125
1.22125
1.22125
1.22125
1.22125
1.22125
1.22125
1.22125
1.22125
1.22125
1.22125
1.22125
1.22125
1.22125
1.22125
1.22125
1.22125
1.22125
1.22125
1.22125
1.22125
1.22125
1.22125
1.22125
1.22125
1.22125
1.22125
1.22125
1.22125
1.22125
1.22125
1.22125
1.22125
1.22125
1.22125
1.22125
1.22125
1.22125
1.22125
1.22125
1.22125
1.22125
1.22125
1.22126
1.22138
1.22203
1.22384
1.22683
1.23033
1.23345
1.23568
1.22125
1.22125
1.22125
1.22125
1.22125
1.22125
1.22125
1.22125
1.22125
1.22125
1.22125
1.22125
1.22125
1.22125
1.22125
1.22125
1.22125
1.22125
1.22125
1.22125
1.22125
1.22125
1.22125
1.22125
1.22125
1.22125
1.22125
1.22125
1.22125
1.22125
1.22125
1.22125
1.22125
1.22125
1.22125
1.22125
1.22125
1.22125
1.22125
1.22125
1.22125
1.22125
1.22125
1.22125
1.22125
1.22125
1.22125
1.22125
1.22125
1.22126
1.22135
1.22184
1.22324
1.2257
1.22877
1.23168
1.22125
1.22125
1.22125
1.22125
1.22125
1.22125
1.22125
1.22125
1.22125
1.22125
1.22125
1.22125
1.22125
1.22125
1.22125
1.22125
1.22125
1.22125
1.22125
1.22125
1.22125
1.22125
1.22125
1.22125
1.22125
1.22125
1.22125
1.22125
1.22125
1.22125
1.22125
1.22125
1.22125
1.22125
1.22125
1.22125
1.22125
1.22125
1.22125
1.22125
1.22125
1.22125
1.22125
1.22125
1.22125
1.22125
1.22125
1.22125
1.22125
1.22125
1.22126
1.22131
1.22161
1.22256
1.22442
1.22696
1.22125
1.22125
1.22125
1.22125
1.22125
1.22125
1.22125
1.22125
1.22125
1.22125
1.22125
1.22125
1.22125
1.22125
1.22125
1.22125
1.22125
1.22125
1.22125
1.22125
1.22125
1.22125
1.22125
1.22125
1.22125
1.22125
1.22125
1.22125
1.22125
1.22125
1.22125
1.22125
1.22125
1.22125
1.22125
1.22125
1.22125
1.22125
1.22125
1.22125
1.22125
1.22125
1.22125
1.22125
1.22125
1.22125
1.22125
1.22125
1.22125
1.22125
1.22125
1.22125
1.22128
1.22143
1.22197
1.22319
1.22125
1.22125
1.22125
1.22125