/*--------------------------------*- C++ -*----------------------------------*\
| =========                 |                                                 |
| \\      /  F ield         | OpenFOAM: The Open Source CFD Toolbox           |
|  \\    /   O peration     | Version:  2406                                  |
|   \\  /    A nd           | Website:  www.openfoam.com                      |
|    \\/     M anipulation  |                                                 |
\*---------------------------------------------------------------------------*/
FoamFile
{
    version     2.0;
    format      ascii;
    arch        "LSB;label=32;scalar=64";
    class       volScalarField;
    location    "0.05";
    object      Ma;
}
// * * * * * * * * * * * * * * * * * * * * * * * * * * * * * * * * * * * * * //

dimensions      [0 0 0 0 0 0 0];

internalField   nonuniform List<scalar> 
14020
(
0.766416
0.766399
0.76638
0.76636
0.76634
0.766322
0.766303
0.766285
0.766266
0.766249
0.766232
0.766215
0.766196
0.766178
0.766165
0.766159
0.766156
0.766154
0.766151
0.766147
0.766139
0.766129
0.766114
0.766096
0.766078
0.766062
0.766052
0.766049
0.766048
0.766047
0.766046
0.766042
0.766035
0.766023
0.766008
0.765991
0.765975
0.765961
0.765953
0.765947
0.765944
0.765941
0.765936
0.765929
0.765919
0.765907
0.765892
0.765877
0.765864
0.765854
0.765848
0.765843
0.765838
0.765831
0.765823
0.765811
0.765797
0.765781
0.765764
0.765749
0.765737
0.765728
0.765722
0.765716
0.76571
0.765704
0.765695
0.765685
0.765671
0.765657
0.765643
0.76563
0.765619
0.76561
0.765601
0.765593
0.765583
0.765571
0.765558
0.765542
0.765526
0.765509
0.765494
0.765481
0.76547
0.76546
0.765451
0.76544
0.765428
0.765414
0.765397
0.765379
0.76536
0.765342
0.765325
0.765309
0.765295
0.765281
0.765266
0.765251
0.765234
0.765215
0.765196
0.765176
0.765157
0.765139
0.765123
0.765108
0.765093
0.765079
0.765063
0.765046
0.765028
0.765008
0.764988
0.764968
0.764948
0.76493
0.764912
0.764896
0.764879
0.764862
0.764845
0.764827
0.764809
0.764791
0.764774
0.764757
0.764742
0.764727
0.764712
0.764697
0.76468
0.764662
0.764641
0.764619
0.764595
0.76457
0.764545
0.764521
0.764496
0.764472
0.764447
0.764421
0.764395
0.764372
0.764359
0.764355
0.764355
0.764355
0.764356
0.764358
0.764361
0.764366
0.764374
0.764384
0.764397
0.764413
0.764431
0.76445
0.764472
0.764494
0.764518
0.764544
0.764572
0.764602
0.764635
0.764672
0.764713
0.764758
0.764808
0.764864
0.764925
0.764991
0.765063
0.76514
0.765222
0.765307
0.76539
0.765463
0.76551
0.765527
0.765529
0.765529
0.765529
0.765529
0.765528
0.765528
0.765526
0.765525
0.765522
0.765519
0.765516
0.765513
0.765512
0.765512
0.765512
0.765512
0.765513
0.765514
0.765515
0.765517
0.76552
0.765525
0.765529
0.76553
0.765524
0.765473
0.765135
0.76298
0.749639
0.675721
0.398941
0.0535011
0.000602085
4.492e-07
1.74178e-11
4.91978e-14
5.65242e-14
6.45769e-14
7.48036e-14
7.44813e-14
7.01753e-14
6.6995e-14
6.7835e-14
6.7889e-14
6.88774e-14
7.23857e-14
7.71632e-14
7.70382e-14
7.73061e-14
0.766415
0.766398
0.766379
0.76636
0.766341
0.766323
0.766304
0.766286
0.766267
0.76625
0.766233
0.766216
0.766197
0.766179
0.766166
0.766159
0.766157
0.766154
0.766151
0.766147
0.76614
0.766129
0.766115
0.766097
0.766078
0.766062
0.766052
0.766049
0.766048
0.766047
0.766046
0.766042
0.766035
0.766023
0.766008
0.765991
0.765975
0.765961
0.765953
0.765948
0.765944
0.765941
0.765936
0.765929
0.765919
0.765907
0.765892
0.765877
0.765864
0.765855
0.765848
0.765843
0.765838
0.765831
0.765823
0.765811
0.765797
0.765781
0.765764
0.765749
0.765737
0.765728
0.765722
0.765716
0.76571
0.765704
0.765695
0.765685
0.765672
0.765657
0.765643
0.76563
0.765619
0.76561
0.765602
0.765593
0.765583
0.765572
0.765558
0.765542
0.765526
0.76551
0.765494
0.765482
0.76547
0.765461
0.765451
0.76544
0.765428
0.765414
0.765397
0.765379
0.765361
0.765342
0.765325
0.765309
0.765295
0.765281
0.765266
0.765251
0.765234
0.765215
0.765196
0.765176
0.765157
0.765139
0.765123
0.765108
0.765094
0.765079
0.765063
0.765046
0.765028
0.765008
0.764988
0.764968
0.764948
0.76493
0.764912
0.764896
0.764879
0.764862
0.764845
0.764827
0.764809
0.764791
0.764774
0.764757
0.764742
0.764727
0.764712
0.764697
0.76468
0.764662
0.764641
0.764619
0.764595
0.76457
0.764545
0.764521
0.764496
0.764472
0.764447
0.764421
0.764395
0.764372
0.764359
0.764355
0.764355
0.764355
0.764356
0.764358
0.764361
0.764366
0.764374
0.764384
0.764397
0.764413
0.764431
0.76445
0.764472
0.764494
0.764518
0.764544
0.764572
0.764602
0.764635
0.764672
0.764713
0.764758
0.764808
0.764864
0.764925
0.764991
0.765063
0.76514
0.765222
0.765307
0.76539
0.765463
0.76551
0.765527
0.765529
0.765529
0.765529
0.765529
0.765528
0.765528
0.765526
0.765525
0.765522
0.765519
0.765516
0.765513
0.765512
0.765512
0.765512
0.765512
0.765513
0.765514
0.765515
0.765517
0.76552
0.765525
0.765529
0.76553
0.765524
0.765473
0.765135
0.762981
0.74964
0.675722
0.398942
0.0535014
0.000602089
4.49203e-07
1.74185e-11
4.75287e-14
5.61814e-14
6.21681e-14
7.03686e-14
7.31627e-14
6.90346e-14
6.82823e-14
6.99339e-14
6.80216e-14
6.84462e-14
7.31506e-14
7.58602e-14
7.69439e-14
8.05651e-14
0.766412
0.766397
0.766378
0.76636
0.766341
0.766324
0.766306
0.766287
0.766269
0.766252
0.766235
0.766217
0.766198
0.76618
0.766167
0.76616
0.766157
0.766155
0.766152
0.766147
0.76614
0.766129
0.766114
0.766097
0.766078
0.766062
0.766052
0.766049
0.766048
0.766047
0.766046
0.766042
0.766035
0.766023
0.766008
0.765991
0.765975
0.765961
0.765953
0.765948
0.765944
0.765941
0.765937
0.765929
0.76592
0.765907
0.765892
0.765877
0.765864
0.765855
0.765848
0.765843
0.765838
0.765831
0.765823
0.765812
0.765797
0.765781
0.765764
0.765749
0.765737
0.765728
0.765722
0.765716
0.765711
0.765704
0.765696
0.765685
0.765672
0.765657
0.765643
0.76563
0.765619
0.76561
0.765602
0.765593
0.765583
0.765572
0.765558
0.765542
0.765526
0.76551
0.765494
0.765482
0.76547
0.765461
0.765451
0.76544
0.765428
0.765414
0.765397
0.765379
0.765361
0.765342
0.765325
0.765309
0.765295
0.765281
0.765266
0.765251
0.765234
0.765215
0.765196
0.765176
0.765157
0.765139
0.765123
0.765108
0.765094
0.765079
0.765063
0.765046
0.765028
0.765008
0.764988
0.764968
0.764948
0.76493
0.764912
0.764896
0.764879
0.764862
0.764845
0.764827
0.764809
0.764791
0.764774
0.764757
0.764742
0.764727
0.764712
0.764697
0.76468
0.764662
0.764641
0.764619
0.764595
0.76457
0.764545
0.764521
0.764496
0.764472
0.764447
0.764421
0.764395
0.764372
0.764359
0.764355
0.764355
0.764355
0.764356
0.764358
0.764361
0.764366
0.764374
0.764384
0.764397
0.764413
0.764431
0.76445
0.764472
0.764494
0.764518
0.764544
0.764572
0.764602
0.764635
0.764672
0.764713
0.764758
0.764808
0.764864
0.764925
0.764991
0.765063
0.765141
0.765222
0.765307
0.76539
0.765463
0.76551
0.765527
0.765529
0.765529
0.765529
0.765529
0.765528
0.765528
0.765526
0.765525
0.765522
0.765519
0.765516
0.765513
0.765512
0.765512
0.765512
0.765512
0.765513
0.765514
0.765515
0.765517
0.76552
0.765525
0.765529
0.76553
0.765524
0.765473
0.765135
0.76298
0.74964
0.675722
0.398942
0.0535014
0.00060209
4.49204e-07
1.74183e-11
4.72229e-14
5.50562e-14
5.93863e-14
6.65479e-14
7.20313e-14
7.28172e-14
7.15211e-14
7.00956e-14
6.66006e-14
6.89192e-14
7.38995e-14
7.5549e-14
7.50405e-14
7.73443e-14
0.766407
0.766393
0.766376
0.766359
0.766342
0.766325
0.766308
0.76629
0.766272
0.766255
0.766238
0.76622
0.766201
0.766183
0.766169
0.766162
0.766158
0.766155
0.766152
0.766147
0.766139
0.766129
0.766114
0.766096
0.766078
0.766062
0.766052
0.766049
0.766048
0.766047
0.766046
0.766042
0.766035
0.766023
0.766008
0.765991
0.765975
0.765961
0.765953
0.765948
0.765945
0.765941
0.765937
0.76593
0.76592
0.765907
0.765892
0.765877
0.765864
0.765855
0.765848
0.765843
0.765838
0.765831
0.765823
0.765812
0.765797
0.765781
0.765764
0.765749
0.765737
0.765728
0.765722
0.765716
0.765711
0.765704
0.765696
0.765685
0.765672
0.765657
0.765643
0.76563
0.765619
0.76561
0.765602
0.765593
0.765583
0.765572
0.765558
0.765543
0.765526
0.765509
0.765494
0.765481
0.76547
0.76546
0.765451
0.76544
0.765428
0.765414
0.765397
0.765379
0.765361
0.765342
0.765325
0.765309
0.765295
0.765281
0.765266
0.765251
0.765234
0.765215
0.765196
0.765176
0.765157
0.765139
0.765123
0.765108
0.765094
0.765079
0.765063
0.765046
0.765028
0.765008
0.764988
0.764968
0.764948
0.76493
0.764912
0.764896
0.764879
0.764862
0.764845
0.764827
0.764809
0.764791
0.764774
0.764757
0.764742
0.764727
0.764712
0.764697
0.76468
0.764662
0.764641
0.764619
0.764595
0.76457
0.764545
0.764521
0.764496
0.764472
0.764447
0.764421
0.764395
0.764372
0.764359
0.764355
0.764355
0.764355
0.764356
0.764358
0.764361
0.764366
0.764374
0.764384
0.764397
0.764413
0.764431
0.76445
0.764472
0.764494
0.764518
0.764544
0.764572
0.764602
0.764635
0.764672
0.764713
0.764758
0.764808
0.764864
0.764925
0.764991
0.765063
0.765141
0.765222
0.765307
0.76539
0.765463
0.76551
0.765527
0.765529
0.765529
0.765529
0.765529
0.765528
0.765528
0.765527
0.765525
0.765522
0.765519
0.765516
0.765513
0.765512
0.765512
0.765512
0.765513
0.765513
0.765514
0.765515
0.765517
0.76552
0.765525
0.765529
0.76553
0.765524
0.765473
0.765135
0.76298
0.749639
0.675722
0.398942
0.0535014
0.000602091
4.49205e-07
1.74164e-11
4.55974e-14
5.29027e-14
5.75531e-14
6.41422e-14
6.92705e-14
7.14403e-14
7.05875e-14
7.04592e-14
7.0029e-14
7.16284e-14
7.38333e-14
7.60189e-14
7.62201e-14
7.78799e-14
0.766398
0.766387
0.766373
0.766358
0.766342
0.766326
0.76631
0.766292
0.766275
0.766258
0.766242
0.766224
0.766204
0.766186
0.766172
0.766164
0.766159
0.766156
0.766152
0.766147
0.766139
0.766129
0.766114
0.766096
0.766078
0.766062
0.766052
0.766049
0.766048
0.766048
0.766046
0.766042
0.766035
0.766023
0.766008
0.765991
0.765975
0.765961
0.765953
0.765948
0.765945
0.765942
0.765937
0.76593
0.76592
0.765907
0.765892
0.765877
0.765864
0.765855
0.765848
0.765843
0.765838
0.765831
0.765823
0.765812
0.765798
0.765781
0.765765
0.765749
0.765737
0.765728
0.765722
0.765716
0.765711
0.765704
0.765695
0.765685
0.765672
0.765657
0.765643
0.76563
0.765619
0.76561
0.765602
0.765593
0.765583
0.765572
0.765558
0.765543
0.765526
0.765509
0.765494
0.765481
0.76547
0.76546
0.765451
0.76544
0.765428
0.765414
0.765397
0.765379
0.765361
0.765342
0.765325
0.765309
0.765295
0.765281
0.765266
0.765251
0.765234
0.765215
0.765196
0.765176
0.765157
0.765139
0.765123
0.765108
0.765094
0.765079
0.765063
0.765046
0.765028
0.765008
0.764988
0.764968
0.764948
0.76493
0.764912
0.764896
0.764879
0.764862
0.764845
0.764827
0.764809
0.764791
0.764774
0.764757
0.764742
0.764727
0.764712
0.764697
0.76468
0.764662
0.764641
0.764619
0.764595
0.76457
0.764545
0.764521
0.764496
0.764472
0.764447
0.764421
0.764395
0.764372
0.764359
0.764355
0.764355
0.764355
0.764356
0.764358
0.764361
0.764366
0.764374
0.764384
0.764397
0.764413
0.764431
0.76445
0.764472
0.764494
0.764518
0.764544
0.764572
0.764602
0.764635
0.764672
0.764713
0.764758
0.764808
0.764864
0.764925
0.764991
0.765063
0.765141
0.765222
0.765307
0.76539
0.765463
0.76551
0.765527
0.765529
0.765529
0.765529
0.765529
0.765528
0.765528
0.765527
0.765525
0.765522
0.765519
0.765516
0.765513
0.765512
0.765512
0.765512
0.765512
0.765513
0.765514
0.765515
0.765517
0.76552
0.765525
0.765529
0.76553
0.765524
0.765473
0.765135
0.76298
0.749639
0.675722
0.398943
0.0535015
0.000602091
4.49206e-07
1.74148e-11
4.26798e-14
5.02556e-14
5.56261e-14
6.32657e-14
7.02733e-14
7.03921e-14
6.98154e-14
7.23003e-14
7.25393e-14
7.42498e-14
7.65539e-14
7.73198e-14
7.62679e-14
7.71747e-14
0.766388
0.766379
0.766368
0.766356
0.766342
0.766327
0.766311
0.766295
0.766278
0.766262
0.766246
0.766228
0.766208
0.76619
0.766175
0.766166
0.766161
0.766157
0.766153
0.766147
0.766139
0.766128
0.766114
0.766096
0.766078
0.766062
0.766052
0.766049
0.766048
0.766048
0.766046
0.766042
0.766035
0.766023
0.766008
0.765991
0.765975
0.765961
0.765953
0.765948
0.765945
0.765942
0.765937
0.76593
0.76592
0.765907
0.765892
0.765877
0.765864
0.765855
0.765848
0.765843
0.765838
0.765831
0.765823
0.765812
0.765798
0.765781
0.765765
0.765749
0.765737
0.765728
0.765722
0.765716
0.76571
0.765704
0.765695
0.765685
0.765671
0.765657
0.765643
0.76563
0.765619
0.76561
0.765602
0.765593
0.765583
0.765572
0.765558
0.765542
0.765526
0.765509
0.765494
0.765481
0.76547
0.76546
0.765451
0.76544
0.765428
0.765414
0.765398
0.76538
0.765361
0.765342
0.765325
0.765309
0.765295
0.765281
0.765266
0.765251
0.765234
0.765215
0.765196
0.765176
0.765157
0.765139
0.765123
0.765108
0.765094
0.765079
0.765063
0.765046
0.765028
0.765008
0.764988
0.764967
0.764948
0.76493
0.764912
0.764896
0.764879
0.764862
0.764845
0.764827
0.764809
0.764791
0.764774
0.764757
0.764742
0.764727
0.764712
0.764697
0.76468
0.764662
0.764641
0.764619
0.764595
0.76457
0.764545
0.764521
0.764496
0.764472
0.764447
0.764421
0.764395
0.764372
0.764359
0.764355
0.764355
0.764355
0.764356
0.764358
0.764361
0.764366
0.764374
0.764384
0.764397
0.764413
0.764431
0.76445
0.764472
0.764494
0.764518
0.764544
0.764572
0.764602
0.764635
0.764672
0.764713
0.764758
0.764808
0.764864
0.764925
0.764991
0.765063
0.765141
0.765222
0.765307
0.76539
0.765463
0.76551
0.765527
0.765529
0.765529
0.765529
0.765529
0.765528
0.765528
0.765527
0.765525
0.765522
0.765519
0.765516
0.765513
0.765512
0.765512
0.765512
0.765512
0.765513
0.765514
0.765515
0.765517
0.76552
0.765525
0.765529
0.76553
0.765524
0.765473
0.765135
0.76298
0.749639
0.675722
0.398943
0.0535015
0.000602092
4.49206e-07
1.74122e-11
4.25647e-14
4.77771e-14
5.12842e-14
5.91855e-14
6.6008e-14
6.90996e-14
7.04648e-14
7.39328e-14
7.48422e-14
7.61556e-14
7.85371e-14
7.89221e-14
7.72702e-14
7.84735e-14
0.766378
0.766372
0.766364
0.766353
0.76634
0.766326
0.766312
0.766296
0.766281
0.766266
0.76625
0.766231
0.766211
0.766193
0.766177
0.766167
0.766161
0.766157
0.766152
0.766147
0.766139
0.766128
0.766113
0.766096
0.766077
0.766062
0.766052
0.766049
0.766048
0.766048
0.766046
0.766042
0.766035
0.766023
0.766008
0.765991
0.765975
0.765961
0.765953
0.765948
0.765945
0.765942
0.765937
0.76593
0.76592
0.765907
0.765892
0.765877
0.765864
0.765854
0.765848
0.765843
0.765838
0.765831
0.765823
0.765812
0.765798
0.765781
0.765765
0.76575
0.765737
0.765728
0.765722
0.765716
0.76571
0.765704
0.765695
0.765684
0.765671
0.765657
0.765643
0.76563
0.765619
0.76561
0.765602
0.765593
0.765583
0.765572
0.765558
0.765542
0.765526
0.765509
0.765494
0.765481
0.76547
0.76546
0.765451
0.76544
0.765428
0.765414
0.765398
0.76538
0.765361
0.765342
0.765325
0.765309
0.765295
0.765281
0.765266
0.765251
0.765234
0.765215
0.765196
0.765176
0.765157
0.765139
0.765123
0.765108
0.765094
0.765079
0.765063
0.765046
0.765028
0.765008
0.764988
0.764967
0.764948
0.76493
0.764912
0.764896
0.764879
0.764862
0.764845
0.764827
0.764809
0.764791
0.764774
0.764757
0.764742
0.764727
0.764712
0.764697
0.76468
0.764662
0.764641
0.764619
0.764595
0.76457
0.764545
0.764521
0.764496
0.764472
0.764447
0.764421
0.764395
0.764372
0.764359
0.764355
0.764355
0.764355
0.764356
0.764358
0.764361
0.764366
0.764374
0.764384
0.764397
0.764413
0.76443
0.76445
0.764472
0.764494
0.764518
0.764544
0.764572
0.764602
0.764635
0.764672
0.764713
0.764758
0.764808
0.764864
0.764925
0.764991
0.765063
0.765141
0.765222
0.765307
0.76539
0.765463
0.76551
0.765527
0.765529
0.765529
0.765529
0.765529
0.765528
0.765528
0.765526
0.765525
0.765522
0.765519
0.765516
0.765513
0.765512
0.765512
0.765512
0.765512
0.765513
0.765514
0.765515
0.765517
0.76552
0.765525
0.765529
0.76553
0.765524
0.765473
0.765135
0.76298
0.749639
0.675722
0.398943
0.0535015
0.000602092
4.49206e-07
1.74158e-11
4.4354e-14
4.91597e-14
5.255e-14
5.80865e-14
6.49437e-14
6.88498e-14
6.98835e-14
7.13768e-14
7.45198e-14
7.80193e-14
8.01445e-14
8.19803e-14
7.96209e-14
7.80783e-14
0.766371
0.766367
0.766359
0.766349
0.766338
0.766327
0.766314
0.7663
0.766285
0.76627
0.766253
0.766234
0.766213
0.766194
0.766178
0.766168
0.766161
0.766157
0.766152
0.766147
0.766139
0.766128
0.766113
0.766095
0.766077
0.766062
0.766052
0.766049
0.766048
0.766047
0.766046
0.766042
0.766035
0.766023
0.766008
0.765991
0.765975
0.765961
0.765953
0.765948
0.765945
0.765942
0.765937
0.76593
0.76592
0.765907
0.765892
0.765877
0.765864
0.765854
0.765848
0.765843
0.765838
0.765831
0.765823
0.765812
0.765798
0.765782
0.765765
0.76575
0.765737
0.765728
0.765722
0.765716
0.76571
0.765704
0.765695
0.765684
0.765671
0.765657
0.765643
0.76563
0.765619
0.76561
0.765602
0.765593
0.765583
0.765572
0.765558
0.765542
0.765526
0.765509
0.765494
0.765481
0.76547
0.76546
0.765451
0.76544
0.765428
0.765414
0.765398
0.76538
0.765361
0.765342
0.765325
0.765309
0.765295
0.765281
0.765266
0.765251
0.765234
0.765215
0.765196
0.765176
0.765157
0.765139
0.765123
0.765108
0.765094
0.765079
0.765063
0.765046
0.765028
0.765008
0.764988
0.764967
0.764948
0.76493
0.764912
0.764896
0.764879
0.764863
0.764845
0.764827
0.764809
0.764791
0.764774
0.764757
0.764742
0.764727
0.764712
0.764697
0.76468
0.764662
0.764641
0.764619
0.764595
0.76457
0.764545
0.764521
0.764496
0.764472
0.764447
0.764421
0.764395
0.764372
0.764359
0.764355
0.764355
0.764355
0.764356
0.764358
0.764361
0.764366
0.764374
0.764384
0.764397
0.764413
0.76443
0.76445
0.764472
0.764494
0.764518
0.764544
0.764572
0.764602
0.764635
0.764672
0.764713
0.764758
0.764808
0.764864
0.764925
0.764991
0.765063
0.765141
0.765222
0.765307
0.76539
0.765463
0.76551
0.765527
0.765529
0.765529
0.765529
0.765529
0.765528
0.765528
0.765526
0.765525
0.765522
0.765519
0.765516
0.765513
0.765512
0.765512
0.765512
0.765512
0.765513
0.765514
0.765515
0.765517
0.76552
0.765525
0.765529
0.76553
0.765524
0.765473
0.765135
0.76298
0.749639
0.675722
0.398943
0.0535015
0.000602092
4.49207e-07
1.74137e-11
4.29813e-14
4.86349e-14
5.41589e-14
5.9218e-14
6.15756e-14
6.90282e-14
7.00105e-14
7.09078e-14
7.48828e-14
7.60703e-14
7.80901e-14
8.27526e-14
8.01281e-14
7.75134e-14
0.766369
0.766365
0.766357
0.766346
0.766336
0.766327
0.766316
0.766301
0.766287
0.766271
0.766253
0.766235
0.766214
0.766193
0.766178
0.766167
0.766161
0.766157
0.766152
0.766146
0.766139
0.766128
0.766113
0.766095
0.766077
0.766061
0.766052
0.766049
0.766048
0.766047
0.766046
0.766042
0.766035
0.766023
0.766008
0.765991
0.765975
0.765961
0.765953
0.765948
0.765945
0.765942
0.765937
0.76593
0.76592
0.765907
0.765892
0.765877
0.765864
0.765854
0.765848
0.765843
0.765838
0.765831
0.765823
0.765812
0.765798
0.765782
0.765765
0.76575
0.765737
0.765728
0.765722
0.765716
0.76571
0.765704
0.765695
0.765684
0.765671
0.765657
0.765643
0.76563
0.765619
0.76561
0.765602
0.765593
0.765583
0.765572
0.765558
0.765542
0.765526
0.765509
0.765494
0.765481
0.76547
0.76546
0.765451
0.76544
0.765428
0.765414
0.765398
0.76538
0.765361
0.765343
0.765325
0.765309
0.765295
0.765281
0.765266
0.76525
0.765234
0.765215
0.765196
0.765176
0.765157
0.765139
0.765123
0.765108
0.765094
0.765079
0.765063
0.765046
0.765028
0.765008
0.764988
0.764967
0.764948
0.76493
0.764912
0.764896
0.764879
0.764863
0.764845
0.764827
0.764809
0.764791
0.764774
0.764757
0.764742
0.764727
0.764712
0.764697
0.76468
0.764662
0.764641
0.764619
0.764595
0.76457
0.764545
0.764521
0.764496
0.764472
0.764447
0.764421
0.764395
0.764372
0.764359
0.764355
0.764355
0.764355
0.764356
0.764358
0.764361
0.764366
0.764374
0.764384
0.764397
0.764413
0.76443
0.76445
0.764472
0.764494
0.764518
0.764544
0.764572
0.764602
0.764635
0.764672
0.764713
0.764758
0.764808
0.764864
0.764925
0.764991
0.765063
0.765141
0.765222
0.765307
0.76539
0.765463
0.76551
0.765527
0.765529
0.765529
0.765529
0.765529
0.765528
0.765528
0.765526
0.765525
0.765522
0.765519
0.765516
0.765513
0.765512
0.765512
0.765512
0.765512
0.765513
0.765514
0.765515
0.765517
0.76552
0.765525
0.765529
0.76553
0.765524
0.765473
0.765135
0.76298
0.749639
0.675722
0.398943
0.0535015
0.000602092
4.49207e-07
1.74116e-11
4.54969e-14
4.79531e-14
5.30157e-14
5.97244e-14
6.06403e-14
6.81744e-14
7.00973e-14
7.0819e-14
7.86693e-14
7.63435e-14
7.63745e-14
8.71732e-14
8.22757e-14
7.58424e-14
1.16769e-14
2.91742e-14
4.89285e-14
6.5876e-14
7.06543e-14
5.54363e-14
3.56845e-14
3.09333e-14
2.70178e-14
2.52344e-14
2.78348e-14
3.66687e-14
1.98089e-14
1.33153e-14
1.87329e-14
1.9063e-14
1.8941e-14
2.24776e-14
2.50359e-14
3.06347e-14
2.67813e-14
2.67809e-14
2.70685e-14
2.59138e-14
2.04661e-14
2.62532e-14
3.27323e-14
3.31059e-14
3.14248e-14
2.6878e-14
3.08851e-14
3.30498e-14
4.31963e-14
6.37529e-14
5.59859e-14
4.6646e-14
3.88259e-14
3.41998e-14
4.22271e-14
4.34308e-14
5.35768e-14
7.24404e-14
6.70985e-14
3.68883e-14
2.0789e-14
2.34839e-14
1.99384e-14
2.57236e-14
2.18033e-14
2.86772e-14
2.4666e-14
2.72071e-14
2.23835e-14
1.18111e-14
2.07362e-14
4.38074e-14
4.15337e-14
4.41976e-14
4.3594e-14
5.0515e-14
3.34081e-14
1.4735e-14
9.5909e-15
1.57559e-14
1.48519e-14
1.99693e-14
1.15172e-14
2.71407e-14
3.777e-14
3.8474e-14
2.79226e-14
2.11567e-14
1.31876e-14
8.91551e-15
7.50677e-15
1.66752e-14
2.4411e-14
2.55036e-14
2.65153e-14
4.95938e-14
7.12606e-14
6.53667e-14
6.04349e-14
5.73595e-14
5.35087e-14
5.44053e-14
5.15574e-14
4.42127e-14
3.60029e-14
2.69317e-14
2.86929e-14
2.29913e-14
2.13398e-14
1.90342e-14
1.2665e-14
1.9438e-14
2.236e-14
1.25233e-14
2.6906e-14
8.02772e-14
5.48612e-15
4.22622e-15
2.24323e-14
3.97233e-14
6.50402e-14
6.3286e-14
4.62603e-14
2.57152e-14
2.73534e-14
2.47346e-14
2.48477e-14
1.82112e-14
2.62841e-14
1.76279e-14
1.37578e-14
1.7976e-14
2.35352e-14
1.75992e-14
2.24966e-14
3.14878e-14
3.60035e-14
3.29421e-14
3.66166e-14
3.53534e-14
2.90111e-14
2.1166e-14
3.01147e-14
4.29564e-14
4.07026e-14
4.2254e-14
3.49781e-14
3.48183e-14
3.21391e-14
4.1344e-14
5.7058e-14
6.16983e-14
4.88691e-14
3.27768e-14
2.34279e-14
3.53649e-14
4.63449e-14
5.23824e-14
6.87916e-14
6.97629e-14
4.18199e-14
1.9209e-14
2.37395e-14
1.8141e-14
2.0882e-14
1.68804e-14
2.40554e-14
2.01436e-14
2.91936e-14
1.29905e-14
1.26832e-14
1.29783e-14
3.65061e-14
4.1522e-14
4.32582e-14
3.92438e-14
4.2296e-14
3.67693e-14
1.69527e-14
1.31461e-14
2.25867e-14
1.6194e-14
2.75314e-14
1.02725e-14
3.29192e-14
4.84623e-14
4.68248e-14
3.00415e-14
2.5225e-14
1.34737e-14
5.09541e-15
8.49528e-15
1.42598e-14
2.07465e-14
2.14856e-14
1.94773e-14
4.42911e-14
6.26792e-14
6.36907e-14
6.12291e-14
5.67997e-14
5.27987e-14
5.64555e-14
4.86437e-14
4.87537e-14
3.60616e-14
3.31368e-14
2.27998e-14
1.94051e-14
2.04055e-14
1.6893e-14
2.10968e-14
2.83419e-14
2.53783e-14
1.46756e-14
1.90405e-14
4.89468e-15
3.86534e-15
1.29067e-14
3.47743e-14
4.98083e-14
5.37908e-14
4.01634e-14
2.75962e-14
2.46664e-14
2.4242e-14
1.35393e-14
5.5253e-15
1.05891e-14
7.928e-15
6.35574e-15
9.8541e-15
1.44959e-14
9.932e-15
1.53271e-14
2.83404e-14
2.54624e-14
2.28333e-14
2.54987e-14
2.67009e-14
2.08501e-14
1.7256e-14
2.92958e-14
4.08125e-14
3.91501e-14
3.77812e-14
3.42834e-14
3.10605e-14
2.62649e-14
3.27408e-14
4.54067e-14
5.18425e-14
4.11795e-14
3.00811e-14
1.97075e-14
3.33561e-14
4.61115e-14
5.06334e-14
5.91085e-14
5.12417e-14
2.84231e-14
1.64288e-14
1.30461e-14
1.773e-14
1.73985e-14
1.9043e-14
1.76498e-14
2.05224e-14
1.955e-14
1.09458e-14
7.28664e-15
2.34277e-14
3.79644e-14
4.43432e-14
4.63336e-14
3.90106e-14
3.18291e-14
2.8193e-14
7.7835e-15
1.45591e-14
2.1913e-14
1.85048e-14
1.94853e-14
1.41848e-14
3.27641e-14
4.75646e-14
4.34263e-14
3.17365e-14
1.77367e-14
1.31457e-14
7.08703e-15
8.61969e-15
1.24431e-14
1.72107e-14
1.83841e-14
2.59947e-14
4.28653e-14
5.95142e-14
6.29081e-14
6.43803e-14
5.83877e-14
4.71145e-14
5.10236e-14
5.15823e-14
4.93321e-14
4.13358e-14
3.31716e-14
1.21006e-14
4.60002e-15
3.63609e-15
9.86924e-15
2.02722e-14
3.46036e-14
3.59031e-14
2.95708e-14
2.09404e-14
1.40604e-14
1.31342e-14
1.05588e-14
8.42823e-15
6.30483e-15
1.12889e-14
1.65928e-14
1.9367e-14
1.9002e-14
1.08703e-14
5.68155e-15
1.4871e-14
1.08229e-14
6.18875e-15
3.26202e-15
1.09328e-14
1.65695e-14
1.66514e-14
3.30054e-14
3.67817e-14
3.47291e-14
3.03657e-14
2.87657e-14
2.43454e-14
2.45431e-14
2.87588e-14
3.9374e-14
4.31151e-14
3.59398e-14
3.32749e-14
2.54495e-14
3.33147e-14
3.60759e-14
4.60019e-14
4.27913e-14
2.99629e-14
6.8455e-15
1.24149e-14
1.85581e-14
1.4218e-14
1.06725e-14
1.74671e-14
9.46715e-15
8.09088e-15
1.16544e-14
4.84607e-15
2.00184e-14
3.53182e-14
4.2673e-14
3.99906e-14
2.50066e-14
1.69557e-14
1.70934e-14
2.29874e-14
2.2699e-14
3.6435e-14
3.73649e-14
2.76395e-14
3.05326e-14
2.61613e-14
2.38833e-14
2.42188e-14
2.38059e-14
2.2887e-14
2.46289e-14
3.0321e-14
3.72542e-14
3.36008e-14
2.47387e-14
1.36551e-14
1.60917e-14
1.78185e-14
2.12837e-14
2.17208e-14
1.97405e-14
1.82061e-14
2.34317e-14
3.59292e-14
4.23614e-14
3.77183e-14
3.02174e-14
2.37987e-14
2.54577e-14
2.88414e-14
3.2436e-14
3.84846e-14
4.11068e-14
4.56128e-14
4.17067e-14
3.90112e-14
4.07462e-14
3.95572e-14
4.27675e-14
3.87431e-14
2.51374e-14
1.81785e-14
1.86244e-14
1.93124e-14
1.50746e-14
1.43949e-14
1.00883e-14
1.21274e-14
1.37751e-14
1.5229e-14
1.63402e-14
2.626e-14
3.88384e-14
3.49484e-14
3.02283e-14
2.87406e-14
2.89081e-14
3.03264e-14
3.15687e-14
3.25969e-14
2.76491e-14
2.76947e-14
2.34667e-14
2.4161e-14
2.12542e-14
2.28064e-14
2.32186e-14
3.06267e-14
3.63652e-14
4.43e-14
3.31701e-14
2.39025e-14
1.56498e-14
1.62115e-14
1.71293e-14
1.97648e-14
2.12513e-14
2.12356e-14
2.15735e-14
2.42017e-14
3.45335e-14
4.05777e-14
3.48387e-14
2.78974e-14
2.11121e-14
2.16064e-14
2.34532e-14
3.13507e-14
4.24247e-14
4.89911e-14
4.69993e-14
4.72314e-14
4.41349e-14
4.43043e-14
4.56485e-14
4.66001e-14
3.89747e-14
2.51557e-14
1.66793e-14
2.07963e-14
1.4079e-14
1.14512e-14
1.24846e-14
1.26344e-14
1.05522e-14
1.60437e-14
1.93575e-14
1.71457e-14
1.98828e-14
4.88138e-14
4.67725e-14
4.48433e-14
4.16583e-14
4.23898e-14
3.87557e-14
3.40015e-14
3.5183e-14
3.0901e-14
3.04932e-14
3.2601e-14
3.64432e-14
3.78862e-14
3.42978e-14
4.09463e-14
4.80511e-14
5.12199e-14
3.93997e-14
2.70936e-14
2.7171e-14
3.32581e-14
2.63139e-14
2.55619e-14
2.47762e-14
3.17816e-14
3.35545e-14
3.52016e-14
3.66408e-14
4.45296e-14
3.89925e-14
3.09535e-14
2.58557e-14
2.42953e-14
2.40925e-14
3.62414e-14
4.65813e-14
5.67762e-14
5.01789e-14
4.81353e-14
4.21842e-14
4.40459e-14
4.55291e-14
4.7327e-14
4.31604e-14
3.68405e-14
3.05935e-14
2.9749e-14
2.41605e-14
2.42401e-14
2.05249e-14
2.83448e-14
2.58876e-14
3.0836e-14
2.83646e-14
2.52799e-14
2.80964e-14
5.509e-14
5.21542e-14
4.56321e-14
4.74022e-14
4.49835e-14
4.51014e-14
3.76871e-14
4.30674e-14
4.2256e-14
4.64371e-14
4.87795e-14
5.07827e-14
5.19108e-14
5.01574e-14
5.15821e-14
5.34508e-14
4.66863e-14
4.47133e-14
3.47938e-14
3.97783e-14
3.84558e-14
2.93256e-14
2.65086e-14
3.01845e-14
3.94115e-14
4.58011e-14
4.20827e-14
4.12255e-14
4.23253e-14
4.28095e-14
3.47623e-14
3.5644e-14
3.14294e-14
3.31475e-14
3.95191e-14
4.93397e-14
5.04924e-14
4.93216e-14
4.29348e-14
4.12899e-14
3.85993e-14
4.34534e-14
4.3779e-14
3.75436e-14
3.61177e-14
3.69315e-14
3.48558e-14
3.92946e-14
3.77431e-14
3.28676e-14
3.97324e-14
4.25688e-14
4.02069e-14
3.72653e-14
3.8205e-14
3.68699e-14
4.42933e-14
4.33099e-14
3.10516e-14
2.87323e-14
3.05982e-14
2.98911e-14
2.65688e-14
3.63173e-14
3.99983e-14
3.63865e-14
3.56559e-14
3.61533e-14
2.96982e-14
3.67785e-14
3.9334e-14
3.6978e-14
3.1907e-14
3.3237e-14
3.36507e-14
3.13362e-14
2.70306e-14
2.34757e-14
2.03063e-14
3.10806e-14
3.09678e-14
3.2534e-14
3.13603e-14
3.09016e-14
3.41179e-14
3.11664e-14
2.41431e-14
2.34003e-14
1.90873e-14
2.49199e-14
2.52412e-14
3.7512e-14
4.04477e-14
3.96584e-14
3.17738e-14
2.78774e-14
2.1327e-14
2.75809e-14
2.94342e-14
2.85052e-14
3.01001e-14
3.48044e-14
2.7622e-14
2.71738e-14
2.53258e-14
3.06229e-14
3.09412e-14
2.55131e-14
2.12365e-14
2.11867e-14
2.30454e-14
2.26053e-14
2.97269e-14
2.93961e-14
2.82549e-14
1.73961e-14
1.73157e-14
1.62403e-14
2.29039e-14
2.04252e-14
2.25102e-14
2.52793e-14
1.64194e-14
2.32804e-14
2.12058e-14
2.46651e-14
3.00197e-14
2.59913e-14
1.95336e-14
2.3465e-14
2.27491e-14
2.34342e-14
2.43476e-14
1.90754e-14
2.02923e-14
2.4668e-14
1.85419e-14
2.426e-14
2.73671e-14
2.57051e-14
2.63523e-14
2.06157e-14
1.51333e-14
1.14906e-14
1.15719e-14
1.81712e-14
2.33035e-14
3.3515e-14
3.79915e-14
3.32332e-14
2.22303e-14
1.39392e-14
1.29225e-14
1.24386e-14
1.17482e-14
1.695e-14
2.0503e-14
2.41451e-14
2.01122e-14
1.63765e-14
1.53934e-14
1.84549e-14
2.19938e-14
1.495e-14
7.65362e-15
1.41432e-14
1.56255e-14
1.86708e-14
2.89471e-14
2.88013e-14
3.7026e-14
2.63899e-14
2.13242e-14
2.37914e-14
2.98029e-14
3.04228e-14
2.79765e-14
3.06093e-14
2.21982e-14
1.5741e-14
2.53992e-14
2.22646e-14
2.41244e-14
2.26599e-14
2.11731e-14
2.2758e-14
2.51088e-14
2.2047e-14
2.06005e-14
1.90715e-14
2.86953e-14
3.09919e-14
3.03279e-14
3.34992e-14
3.38243e-14
3.22056e-14
2.67269e-14
2.259e-14
1.86032e-14
1.60122e-14
1.45937e-14
1.61549e-14
2.82424e-14
3.6325e-14
3.41102e-14
2.5585e-14
1.91106e-14
1.58285e-14
2.03241e-14
1.36326e-14
1.29668e-14
1.1456e-14
1.766e-14
1.72369e-14
1.66761e-14
1.81416e-14
2.05794e-14
2.0008e-14
2.17545e-14
1.99281e-14
1.44668e-14
1.64977e-14
1.87509e-14
2.02667e-14
4.47643e-14
3.75856e-14
3.8324e-14
4.50071e-14
3.82248e-14
3.9826e-14
3.71005e-14
4.55587e-14
4.50019e-14
4.3379e-14
3.62945e-14
2.22575e-14
2.24234e-14
2.04991e-14
2.82552e-14
3.47214e-14
3.42559e-14
3.45e-14
3.08535e-14
3.14662e-14
2.96057e-14
3.51698e-14
3.84206e-14
4.55588e-14
4.5663e-14
4.90895e-14
4.32656e-14
4.46877e-14
3.34772e-14
3.43528e-14
2.80702e-14
3.70044e-14
2.73389e-14
2.90551e-14
3.43209e-14
3.35594e-14
3.30016e-14
3.02471e-14
2.91396e-14
3.42162e-14
3.60482e-14
3.36041e-14
2.93891e-14
2.3469e-14
2.88218e-14
2.57537e-14
2.6556e-14
2.77052e-14
2.90257e-14
3.0311e-14
3.34306e-14
3.45732e-14
2.93133e-14
2.92319e-14
3.10937e-14
2.9777e-14
4.58447e-14
3.93577e-14
3.24021e-14
3.97541e-14
4.5992e-14
4.96593e-14
4.55425e-14
4.13213e-14
4.64719e-14
4.76464e-14
4.39204e-14
2.92754e-14
2.59585e-14
2.63122e-14
4.11902e-14
4.67519e-14
4.62456e-14
4.27104e-14
3.27348e-14
3.12143e-14
3.50241e-14
3.93883e-14
3.66496e-14
4.47482e-14
4.98793e-14
4.76372e-14
4.16327e-14
4.30876e-14
3.94628e-14
2.47677e-14
2.58464e-14
2.21031e-14
2.37912e-14
3.07625e-14
3.46945e-14
3.48254e-14
4.31196e-14
3.63035e-14
3.96264e-14
3.78641e-14
4.25237e-14
4.66823e-14
4.53034e-14
3.57096e-14
4.19607e-14
3.82288e-14
3.66665e-14
3.5488e-14
3.5579e-14
4.22551e-14
4.1e-14
3.80049e-14
3.7304e-14
3.36506e-14