/*--------------------------------*- C++ -*----------------------------------*\
| =========                 |                                                 |
| \\      /  F ield         | OpenFOAM: The Open Source CFD Toolbox           |
|  \\    /   O peration     | Version:  2406                                  |
|   \\  /    A nd           | Website:  www.openfoam.com                      |
|    \\/     M anipulation  |                                                 |
\*---------------------------------------------------------------------------*/
FoamFile
{
    version     2.0;
    format      ascii;
    arch        "LSB;label=32;scalar=64";
    class       volScalarField;
    location    "0.035";
    object      Ma;
}
// * * * * * * * * * * * * * * * * * * * * * * * * * * * * * * * * * * * * * //

dimensions      [0 0 0 0 0 0 0];

internalField   nonuniform List<scalar> 
13948
(
8.81489e-14
1.06183e-13
1.31852e-13
1.35284e-13
1.08206e-13
9.58292e-14
1.10549e-13
1.13947e-13
1.34397e-13
1.339e-13
1.42873e-13
1.63619e-13
1.8018e-13
2.00729e-13
2.04635e-13
1.96673e-13
1.76922e-13
1.66584e-13
1.60786e-13
1.63779e-13
1.5778e-13
1.46152e-13
1.30359e-13
1.1554e-13
1.15828e-13
8.58451e-14
7.27452e-14
8.9416e-14
8.24959e-14
9.85788e-14
9.36059e-14
1.14938e-13
1.3573e-13
1.27694e-13
1.13076e-13
9.59069e-14
1.00441e-13
8.90855e-14
1.06786e-13
1.02046e-13
1.27368e-13
1.41325e-13
1.58603e-13
1.52562e-13
1.39294e-13
1.28429e-13
9.51442e-14
8.22594e-14
9.57489e-14
7.05007e-14
8.47626e-14
9.681e-14
8.3655e-14
8.30369e-14
6.97378e-14
8.22733e-14
7.8105e-14
8.58564e-14
9.32845e-14
1.19019e-13
1.17183e-13
1.1994e-13
9.36974e-14
8.45724e-14
5.46068e-14
4.78368e-14
3.83993e-14
3.83064e-14
2.22561e-14
4.32959e-14
4.27122e-14
1.94446e-14
6.05928e-14
5.49303e-14
5.87421e-14
5.46235e-14
5.44385e-14
5.89187e-14
6.17727e-14
8.3253e-14
8.79834e-14
9.50786e-14
8.52288e-14
6.66516e-14
8.72572e-14
1.05081e-13
1.27355e-13
1.18166e-13
1.02481e-13
6.98112e-14
6.05502e-14
5.05305e-14
3.59533e-14
6.29401e-14
8.7714e-14
8.24508e-14
7.2037e-14
1.26577e-13
1.00919e-13
4.89422e-14
8.31707e-14
1.03825e-13
1.32462e-13
1.24241e-13
1.06579e-13
9.34877e-14
1.09438e-13
1.14599e-13
1.28923e-13
1.21609e-13
1.28746e-13
1.58086e-13
1.76046e-13
1.87257e-13
1.84762e-13
1.75036e-13
1.5535e-13
1.57474e-13
1.507e-13
1.5478e-13
1.39458e-13
1.28951e-13
1.22165e-13
1.09839e-13
1.05097e-13
8.26e-14
7.34459e-14
9.36438e-14
8.05618e-14
9.87928e-14
8.96974e-14
1.04097e-13
1.30811e-13
1.1965e-13
9.64459e-14
8.28142e-14
9.80818e-14
7.95635e-14
9.72732e-14
9.85118e-14
1.28166e-13
1.35035e-13
1.49473e-13
1.45673e-13
1.37608e-13
1.1942e-13
9.27107e-14
7.76942e-14
7.51281e-14
6.89666e-14
8.41497e-14
9.02983e-14
7.518e-14
8.68711e-14
7.2579e-14
8.81633e-14
8.28695e-14
7.56073e-14
9.14418e-14
1.11763e-13
1.23363e-13
1.19258e-13
9.82698e-14
6.98498e-14
5.6126e-14
5.80188e-14
5.03772e-14
3.77037e-14
2.87454e-14
4.43772e-14
4.62844e-14
1.93666e-14
5.2684e-14
5.91521e-14
6.15841e-14
6.09095e-14
5.91066e-14
5.7563e-14
5.9034e-14
7.60685e-14
8.514e-14
8.3521e-14
7.98172e-14
7.88215e-14
9.12124e-14
1.03056e-13
1.1603e-13
1.07936e-13
8.87847e-14
6.5681e-14
5.86784e-14
4.70429e-14
3.85612e-14
6.42101e-14
8.58864e-14
9.08249e-14
7.63768e-14
1.08813e-13
8.9634e-14
3.59245e-14
2.80863e-14
2.31031e-14
2.37219e-14
2.61962e-14
3.11758e-14
2.91655e-14
2.9714e-14
4.07016e-14
4.55041e-14
7.70907e-14
1.04759e-13
1.11289e-13
1.03596e-13
9.84893e-14
9.19357e-14
1.04126e-13
1.00597e-13
1.19648e-13
1.15607e-13
1.18612e-13
1.45645e-13
1.63862e-13
1.62315e-13
1.56204e-13
1.44442e-13
1.30553e-13
1.37459e-13
1.33546e-13
1.20429e-13
1.20752e-13
1.18021e-13
1.15673e-13
9.91789e-14
8.93268e-14
8.26062e-14
6.85025e-14
8.0279e-14
7.635e-14
7.30537e-14
7.72015e-14
9.00053e-14
1.0364e-13
1.01799e-13
8.76633e-14
6.46035e-14
7.26609e-14
6.47471e-14
7.24139e-14
8.69597e-14
1.18109e-13
1.24196e-13
1.19938e-13
1.27355e-13
1.20874e-13
9.96409e-14
9.3833e-14
7.69927e-14
6.16613e-14
5.96539e-14
6.80972e-14
7.53571e-14
6.84818e-14
6.99402e-14
7.50828e-14
7.68197e-14
8.38014e-14
7.1378e-14
8.26715e-14
1.05433e-13
1.22906e-13
1.11941e-13
8.31765e-14
6.10932e-14
6.58983e-14
6.68575e-14
6.05204e-14
4.52061e-14
4.38199e-14
5.24682e-14
5.16508e-14
3.84405e-14
5.26024e-14
6.48061e-14
6.71108e-14
7.11298e-14
6.93392e-14
6.34627e-14
7.02522e-14
7.71941e-14
8.36011e-14
7.29327e-14
7.52928e-14
8.06615e-14
8.90223e-14
9.74395e-14
9.63093e-14
9.21218e-14
7.53532e-14
6.91776e-14
6.14686e-14
4.77407e-14
3.25438e-14
6.44148e-14
9.58513e-14
9.52249e-14
9.05062e-14
8.63467e-14
6.88185e-14
4.43576e-14
3.35045e-14
3.35908e-14
3.24441e-14
4.45702e-14
5.42503e-14
5.35109e-14
6.06551e-14
6.73373e-14
5.26342e-14
4.12317e-14
3.97339e-14
3.85568e-14
3.72965e-14
3.35846e-14
3.77538e-14
3.79961e-14
3.34266e-14
3.32279e-14
2.55819e-14
3.09015e-14
3.35084e-14
4.84908e-14
6.17114e-14
7.53957e-14
7.90914e-14
7.76652e-14
6.98946e-14
6.9219e-14
6.36494e-14
5.0239e-14
3.28181e-14
2.12487e-14
1.8671e-14
1.35998e-14
1.84558e-14
2.43459e-14
2.79835e-14
3.16649e-14
2.75972e-14
2.34477e-14
3.91599e-14
5.5808e-14
7.83954e-14
9.41639e-14
1.01836e-13
1.02759e-13
8.93795e-14
9.25958e-14
9.78804e-14
9.47336e-14
1.19772e-13
1.21586e-13
1.27121e-13
1.36569e-13
1.47482e-13
1.37759e-13
1.33818e-13
1.23926e-13
1.2359e-13
1.17787e-13
1.13852e-13
1.04687e-13
1.23312e-13
1.23224e-13
1.17906e-13
1.01196e-13
9.35132e-14
8.27489e-14
7.35361e-14
7.86711e-14
8.03471e-14
6.93224e-14
7.50555e-14
9.22725e-14
9.20377e-14
8.67115e-14
7.391e-14
6.95591e-14
6.69762e-14
6.92069e-14
7.73291e-14
9.45022e-14
1.0899e-13
1.21388e-13
1.08847e-13
1.07045e-13
1.05704e-13
9.71155e-14
9.37003e-14
7.65999e-14
6.4164e-14
5.16647e-14
4.67943e-14
5.80197e-14
5.95888e-14
5.87453e-14
7.29779e-14
7.50084e-14
7.84513e-14
7.28735e-14
8.41829e-14
9.62786e-14
1.03586e-13
8.90514e-14
6.31123e-14
6.60472e-14
7.64436e-14
5.66725e-14
4.27369e-14
4.75512e-14
4.40652e-14
5.32767e-14
5.24326e-14
4.75082e-14
6.17459e-14
5.97973e-14
6.04676e-14
6.95624e-14
6.63575e-14
6.46566e-14
5.67229e-14
6.47839e-14
7.17742e-14
7.84413e-14
7.84009e-14
8.23619e-14
7.78885e-14
7.74007e-14
7.66823e-14
7.61882e-14
7.32304e-14
6.97022e-14
5.63338e-14
4.92584e-14
4.5461e-14
6.96441e-14
1.06657e-13
1.02052e-13
9.8442e-14
7.89041e-14
6.22307e-14
5.60529e-14
5.44732e-14
5.10693e-14
4.33406e-14
3.05811e-14
3.11433e-14
4.02152e-14
4.84863e-14
5.16124e-14
4.89434e-14
5.31141e-14
4.44799e-14
3.58041e-14
3.85119e-14
3.81079e-14
3.72351e-14
3.12467e-14
3.65963e-14
3.69222e-14
3.41144e-14
3.54922e-14
3.25987e-14
2.76928e-14
3.39757e-14
4.27921e-14
5.95828e-14
6.71818e-14
6.70514e-14
6.91105e-14
6.16821e-14
5.43394e-14
4.60245e-14
3.40358e-14
2.13492e-14
1.48577e-14
1.44845e-14
1.47725e-14
2.52155e-14
2.90666e-14
3.13619e-14
3.11334e-14
2.26361e-14
2.439e-14
3.03499e-14
5.1791e-14
6.6312e-14
6.51614e-14
8.39543e-14
8.45682e-14
6.68566e-14
7.49781e-14
8.15813e-14
8.96097e-14
1.03991e-13
1.14487e-13
1.19414e-13
1.17129e-13
1.19511e-13
1.10582e-13
1.05335e-13
1.00452e-13
1.05321e-13
9.50517e-14
8.95238e-14
1.02042e-13
1.12071e-13
1.08015e-13
1.05646e-13
9.42496e-14
8.53371e-14
6.85178e-14
7.13415e-14
6.89323e-14
6.99503e-14
6.996e-14
7.14215e-14
8.32927e-14
7.56192e-14
6.42304e-14
5.28319e-14
6.88509e-14
7.26065e-14
7.22294e-14
8.17868e-14
9.14468e-14
9.8385e-14
1.03696e-13
1.04704e-13
1.04026e-13
1.06297e-13
9.94906e-14
8.27253e-14
6.12239e-14
4.93816e-14
4.65028e-14
3.01664e-14
3.28315e-14
3.90085e-14
5.13723e-14
5.70524e-14
6.68976e-14
6.67144e-14
6.17357e-14
7.71728e-14
8.00085e-14
7.43768e-14
6.37998e-14
5.09254e-14
5.13771e-14
4.71877e-14
3.07084e-14
2.21239e-14
3.12389e-14
3.94924e-14
5.44124e-14
4.90874e-14
4.40153e-14
5.32011e-14
5.68882e-14
5.51937e-14
6.21443e-14
6.2552e-14
5.44328e-14
4.6156e-14
5.21173e-14
6.27644e-14
7.38349e-14
6.82781e-14
7.77306e-14
6.63973e-14
6.01238e-14
6.07192e-14
5.47226e-14
5.91593e-14
5.77932e-14
4.71349e-14
4.58973e-14
5.93003e-14
8.21374e-14
1.08577e-13
1.02113e-13
9.88206e-14
7.37667e-14
7.02606e-14
7.31868e-14
6.49327e-14
6.16436e-14
6.37778e-14
5.41142e-14
3.8488e-14
3.89717e-14
4.89439e-14
4.47515e-14
5.14584e-14
4.76342e-14
5.79306e-14
5.24335e-14
4.82296e-14
4.77044e-14
5.08341e-14
5.0479e-14
4.83418e-14
4.81277e-14
4.81985e-14
4.63584e-14
4.82209e-14
4.43512e-14
3.77273e-14
4.25587e-14
5.06479e-14
6.21085e-14
6.92532e-14
6.51213e-14
6.89893e-14
6.06255e-14
4.92426e-14
4.08186e-14
3.66915e-14
2.77705e-14
2.41069e-14
2.16805e-14
2.36864e-14
3.08927e-14
3.37078e-14
3.72457e-14
3.4001e-14
2.32121e-14
2.35863e-14
2.27458e-14
3.5327e-14
4.6313e-14
3.83325e-14
5.92418e-14
6.23673e-14
5.00616e-14
5.9101e-14
6.43877e-14
7.032e-14
8.21767e-14
9.49047e-14
9.7918e-14
8.99375e-14
9.661e-14
9.69084e-14
9.31796e-14
8.34778e-14
8.43807e-14
8.02718e-14
7.22841e-14
8.79904e-14
9.04595e-14
9.24565e-14
8.84299e-14
7.46723e-14
5.84751e-14
4.78098e-14
4.84108e-14
5.35409e-14
4.92188e-14
5.53751e-14
6.2591e-14
6.62127e-14
5.90879e-14
4.46592e-14
4.2416e-14
5.65165e-14
6.75381e-14
5.76e-14
7.28048e-14
7.60209e-14
8.47463e-14
7.98433e-14
8.77792e-14
9.00924e-14
9.08238e-14
8.65828e-14
5.84197e-14
3.17023e-14
2.93083e-14
3.17377e-14
2.86801e-14
1.74736e-14
3.37192e-14
5.59258e-14
5.87251e-14
5.80674e-14
5.52966e-14
5.98079e-14
6.32312e-14
6.24458e-14
5.31473e-14
4.76598e-14
3.64183e-14
2.35555e-14
1.85616e-14
1.5696e-14
8.50468e-15
1.65946e-14
3.8883e-14
4.9096e-14
4.38508e-14
4.56702e-14
4.42358e-14
5.38188e-14
5.3153e-14
5.92024e-14
6.76457e-14
5.8096e-14
4.10634e-14
4.6346e-14
6.15868e-14
5.91395e-14
5.47767e-14
6.43947e-14
6.52279e-14
5.10494e-14
5.43419e-14
4.04892e-14
4.82069e-14
5.1914e-14
5.55681e-14
5.75158e-14
6.8291e-14
9.01888e-14
1.10392e-13
1.04877e-13
9.64345e-14
7.43092e-14
6.62007e-14
6.0876e-14
5.50966e-14
5.54096e-14
5.84694e-14
5.67481e-14
3.94146e-14
4.33914e-14
4.16958e-14
4.63772e-14
4.54221e-14
5.45783e-14
5.18036e-14
4.76462e-14
4.2767e-14
4.0462e-14
4.44578e-14
4.34705e-14
4.03352e-14
3.97633e-14
3.71223e-14
4.01206e-14
3.45302e-14
3.69765e-14
3.65225e-14
3.39982e-14
3.90973e-14
4.95117e-14
5.59675e-14
5.3571e-14
5.2405e-14
4.49238e-14
3.13789e-14
2.04017e-14
2.47725e-14
2.05639e-14
2.01452e-14
2.35681e-14
3.38211e-14
3.3097e-14
3.2817e-14
2.75902e-14
2.1801e-14
1.49031e-14
1.9825e-14
1.9318e-14
2.54437e-14
4.36431e-14
2.926e-14
4.08233e-14
3.83674e-14
3.85946e-14
4.20968e-14
4.40732e-14
5.81452e-14
6.56526e-14
6.17501e-14
7.14899e-14
8.12604e-14
7.20188e-14
6.73241e-14
7.35718e-14
5.89475e-14
4.93577e-14
4.22475e-14
4.82343e-14
6.18595e-14
6.98938e-14
9.18915e-14
7.89135e-14
5.36395e-14
3.29185e-14
3.91393e-14
4.4467e-14
4.20174e-14
3.4227e-14
3.56644e-14
4.28556e-14
4.45034e-14
3.84818e-14
4.78096e-14
4.52201e-14
3.47895e-14
4.49895e-14
5.495e-14
5.39737e-14
5.63538e-14
6.46069e-14
7.15407e-14
6.44931e-14
7.35904e-14
7.22365e-14
6.54463e-14
4.25784e-14
1.72993e-14
2.74889e-14
2.18569e-14
4.13796e-14
2.00379e-14
3.24689e-14
5.92404e-14
6.15038e-14
4.57174e-14
3.64287e-14
5.44758e-14
4.93904e-14
3.76402e-14
3.09533e-14
3.51441e-14
2.19061e-14
1.70979e-14
2.86408e-14
9.07683e-15
9.48953e-15
1.7144e-14
1.95033e-14
4.14893e-14
4.31993e-14
3.60003e-14
3.8632e-14
3.97573e-14
3.69893e-14
4.30141e-14
4.55654e-14
4.62129e-14
4.23715e-14
3.88531e-14
4.02757e-14
4.63346e-14
3.60851e-14
4.34237e-14
4.40869e-14
4.38538e-14
3.9894e-14
4.50245e-14
4.42942e-14
4.23367e-14
4.68539e-14
5.20099e-14
7.66831e-14
1.05311e-13
1.17113e-13
1.01447e-13
9.49221e-14
7.41433e-14
7.00385e-14
4.30626e-14
3.30107e-14
2.91303e-14
3.06519e-14
3.66396e-14
2.97632e-14
3.55713e-14
3.46005e-14
4.3679e-14
4.17009e-14
4.81197e-14
3.05024e-14
2.44591e-14
1.99474e-14
2.32841e-14
2.15032e-14
2.28631e-14
2.08126e-14
2.21433e-14
2.17353e-14
1.86276e-14
1.49074e-14
1.9677e-14
1.48779e-14
1.7484e-14
1.87623e-14
2.22043e-14
3.0387e-14
3.85973e-14
3.10292e-14
2.82025e-14
1.45474e-14
1.9249e-14
1.64768e-14
1.92734e-14
2.21007e-14
3.20335e-14
4.00999e-14
2.95595e-14
1.82358e-14
1.66344e-14
2.04484e-14
1.4232e-14
1.35237e-14
1.68358e-14
2.41395e-14
3.61189e-14
4.26964e-14
2.78962e-14
2.45494e-14
3.10464e-14
3.11512e-14
3.25053e-14
4.406e-14
3.70018e-14
4.53339e-14
5.36323e-14
7.01524e-14
6.08669e-14
6.31754e-14
4.9645e-14
4.70986e-14
3.0329e-14
3.15424e-14
4.27163e-14
3.97733e-14
5.14565e-14
7.97883e-14
6.31735e-14
4.49598e-14
3.20562e-14
4.17487e-14
4.90231e-14
3.74878e-14
2.98268e-14
2.99006e-14
3.38918e-14
2.51966e-14
2.42306e-14
3.94424e-14
2.53245e-14
2.35005e-14
2.65948e-14
4.50307e-14
3.87337e-14
4.5625e-14
5.22027e-14
5.77645e-14
5.86175e-14
6.02323e-14
5.44406e-14
5.246e-14
3.74172e-14
2.32584e-14
2.68032e-14
1.50819e-14
3.16371e-14
1.59345e-14
2.11753e-14
4.58526e-14
4.44293e-14
3.8479e-14
1.78102e-14
3.69096e-14
3.91501e-14
2.56743e-14
2.34743e-14
2.18201e-14
2.44208e-14
1.74295e-14
1.84045e-14
2.54669e-14
7.30387e-15
7.27429e-15
7.93969e-15
1.99591e-14
3.14392e-14
2.91274e-14
2.59655e-14
2.10213e-14
2.64131e-14
2.28341e-14
3.51097e-14
3.87484e-14
4.50016e-14
3.21178e-14
1.44863e-14
3.11771e-14
2.88233e-14
3.2444e-14
3.0567e-14
4.28438e-14
3.86483e-14
5.07685e-14
4.61995e-14
5.0706e-14
4.93833e-14
4.823e-14
6.99631e-14
9.52826e-14
9.43153e-14
7.7197e-14
7.62531e-14
6.43503e-14
7.61623e-14
2.11517e-14
1.13484e-14
3.5013e-15
6.76101e-15
1.72469e-14
1.25053e-14
1.43427e-14
2.48092e-14
2.97883e-14
2.9296e-14
2.62846e-14
1.68617e-14
3.5725e-15
1.18745e-14
1.30558e-14
1.03413e-14
7.12081e-15
9.55057e-15
1.02005e-14
9.18273e-15
2.61815e-15
6.40338e-15
1.04836e-14
9.24361e-15
1.26606e-14
1.36865e-14
1.56394e-14
1.59263e-14
1.54966e-14
5.28918e-15
1.6482e-14
1.64074e-14
2.08271e-14
2.23958e-14
2.63342e-14
3.04861e-14
3.0293e-14
2.36815e-14
1.574e-14
1.08985e-14
1.69747e-14
1.7624e-14
1.88192e-14
1.78666e-14
1.79189e-14
3.00195e-14
3.42288e-14
4.16209e-14
3.58355e-14
2.16977e-14
2.73813e-14
4.07328e-14
3.93007e-14
3.57334e-14
2.90096e-14
3.62562e-14
5.12342e-14
5.68902e-14
6.43875e-14
6.61197e-14
5.2545e-14
5.58759e-14
3.98362e-14
5.18534e-14
5.48531e-14
5.14243e-14
5.19389e-14
6.31326e-14
5.85058e-14
5.77218e-14
4.60126e-14
4.92124e-14
6.12995e-14
5.31866e-14
3.98198e-14
4.18358e-14
3.92092e-14
2.35801e-14
2.54847e-14
2.87188e-14
1.71512e-14
3.15773e-14
3.1224e-14
2.7472e-14
4.85741e-14
5.83979e-14
5.82572e-14
5.12118e-14
6.82312e-14
7.06648e-14
6.58368e-14
5.28971e-14
4.61463e-14
3.9062e-14
3.2228e-14
2.62031e-14
2.80113e-14
1.325e-14
1.81019e-14
1.6267e-14
1.96015e-14
2.07756e-14
2.40696e-14
4.06373e-14
2.71038e-14
2.80527e-14
1.95667e-14
1.98303e-14
2.46599e-14
1.48124e-14
1.3797e-14
1.44357e-14
1.70934e-14
9.28958e-15
3.84733e-15
1.04159e-14
1.47948e-14
1.98415e-14
2.56421e-14
1.83539e-14
1.87793e-14
2.15734e-14
4.38371e-14
4.49467e-14
3.93694e-14
2.70256e-14
1.88064e-14
3.16424e-14
3.38559e-14
3.73448e-14
3.59834e-14
2.9053e-14
4.13476e-14
5.49435e-14
5.30153e-14
5.90047e-14
5.66342e-14
5.11621e-14
6.39196e-14
7.41677e-14
7.39901e-14
6.60161e-14
6.70852e-14
7.0099e-14
7.56546e-14
2.45697e-14
1.87135e-14
1.13994e-14
1.45992e-14
1.27975e-14
1.02581e-14
9.04304e-15
1.05381e-14
1.34069e-14
1.93003e-14
2.06337e-14
2.00294e-14
1.47037e-14
1.10488e-14
1.89925e-14
1.96169e-14
2.14543e-14
1.92621e-14
1.55309e-14
1.16989e-14
1.36308e-14
1.37829e-14
1.83603e-14
1.37734e-14
1.59925e-14
2.07569e-14
1.84473e-14
1.5619e-14
1.41593e-14
1.4315e-14
1.34037e-14
1.35782e-14
1.67201e-14
2.76741e-14
3.18485e-14
3.03511e-14
2.53301e-14
1.99016e-14
1.45593e-14
1.50352e-14
2.0938e-14
2.16444e-14
1.74078e-14
2.18305e-14
2.6679e-14
3.15919e-14
3.75777e-14
4.64467e-14
4.18755e-14
3.33075e-14
3.21363e-14
3.79599e-14
4.14367e-14
3.28312e-14
3.55468e-14
3.61676e-14
4.95597e-14
6.28537e-14
6.56098e-14
6.67162e-14
6.40189e-14
5.11398e-14
4.94108e-14
6.11195e-14
6.77811e-14
6.8696e-14
5.83218e-14
4.98843e-14
5.78601e-14
5.52918e-14
5.57681e-14
5.72828e-14
6.22662e-14
5.53257e-14
5.05414e-14
5.01443e-14
4.49956e-14
3.52587e-14
3.07167e-14
2.56926e-14
3.07738e-14
3.38535e-14
4.01073e-14
3.62723e-14
4.88033e-14
5.19984e-14
5.6958e-14
5.41454e-14
6.23934e-14
6.25304e-14
6.88501e-14
5.74634e-14
5.2673e-14
5.24538e-14
4.26568e-14
4.32609e-14
4.85879e-14
3.5305e-14
2.77945e-14
1.88383e-14
2.7461e-14
3.2121e-14
3.47616e-14
4.06142e-14
3.8324e-14
3.25479e-14
2.2549e-14
2.80653e-14
2.9248e-14
3.46202e-14
2.78207e-14
1.81665e-14
2.64444e-14
2.02492e-14
1.86082e-14
1.51988e-14
1.95742e-14
2.26768e-14
2.82763e-14
2.49793e-14
3.02119e-14
2.61193e-14
2.99537e-14
2.96862e-14
3.05471e-14
4.07176e-14
3.46655e-14
3.8776e-14
4.12574e-14
5.11854e-14
4.63729e-14
3.90568e-14
4.09005e-14
6.55164e-14
7.04692e-14
7.27282e-14
5.61201e-14
5.3354e-14
6.25169e-14
7.53114e-14
7.22674e-14
6.35237e-14
5.93313e-14
7.48027e-14
8.65662e-14
2.83907e-14
2.15679e-14
1.58218e-14
1.51961e-14
1.45328e-14
1.39037e-14
1.27961e-14
1.49291e-14
1.61617e-14
1.87348e-14
2.19001e-14
2.07831e-14
1.58962e-14
1.78303e-14
2.38406e-14
2.51003e-14
2.49137e-14
2.4501e-14
1.93399e-14
1.54807e-14
1.3688e-14
9.38355e-15
1.05181e-14
8.35256e-15
1.45748e-14
1.63953e-14
1.60691e-14
1.21431e-14
1.0884e-14
1.15666e-14
2.11375e-14
1.99346e-14
2.00939e-14
2.59117e-14
2.85118e-14
3.14176e-14
2.72696e-14
2.56201e-14
2.3281e-14
2.32322e-14
2.22604e-14
2.32958e-14
2.90662e-14
3.0945e-14
2.99261e-14
3.18499e-14
3.16593e-14
3.54757e-14
3.07664e-14
3.69741e-14
2.33671e-14
2.04611e-14
2.22904e-14
3.28097e-14
3.05775e-14
3.59388e-14
3.80299e-14
5.19584e-14
5.56428e-14
5.46127e-14
6.07454e-14
4.93044e-14
5.76345e-14
5.87151e-14
5.83064e-14
5.13637e-14
4.7203e-14
3.15575e-14
4.22946e-14
4.16375e-14
5.43517e-14
5.25055e-14
4.84795e-14
4.44029e-14
3.78271e-14
4.31162e-14
4.36792e-14
3.64204e-14
3.58881e-14
2.68848e-14
3.22079e-14
2.58072e-14
2.75294e-14
3.62291e-14
3.0763e-14
3.26712e-14
3.73005e-14
4.16266e-14
4.87058e-14
4.73303e-14
5.8421e-14
4.98298e-14
3.50543e-14
3.74359e-14
4.07997e-14
4.40443e-14
4.10204e-14
2.81235e-14
2.42223e-14
2.09394e-14
3.0616e-14
2.83664e-14
3.43619e-14
2.8711e-14
4.27902e-14
3.30314e-14
3.44746e-14
2.43074e-14
3.41955e-14
4.2136e-14
3.12255e-14
2.66975e-14
3.66223e-14
2.32072e-14
1.8112e-14
2.1044e-14
1.94438e-14
2.91935e-14
3.97285e-14
3.94145e-14
2.76815e-14
1.54691e-14
1.33804e-14
2.26003e-14
2.46265e-14
3.46461e-14
3.82835e-14
3.66588e-14
4.13172e-14
3.88987e-14
3.81769e-14
4.62724e-14
5.11024e-14
6.82035e-14
7.59876e-14
7.71335e-14
6.27368e-14
4.77638e-14
5.00252e-14
5.83213e-14
7.10719e-14
7.13388e-14
6.53314e-14
7.98928e-14
9.75325e-14
1.24922e-14
9.29911e-15
7.90022e-15
1.07495e-14
1.05746e-14
7.56852e-15
7.23068e-15
1.06093e-14
1.08889e-14
1.62368e-14
1.99138e-14
1.61259e-14
9.21859e-15
3.94814e-15
7.36566e-15
8.44385e-15
8.58869e-15
1.02614e-14
1.16548e-14
5.20691e-15
8.28908e-15
9.09886e-15
9.25595e-15
7.16112e-15
1.30536e-14
1.06077e-14
9.19774e-15
8.10059e-15
1.29394e-14
1.69159e-14
1.57916e-14
1.90059e-14
1.959e-14
2.54051e-14
2.8016e-14
2.8832e-14
2.62758e-14
2.34455e-14
2.21238e-14
2.00331e-14
1.43118e-14
1.01725e-14
1.18501e-14
1.52777e-14
1.93517e-14
1.54621e-14
4.95508e-15
8.74906e-15
1.17784e-14
1.65442e-14
1.00829e-14
9.80577e-15
1.04904e-14
1.14258e-14
7.02095e-15
1.14632e-14
1.70272e-14
2.68256e-14
3.39566e-14
3.03582e-14
3.34319e-14
3.00878e-14
3.62716e-14
2.81572e-14
2.6838e-14
1.94985e-14
1.70869e-14
1.2784e-14
1.55335e-14
1.15598e-14
1.87901e-14
1.96665e-14
2.33315e-14
2.39589e-14
1.9526e-14
1.97012e-14
2.48843e-14
1.77472e-14
1.76754e-14
6.94234e-15
5.83619e-15
8.80805e-15
1.24166e-14
9.51136e-15
1.03888e-14
5.3171e-15
1.29923e-14
2.10776e-14
2.21217e-14
2.10368e-14
1.63197e-14
2.23535e-14
2.00462e-14
1.75871e-14
2.40803e-14
2.47832e-14
2.33561e-14
1.05588e-14
5.93333e-15
1.18908e-14
1.07398e-14
1.55586e-14
1.59665e-14
9.37323e-15
1.82521e-14
1.9867e-14
2.20815e-14
1.91112e-14
3.43181e-14
3.90263e-14
3.38061e-14
2.84096e-14
3.39014e-14
2.67363e-14
1.99538e-14
2.15523e-14
2.55491e-14
3.03022e-14
3.79445e-14
3.63761e-14
3.07201e-14
2.38269e-14
2.27014e-14
1.97444e-14
1.76756e-14
1.42877e-14
2.14596e-14
2.12591e-14
2.74218e-14
2.77225e-14
3.27229e-14
3.92134e-14
4.58923e-14
6.1366e-14
6.69678e-14
6.52838e-14
5.16307e-14
3.15059e-14
3.51938e-14
4.29444e-14
5.42914e-14
6.1008e-14
6.12344e-14
7.67627e-14
9.89091e-14
5.19933e-15
6.36883e-15
9.45182e-15
7.10841e-15
8.49389e-15
7.82978e-15
7.62072e-15
1.24967e-14
1.47862e-14
1.5379e-14
1.76021e-14
1.38716e-14
7.88396e-15
7.16994e-15
6.23945e-15
8.97638e-15
1.25651e-14
1.85147e-14
1.93098e-14
1.1531e-14
5.32482e-15
4.34938e-15
7.05554e-15
1.08963e-14
1.27617e-14
9.79357e-15
6.3849e-15
1.12197e-14
1.12524e-14
3.51067e-15
1.11214e-14
1.66618e-14
1.59133e-14
2.18058e-14
2.25786e-14
2.48237e-14
2.70289e-14
2.73066e-14
2.20057e-14
2.23406e-14
1.72216e-14
1.31186e-14
1.60146e-14
2.11034e-14
2.29926e-14
2.04091e-14
1.73949e-14
1.69365e-14
1.55887e-14
1.4e-14
1.36841e-14
6.72326e-15
8.60109e-15
9.80558e-15
1.09138e-14
1.05034e-14
2.02744e-14
2.53778e-14
2.56833e-14
2.49164e-14
2.42424e-14
2.99403e-14
3.16736e-14
2.75136e-14
2.74159e-14
2.83042e-14
3.19267e-14
3.75996e-14
2.39129e-14
2.10546e-14
3.10022e-14
2.8324e-14
1.89912e-14
3.00178e-14
2.87866e-14
2.84211e-14
2.6806e-14
2.28071e-14
1.3088e-14
1.23897e-14
9.09768e-15
1.48314e-14
1.47621e-14
1.57042e-14
1.28246e-14
1.39181e-14
1.63683e-14
3.43969e-14
2.38037e-14
2.73523e-14
2.29039e-14
3.13466e-14
2.87495e-14
2.98717e-14
2.72315e-14
2.62154e-14
2.60087e-14
2.75647e-14
1.7851e-14
2.59282e-14
2.30476e-14
2.31284e-14
2.31624e-14
1.87338e-14
2.5186e-14
2.78306e-14
2.87372e-14
2.58969e-14
3.62495e-14
3.56145e-14
3.37887e-14
2.60204e-14
2.87592e-14
2.78204e-14
2.78557e-14
2.71869e-14
2.60819e-14
3.3988e-14
3.56909e-14
4.05451e-14
2.64795e-14
1.73917e-14
1.60658e-14
1.69629e-14
1.85699e-14
1.54019e-14
1.52782e-14
1.23713e-14
1.9022e-14
3.04936e-14
3.18186e-14
4.51344e-14
4.73195e-14
6.03838e-14
5.46279e-14
5.373e-14
4.6284e-14
2.85581e-14
3.50358e-14
5.01598e-14
5.91508e-14
6.22805e-14
6.43478e-14
7.95245e-14
9.07626e-14
6.96585e-15
1.41517e-14
6.91595e-15
5.89217e-15
4.14445e-15
8.16598e-15
1.1653e-14
1.54279e-14
1.47425e-14
1.8403e-14
1.76967e-14
1.39235e-14
1.13797e-14
7.74328e-15
9.81425e-15
1.09047e-14
1.42777e-14
1.9683e-14
2.54507e-14
1.78318e-14
1.40699e-14
8.92744e-15
1.36505e-14
1.18155e-14
1.22614e-14
1.03944e-14
8.05953e-15
1.06891e-14
1.40029e-14
9.85344e-15
1.5071e-14
1.36213e-14
2.05919e-14
2.03522e-14
2.38811e-14
2.70829e-14
2.83935e-14
3.09797e-14
2.70642e-14
1.87326e-14
1.69912e-14
1.37062e-14
1.47283e-14
1.88724e-14
2.13285e-14
1.67003e-14
2.01266e-14
1.54778e-14
2.46074e-14
1.93558e-14
2.10033e-14
2.38856e-14
1.73012e-14
1.71176e-14
1.96801e-14
1.90322e-14
1.60077e-14
2.30912e-14
2.59842e-14
2.44477e-14
2.60454e-14
3.05215e-14
2.65582e-14
2.60932e-14
2.25934e-14
2.86386e-14
4.16161e-14
5.19811e-14
3.53754e-14
3.3717e-14
3.88613e-14
2.53869e-14
1.6506e-14
2.37989e-14
3.92347e-14
4.28713e-14
3.34983e-14
2.81261e-14
2.51416e-14
1.5646e-14
1.74969e-14
1.99941e-14
2.28123e-14
2.4451e-14
1.51626e-14
1.39177e-14
1.88515e-14
3.23414e-14
2.32363e-14
2.64641e-14
2.66891e-14
2.2017e-14
2.1172e-14
1.67158e-14
2.03947e-14
1.21796e-14
1.52092e-14
1.79353e-14
1.852e-14
2.71595e-14
2.4793e-14
2.78214e-14
2.95482e-14
2.86285e-14
2.95467e-14
3.24512e-14
2.52943e-14
2.71015e-14
3.48638e-14
4.14982e-14
3.7859e-14
2.71755e-14
3.1259e-14
3.52627e-14
4.07619e-14
3.92832e-14
3.23642e-14
3.73596e-14
4.14058e-14
3.09058e-14
2.33415e-14
1.40007e-14
8.99014e-15
1.11287e-14
2.59268e-14
1.77035e-14
1.34826e-14
1.17717e-14
2.3276e-14
2.85697e-14
3.13694e-14
4.95829e-14
4.44645e-14
4.8516e-14
4.61405e-14
4.61919e-14
3.79976e-14
2.97131e-14
3.38321e-14
4.79154e-14
6.76922e-14
7.01033e-14
6.48205e-14
8.04814e-14
1.0693e-13
1.75218e-14
1.78848e-14
1.16778e-14
1.8211e-14
1.12896e-14
1.98533e-14
2.05453e-14
1.98663e-14
2.45553e-14
2.24915e-14
2.53187e-14
2.72051e-14
2.52712e-14
1.69685e-14
1.56398e-14
1.85942e-14
1.91961e-14
2.88216e-14
3.24713e-14
2.4667e-14
7.67632e-15
1.12652e-14
1.65089e-14
1.6615e-14
2.14734e-14
2.06705e-14
1.27692e-14
8.81476e-15
3.56799e-15
7.60649e-15
7.63367e-15
1.09682e-14
1.31324e-14
1.70823e-14
2.1571e-14
2.24141e-14
2.8571e-14
3.64841e-14
2.91955e-14
2.31536e-14
1.67609e-14
1.27468e-14
9.6202e-15
2.47082e-14
1.72647e-14
1.09528e-14
9.18135e-15
9.97611e-15
1.1255e-14
1.49491e-14
1.9223e-14
1.89417e-14
1.77836e-14
1.25025e-14
9.98522e-15
1.24371e-14
1.06677e-14
9.82551e-15
1.56326e-14
2.11561e-14
2.17318e-14
1.71984e-14
1.92953e-14
1.89512e-14
2.02257e-14
1.53231e-14
1.99948e-14
2.47387e-14
2.44875e-14
2.47452e-14
1.70804e-14
1.75651e-14
1.35526e-14
1.83021e-14
2.70746e-14
3.39229e-14
3.0477e-14
2.54949e-14
2.34367e-14
1.44378e-14
1.49169e-14
1.76655e-14
1.92058e-14
9.82206e-15
1.2849e-14
1.28199e-14
1.5415e-14
1.41041e-14
1.64892e-14
1.87639e-14
1.14334e-14
1.41276e-14
1.26244e-14
8.26087e-15
6.4812e-15
1.9833e-14
1.25194e-14
9.05066e-15
1.24285e-14
1.14195e-14
7.74258e-15
1.21106e-14
1.92316e-14
1.21359e-14
1.41215e-14
2.12648e-14
1.35534e-14
2.26822e-14
4.58668e-14
5.63631e-14
4.46002e-14
4.00935e-14
3.72881e-14
4.24181e-14
5.63238e-14
5.36892e-14
3.93803e-14
4.22284e-14
4.77617e-14
3.80787e-14
2.24137e-14
2.1455e-14
2.38964e-14
2.20517e-14
3.06966e-14
2.61772e-14
2.39756e-14
2.55733e-14
3.38936e-14
3.06423e-14
4.09994e-14
5.60111e-14
4.13297e-14
3.97049e-14
4.32268e-14
3.53319e-14
2.97351e-14
2.79422e-14
2.44075e-14
3.50491e-14
6.2701e-14
7.81903e-14
7.2552e-14
7.23556e-14
9.64719e-14
1.91585e-14
1.64528e-14
1.62906e-14
1.74709e-14
1.0704e-14
1.36924e-14
1.52956e-14
2.03537e-14
2.37456e-14
2.10917e-14
2.14202e-14
1.62888e-14
2.35598e-14
2.31355e-14
1.94812e-14
1.66063e-14
2.21218e-14
2.89537e-14
2.96191e-14
2.51644e-14
9.95621e-15
3.08218e-15
1.45287e-14
1.46427e-14
1.53743e-14
1.0613e-14
9.11035e-15
7.06901e-15
8.37315e-15
1.0873e-14
1.21677e-14
1.53325e-14
1.71618e-14
1.72699e-14
1.47019e-14
2.2323e-14
3.44453e-14
3.56724e-14
3.55508e-14
2.75532e-14
2.63007e-14
2.57855e-14
2.52133e-14
2.86583e-14
1.94501e-14
2.2399e-14
1.271e-14
1.50885e-14
1.25735e-14
2.10258e-14
2.62491e-14
2.45552e-14
2.61841e-14
1.94025e-14
1.72166e-14
1.97016e-14
2.23354e-14
1.36212e-14
1.56497e-14
1.66841e-14
1.67247e-14
2.34412e-14
2.49114e-14
2.0186e-14
2.06545e-14
1.24996e-14
1.52379e-14
1.17351e-14
1.69063e-14
1.78117e-14
1.06827e-14
1.49867e-14
1.22232e-14
2.29342e-14
2.69428e-14
3.30092e-14
3.25363e-14
3.03554e-14
1.38409e-14
2.07251e-14
2.57569e-14
2.81459e-14
1.60387e-14
1.36045e-14
1.6785e-14
1.98667e-14
1.78861e-14
1.92652e-14
1.71518e-14
1.72713e-14
1.17278e-14
1.36857e-14
1.65758e-14
1.16425e-14
7.31343e-15
1.73107e-14
9.8203e-15
5.35844e-15
2.0093e-14
1.50086e-14
7.40499e-15
4.48742e-15
1.31684e-14
1.35129e-14
1.81487e-14
2.15102e-14
1.48627e-14
2.48979e-14
3.97622e-14
3.19459e-14
3.99047e-14
2.72919e-14
3.17848e-14
4.32175e-14
5.94718e-14
4.99494e-14
3.48095e-14
3.34072e-14
3.29925e-14
2.96111e-14
2.42585e-14
2.7978e-14
2.87095e-14
1.90871e-14
1.85613e-14
3.14056e-14
3.20701e-14
4.08092e-14
3.26318e-14
3.65745e-14
4.34578e-14
3.74799e-14
3.32482e-14
2.93129e-14
2.81721e-14
2.7242e-14
2.48506e-14
2.28669e-14
1.89934e-14
3.61122e-14
5.92944e-14
7.17571e-14
7.72562e-14
7.87975e-14
1.01264e-13
1.20122e-14
1.13851e-14
8.02871e-15
5.11524e-15
8.76211e-15
1.98259e-14
1.94589e-14
2.05855e-14
1.84005e-14
1.57069e-14
1.52615e-14
1.32025e-14
1.58738e-14
1.82581e-14
1.31693e-14
9.61567e-15
4.02239e-15
1.23373e-14
1.44384e-14
1.54269e-14
6.77794e-15
1.58489e-14
1.73916e-14
2.23288e-14
1.95438e-14
1.90648e-14
1.4677e-14
1.28477e-14
1.53537e-14
1.51824e-14
1.49905e-14
1.57883e-14
1.67679e-14
2.75145e-14
2.51982e-14
2.36681e-14
2.86793e-14
2.72223e-14
3.10849e-14
2.92031e-14
2.33767e-14
2.89913e-14
2.95156e-14
2.02527e-14
1.29614e-14
2.10415e-14
1.72817e-14
2.02843e-14
2.83495e-14
2.8569e-14
2.95829e-14
2.31268e-14
2.48548e-14
2.66616e-14
2.39567e-14
2.47004e-14
2.16403e-14
2.20857e-14
2.49985e-14
1.35668e-14
1.89096e-14
2.07427e-14
2.55095e-14
1.49009e-14
1.12887e-14
1.09953e-14
1.59828e-14
1.805e-14
1.33696e-14
1.28349e-14
1.0432e-14
1.27707e-14
1.38031e-14
2.12466e-14
3.61176e-14
3.55479e-14
3.36733e-14
2.75168e-14
1.64047e-14
1.82371e-14
2.60417e-14
2.18009e-14
1.26238e-14
1.45097e-14
1.29614e-14
1.58243e-14
1.30008e-14
1.25485e-14
1.06489e-14
7.5799e-15
1.87128e-14
1.56201e-14
2.3501e-14
1.90831e-14
1.20783e-14
6.80053e-15
1.06148e-14
1.65362e-14
1.26944e-14
1.91468e-14
1.01903e-14
2.74494e-14
2.28395e-14
1.82868e-14
2.20647e-14
2.50188e-14
2.03137e-14
2.13669e-14
2.65766e-14
2.70555e-14
2.42032e-14
1.25476e-14
1.77359e-14
3.25307e-14
3.819e-14
2.82922e-14
2.12081e-14
1.32728e-14
9.33128e-15
9.45144e-15
7.8385e-15
1.00023e-14
8.87594e-15
8.94532e-15
5.81376e-15
2.00487e-14
2.06652e-14
2.34878e-14
2.08015e-14
2.55911e-14
2.77964e-14
2.60597e-14
2.23471e-14
1.98647e-14
1.67868e-14
1.38025e-14
1.50015e-14
1.8118e-14
2.25251e-14
3.69364e-14
5.34025e-14
6.50949e-14
7.4061e-14
8.7493e-14
1.01138e-13
1.39387e-14
1.72392e-14
2.36044e-14
2.25466e-14
1.98071e-14
2.26877e-14
2.437e-14
2.29239e-14
2.20985e-14
1.91645e-14
1.95719e-14
1.75808e-14
1.5486e-14
1.49565e-14
1.29281e-14
1.78163e-14
1.82533e-14
1.81453e-14
1.70567e-14
1.79034e-14
1.94715e-14
1.90633e-14
2.03955e-14
1.85812e-14
2.04361e-14
1.99438e-14
2.25905e-14
2.30059e-14
2.464e-14
1.95805e-14
1.73322e-14
1.88972e-14
1.80093e-14
1.83576e-14
1.59489e-14
1.45984e-14
1.31875e-14
1.72403e-14
2.36794e-14
3.03808e-14
2.91677e-14
2.39639e-14
1.96363e-14
1.58454e-14
1.27345e-14
1.14092e-14
1.7879e-14
2.7024e-14
3.99471e-14
3.87188e-14
2.86089e-14
1.72449e-14
2.39031e-14
3.48254e-14
3.9756e-14
3.90861e-14
3.57005e-14
3.21523e-14
3.04794e-14
3.21951e-14
1.93216e-14
1.74092e-14
1.61357e-14
1.39821e-14
1.61358e-14
1.81528e-14
2.49349e-14
2.61165e-14
1.95053e-14
2.30703e-14
2.06422e-14
1.60797e-14
1.66882e-14
1.40968e-14
2.51616e-14
3.23393e-14
3.29368e-14
3.26911e-14
1.80616e-14
2.31696e-14
3.00678e-14
2.07161e-14
1.75021e-14
1.39541e-14
1.93169e-14
1.97419e-14
1.2477e-14
1.4688e-14
9.6594e-15
1.7992e-14
2.3758e-14
1.86282e-14
3.03562e-14
3.14015e-14
2.02723e-14
1.75691e-14
1.99007e-14
2.43315e-14
2.97069e-14
3.36256e-14
3.26209e-14
4.10124e-14
4.01523e-14
3.39599e-14
2.6931e-14
2.25945e-14
2.36283e-14
2.11399e-14
2.34196e-14
1.89052e-14
1.0882e-14
1.32384e-14
6.22572e-15
2.6605e-14