/*--------------------------------*- C++ -*----------------------------------*\
| =========                 |                                                 |
| \\      /  F ield         | OpenFOAM: The Open Source CFD Toolbox           |
|  \\    /   O peration     | Version:  2406                                  |
|   \\  /    A nd           | Website:  www.openfoam.com                      |
|    \\/     M anipulation  |                                                 |
\*---------------------------------------------------------------------------*/
FoamFile
{
    version     2.0;
    format      ascii;
    arch        "LSB;label=32;scalar=64";
    class       volVectorField;
    location    "0.035";
    object      U;
}
// * * * * * * * * * * * * * * * * * * * * * * * * * * * * * * * * * * * * * //

dimensions      [0 1 -1 0 0 0 0];

internalField   nonuniform List<vector> 
13948
(
(1.61422e-11 2.41229e-11 -8.67294e-12)
(1.05895e-11 3.48075e-11 2.8123e-12)
(1.74469e-12 4.51669e-11 -3.18817e-12)
(-7.41474e-12 4.35115e-11 -1.46045e-11)
(-4.14945e-12 3.66025e-11 -5.08751e-12)
(4.7705e-12 3.20409e-11 5.93369e-12)
(3.41726e-12 3.709e-11 7.48539e-12)
(6.26941e-12 3.82709e-11 5.43088e-12)
(8.01106e-12 4.4898e-11 7.29827e-12)
(5.49602e-12 4.48671e-11 8.6183e-12)
(8.83103e-12 4.77186e-11 7.47015e-12)
(8.85113e-12 5.51568e-11 6.41874e-12)
(1.97153e-12 6.08197e-11 1.1461e-11)
(-2.83673e-12 6.54233e-11 2.16901e-11)
(-3.04463e-12 6.39633e-11 2.90706e-11)
(-2.331e-12 6.48547e-11 1.88888e-11)
(-1.74948e-12 5.95905e-11 1.19488e-11)
(-3.36406e-12 5.58231e-11 1.22442e-11)
(-1.71519e-12 5.27235e-11 1.64481e-11)
(6.09509e-14 5.56145e-11 8.66269e-12)
(-1.34149e-12 5.37473e-11 7.04264e-12)
(-3.25729e-12 4.95086e-11 7.81339e-12)
(-8.49095e-12 4.33294e-11 7.58162e-12)
(-6.40784e-12 3.86073e-11 6.71216e-12)
(-5.23592e-12 3.9098e-11 5.33391e-12)
(-5.55436e-12 2.88945e-11 2.14915e-12)
(3.32727e-13 2.44156e-11 -5.36337e-12)
(-6.90047e-13 2.99844e-11 -6.68818e-12)
(-5.9734e-14 2.82359e-11 -2.55028e-12)
(6.74955e-13 3.38388e-11 -1.48266e-12)
(1.92233e-12 3.1831e-11 -4.23527e-12)
(6.56944e-12 3.80236e-11 -8.44446e-12)
(1.11722e-12 4.51855e-11 -1.15249e-11)
(-6.89539e-12 3.98631e-11 -1.70049e-11)
(-6.64998e-12 3.20387e-11 -2.09622e-11)
(5.99442e-13 3.13766e-11 -1.00747e-11)
(1.38099e-12 3.4211e-11 -4.37934e-12)
(2.7554e-12 3.03515e-11 -2.91563e-12)
(4.21391e-12 3.62062e-11 -4.25866e-12)
(6.51838e-12 3.38794e-11 -6.29038e-12)
(9.33267e-12 4.25482e-11 -4.30349e-12)
(2.8911e-12 4.83709e-11 3.28235e-12)
(1.57642e-12 5.44252e-11 2.52e-12)
(-3.31985e-12 5.23107e-11 -1.2174e-12)
(-8.74932e-12 4.6472e-11 -7.44163e-12)
(-9.36736e-12 4.30234e-11 3.04322e-12)
(-1.12839e-11 2.85098e-11 1.13579e-11)
(-9.77068e-12 2.00176e-11 1.74069e-11)
(-6.61965e-12 2.32022e-11 2.23743e-11)
(-4.08787e-12 2.31168e-11 5.99362e-12)
(9.15809e-13 2.90233e-11 -2.31434e-12)
(-3.32388e-12 3.30481e-11 -1.91698e-12)
(-4.18214e-12 2.83494e-11 -2.31008e-12)
(-2.69444e-13 2.8096e-11 -4.98901e-12)
(3.04231e-12 2.37063e-11 -1.77281e-12)
(6.14355e-12 2.75883e-11 -7.61915e-13)
(2.35096e-12 2.61858e-11 -5.40946e-12)
(-1.93854e-12 2.68435e-11 -1.20939e-11)
(-1.6891e-12 2.31891e-11 -2.20718e-11)
(-4.02601e-12 2.73024e-11 -3.01893e-11)
(-6.06768e-12 2.90564e-11 -2.72158e-11)
(-7.31638e-12 2.43421e-11 -3.2449e-11)
(-9.05569e-12 2.45483e-11 -1.87681e-11)
(-1.44662e-11 1.31249e-11 -2.15224e-11)
(-8.93979e-12 8.23218e-13 -1.64797e-11)
(-3.09749e-12 6.07396e-12 -1.49593e-11)
(4.15504e-12 3.35899e-12 -1.20665e-11)
(4.00786e-12 1.04859e-11 -6.8766e-12)
(3.77409e-12 3.87454e-12 -5.40792e-12)
(7.45826e-12 1.23306e-11 -3.70429e-12)
(-2.56212e-13 1.41281e-11 -3.97425e-12)
(1.94564e-12 6.29838e-12 1.09516e-12)
(8.59967e-12 1.56891e-11 1.06546e-11)
(5.15018e-12 1.78482e-11 3.35857e-12)
(2.45404e-12 1.99181e-11 -2.18692e-12)
(1.33402e-12 1.83064e-11 -3.93552e-12)
(-1.0173e-12 1.82386e-11 -4.04106e-12)
(-1.99058e-12 1.94546e-11 -5.24854e-12)
(2.65858e-12 1.73358e-11 -1.19614e-11)
(3.60093e-12 2.11191e-11 -1.89633e-11)
(-8.82141e-13 2.08405e-11 -2.18896e-11)
(-2.82854e-12 2.14851e-11 -2.44551e-11)
(-3.79758e-13 2.14678e-11 -1.99223e-11)
(3.92078e-12 1.55721e-11 -1.63344e-11)
(5.70507e-12 2.07882e-11 -2.08455e-11)
(3.81814e-12 3.03167e-11 -1.92467e-11)
(-2.16205e-12 3.49126e-11 -2.63062e-11)
(-5.81992e-12 3.03846e-11 -2.63067e-11)
(-1.43395e-12 3.0217e-11 -1.80348e-11)
(4.74424e-12 2.17974e-11 -8.82961e-12)
(3.78709e-12 2.04585e-11 -3.45509e-13)
(2.45618e-12 1.71885e-11 -2.92117e-13)
(6.88467e-12 1.02318e-11 -7.60432e-13)
(1.88911e-11 1.05285e-11 3.8092e-13)
(2.70869e-11 1.17555e-11 -6.06432e-12)
(1.90706e-11 1.66912e-11 -1.26731e-11)
(8.81081e-12 1.01621e-11 -2.07843e-11)
(1.10387e-11 4.19949e-12 -4.18658e-11)
(1.75316e-11 -1.7435e-12 -2.98739e-11)
(1.46098e-11 7.69681e-12 -3.19593e-12)
(1.69554e-11 2.28109e-11 -3.02495e-12)
(9.24258e-12 3.41817e-11 4.39329e-12)
(8.00345e-13 4.55113e-11 -6.16105e-13)
(-5.9521e-12 3.98424e-11 -1.41496e-11)
(-2.90277e-12 3.60971e-11 -5.48988e-12)
(4.29774e-12 3.07396e-11 8.29682e-12)
(2.27865e-12 3.62389e-11 9.80052e-12)
(5.77739e-12 3.82099e-11 7.5958e-12)
(7.6016e-12 4.26748e-11 9.17086e-12)
(6.44105e-12 4.01148e-11 9.79424e-12)
(8.78583e-12 4.26202e-11 7.99879e-12)
(7.97025e-12 5.34973e-11 5.10704e-12)
(1.38658e-12 5.98603e-11 8.66916e-12)
(-3.03056e-12 6.24161e-11 1.53764e-11)
(-2.96171e-12 5.92694e-11 2.25856e-11)
(-2.02459e-12 5.82141e-11 1.50153e-11)
(-1.35413e-12 5.22838e-11 1.07181e-11)
(-2.23055e-12 5.29401e-11 1.10067e-11)
(-1.9835e-12 4.99301e-11 1.36113e-11)
(-9.5403e-13 5.24316e-11 8.91363e-12)
(-5.79993e-13 4.72766e-11 7.84644e-12)
(-2.37241e-12 4.3257e-11 9.33223e-12)
(-7.47426e-12 4.0344e-11 8.89543e-12)
(-7.27375e-12 3.62606e-11 7.56058e-12)
(-4.58585e-12 3.53476e-11 5.83265e-12)
(-3.6434e-12 2.79088e-11 3.69129e-12)
(-4.90415e-13 2.51007e-11 -2.60898e-12)
(-1.0195e-12 3.14033e-11 -6.96238e-12)
(-4.93368e-13 2.76564e-11 -1.18509e-12)
(6.24349e-13 3.39364e-11 -7.98864e-13)
(2.77337e-12 3.06897e-11 -8.22978e-13)
(3.84581e-12 3.49403e-11 -6.64829e-12)
(1.31564e-12 4.29221e-11 -1.33011e-11)
(-4.25724e-12 3.96723e-11 -9.93851e-12)
(-6.02309e-12 3.0833e-11 -1.05658e-11)
(-4.47238e-13 2.78728e-11 -5.73518e-12)
(2.08949e-12 3.34551e-11 -3.54441e-12)
(2.44449e-12 2.71435e-11 -2.21431e-12)
(3.33444e-12 3.30924e-11 -3.36066e-12)
(6.8409e-12 3.28227e-11 -4.69388e-12)
(8.59988e-12 4.28822e-11 -5.21596e-12)
(2.92546e-12 4.62764e-11 1.87244e-12)
(2.27115e-12 5.11664e-11 3.94732e-12)
(-1.21299e-12 5.00413e-11 8.15561e-13)
(-8.69908e-12 4.64342e-11 -2.1487e-12)
(-9.61736e-12 3.96617e-11 4.33063e-12)
(-1.03812e-11 2.78543e-11 1.14678e-11)
(-1.02636e-11 1.9302e-11 1.53303e-11)
(-7.15947e-12 1.95574e-11 1.52598e-11)
(-4.27583e-12 2.31705e-11 2.56854e-12)
(-2.68316e-13 2.88522e-11 -1.94925e-12)
(-2.75785e-12 3.08804e-11 -1.34061e-12)
(-3.75493e-12 2.55498e-11 -8.00598e-13)
(3.90946e-13 2.91108e-11 -6.61071e-12)
(3.5424e-12 2.46847e-11 -5.09508e-13)
(5.90974e-12 2.96946e-11 1.14309e-12)
(2.54358e-12 2.78549e-11 -5.35773e-12)
(-1.38789e-12 2.27939e-11 -1.23958e-11)
(-1.94726e-12 2.19257e-11 -2.24281e-11)
(-5.85505e-12 2.54592e-11 -2.81566e-11)
(-5.60942e-12 2.91863e-11 -3.02336e-11)
(-7.24628e-12 2.4983e-11 -3.16715e-11)
(-8.9133e-12 2.56837e-11 -2.00359e-11)
(-1.16032e-11 1.08608e-11 -1.799e-11)
(-9.0564e-12 7.20475e-13 -1.70149e-11)
(-3.66183e-12 7.31131e-12 -1.81851e-11)
(4.11028e-12 4.86055e-12 -1.61002e-11)
(4.36322e-12 1.0717e-11 -5.83116e-12)
(4.2962e-12 7.54652e-12 -4.70984e-12)
(5.9242e-12 1.3855e-11 -2.35162e-12)
(9.79159e-13 1.48391e-11 -5.64374e-12)
(1.87313e-12 6.38649e-12 -3.34224e-14)
(7.2727e-12 1.44046e-11 8.21139e-12)
(5.25352e-12 1.90627e-11 4.71824e-12)
(2.31864e-12 2.09839e-11 -1.49189e-12)
(1.52599e-12 2.05747e-11 -3.53831e-12)
(-1.05933e-12 2.00158e-11 -3.2949e-12)
(-8.94774e-13 1.94464e-11 -3.5184e-12)
(2.67149e-12 1.95733e-11 -4.62021e-12)
(2.54685e-12 2.10373e-11 -1.53085e-11)
(-1.24673e-12 2.02332e-11 -2.10994e-11)
(-3.77877e-12 1.87257e-11 -2.14229e-11)
(-2.55741e-13 1.89197e-11 -1.98595e-11)
(4.43376e-12 1.58976e-11 -2.14796e-11)
(4.87428e-12 2.12771e-11 -2.24972e-11)
(3.37378e-12 2.89513e-11 -2.01195e-11)
(-1.21469e-12 3.00978e-11 -2.61284e-11)
(-5.30534e-12 2.6232e-11 -2.56842e-11)
(-1.59133e-12 2.50402e-11 -1.73622e-11)
(5.10147e-12 2.02368e-11 -8.5994e-12)
(3.47941e-12 1.98569e-11 4.98658e-13)
(2.58339e-12 1.59556e-11 -3.38922e-13)
(7.5821e-12 1.07461e-11 -1.62816e-12)
(1.89206e-11 1.13227e-11 8.65411e-13)
(2.52647e-11 1.27126e-11 -8.44296e-12)
(1.82945e-11 1.77669e-11 -1.79977e-11)
(1.05902e-11 1.10099e-11 -2.13445e-11)
(1.27874e-11 3.3272e-12 -3.4983e-11)
(1.72827e-11 -2.81468e-12 -2.53431e-11)
(4.33884e-12 -1.0991e-11 -3.57721e-12)
(3.99274e-12 -8.47297e-12 -2.33081e-12)
(5.18195e-12 -4.62082e-12 -3.85151e-12)
(5.82144e-12 -5.14951e-12 -2.46061e-12)
(6.1899e-12 -6.33313e-12 -1.62016e-12)
(8.15128e-12 -6.87606e-12 -1.03255e-12)
(7.97647e-12 -5.5731e-12 -2.40402e-12)
(9.06143e-12 -1.84463e-12 -4.33188e-12)
(1.28711e-11 2.03572e-12 -5.08378e-12)
(1.37778e-11 7.39594e-12 -1.53915e-13)
(1.32499e-11 2.27537e-11 2.93287e-12)
(6.47921e-12 3.44642e-11 8.14759e-12)
(1.45621e-12 3.799e-11 4.17136e-12)
(-4.00579e-12 3.51138e-11 -4.301e-12)
(-2.29098e-12 3.37469e-11 -1.23847e-12)
(4.1353e-12 3.07933e-11 5.73707e-12)
(1.33825e-12 3.47523e-11 8.42671e-12)
(5.59315e-12 3.25985e-11 1.00621e-11)
(9.30393e-12 3.77962e-11 1.32522e-11)
(8.40135e-12 3.66823e-11 1.27391e-11)
(7.24355e-12 3.87738e-11 1.02824e-11)
(5.3774e-12 4.87474e-11 1.0004e-11)
(1.93533e-12 5.54448e-11 9.66026e-12)
(-3.44406e-14 5.4424e-11 1.22331e-11)
(-2.05022e-12 5.21844e-11 1.24226e-11)
(-1.16686e-12 4.91188e-11 7.07541e-12)
(-1.77372e-12 4.44982e-11 5.45516e-12)
(-3.25177e-12 4.6232e-11 9.14502e-12)
(-1.62846e-12 4.34957e-11 1.45536e-11)
(-5.87862e-13 4.02855e-11 9.46679e-12)
(2.35149e-13 4.03983e-11 9.48796e-12)
(-2.38614e-12 3.82388e-11 1.33109e-11)
(-7.86329e-12 3.68897e-11 1.25535e-11)
(-7.36915e-12 3.2111e-11 8.73598e-12)
(-4.48322e-12 2.96382e-11 6.6236e-12)
(-2.64405e-12 2.75773e-11 6.19877e-12)
(-1.42922e-12 2.34959e-11 -3.41267e-13)
(-1.06313e-12 2.68675e-11 -6.17754e-12)
(-3.07195e-13 2.62363e-11 -1.94147e-13)
(6.37746e-13 2.5093e-11 4.90566e-13)
(3.84356e-12 2.61541e-11 2.25955e-12)
(2.97725e-12 3.07761e-11 -8.5636e-13)
(1.44072e-13 3.45608e-11 -8.61031e-12)
(-3.16225e-12 3.48192e-11 -1.24813e-12)
(-4.01698e-12 2.98184e-11 1.53253e-12)
(-1.32932e-12 2.2008e-11 -2.60852e-12)
(1.86859e-12 2.47254e-11 -2.95119e-12)
(2.79198e-12 2.19546e-11 -2.30584e-12)
(2.30673e-12 2.45763e-11 -3.16266e-12)
(6.17251e-12 2.90483e-11 -3.34708e-12)
(7.59364e-12 3.98587e-11 -1.08012e-12)
(3.57261e-12 4.1925e-11 7.15996e-12)
(2.58026e-12 4.07762e-11 5.4398e-12)
(-4.54883e-13 4.34553e-11 5.19803e-12)
(-8.09407e-12 4.04022e-11 5.26432e-12)
(-9.02132e-12 3.22789e-11 7.01952e-12)
(-1.00709e-11 2.82982e-11 1.17328e-11)
(-8.66204e-12 2.14587e-11 1.28298e-11)
(-8.25535e-12 1.6824e-11 9.89203e-12)
(-5.58375e-12 1.94865e-11 3.06324e-12)
(-7.16909e-13 2.30646e-11 -3.89749e-12)
(-2.36122e-12 2.5788e-11 2.92692e-13)
(-4.46833e-12 2.29558e-11 2.63592e-12)
(-3.61272e-13 2.3653e-11 -4.25793e-12)
(3.60306e-12 2.54325e-11 -2.45188e-12)
(5.4104e-12 2.57022e-11 -2.66313e-12)
(4.23905e-12 2.78547e-11 -5.96309e-12)
(8.11147e-13 2.18297e-11 -1.11593e-11)
(-2.92897e-12 2.08769e-11 -1.90467e-11)
(-8.10322e-12 2.40654e-11 -2.5847e-11)
(-6.19349e-12 2.45324e-11 -3.38213e-11)
(-7.31026e-12 2.62412e-11 -2.71644e-11)
(-7.48905e-12 2.00784e-11 -1.89172e-11)
(-8.8514e-12 1.05905e-11 -1.58211e-11)
(-1.02736e-11 6.70349e-12 -1.90368e-11)
(-4.05868e-12 7.31324e-12 -2.14001e-11)
(5.05424e-12 7.46767e-12 -1.87423e-11)
(4.33197e-12 1.25089e-11 -8.13136e-12)
(3.52645e-12 1.35427e-11 -5.56262e-12)
(5.61261e-12 1.6607e-11 -4.22357e-12)
(1.53099e-12 1.69059e-11 -5.18931e-12)
(1.86135e-12 1.30595e-11 -7.11494e-13)
(5.24892e-12 1.59046e-11 6.80376e-12)
(4.58493e-12 2.15622e-11 3.17336e-12)
(2.30408e-12 2.29117e-11 -1.29323e-12)
(1.73541e-12 2.41921e-11 -3.04614e-12)
(-5.12972e-13 2.36576e-11 -2.80987e-12)
(-8.32896e-13 2.16952e-11 -2.07274e-12)
(2.04456e-12 2.40237e-11 -1.25422e-12)
(2.80504e-12 2.4599e-11 -9.52905e-12)
(-6.44753e-13 2.38953e-11 -1.59391e-11)
(-2.98228e-12 1.85665e-11 -1.65715e-11)
(-8.44871e-13 1.83382e-11 -1.82355e-11)
(3.84745e-12 1.84702e-11 -2.03095e-11)
(4.1588e-12 2.20501e-11 -2.07961e-11)
(4.22072e-12 2.45978e-11 -2.23267e-11)
(1.83685e-12 2.60001e-11 -2.03986e-11)
(-3.92427e-12 2.48892e-11 -1.91681e-11)
(-8.11386e-13 2.06146e-11 -1.56523e-11)
(4.40247e-12 2.13395e-11 -9.50994e-12)
(3.2751e-12 2.05917e-11 -3.39143e-12)
(3.09792e-12 1.57814e-11 -3.24543e-12)
(6.88118e-12 7.38829e-12 -4.81118e-12)
(1.86969e-11 1.02784e-11 -5.90174e-12)
(2.47134e-11 1.54222e-11 -1.53782e-11)
(1.72229e-11 1.52978e-11 -2.32444e-11)
(1.22954e-11 1.22186e-11 -2.58258e-11)
(1.46499e-11 7.13149e-12 -2.48009e-11)
(1.69578e-11 2.82452e-12 -1.62419e-11)
(-3.40825e-12 -1.08139e-11 1.01896e-11)
(-1.82996e-13 -9.347e-12 6.72154e-12)
(-1.7576e-12 -9.77519e-12 5.88384e-12)
(-2.03717e-12 -1.08495e-11 -1.5678e-12)
(-2.78057e-12 -1.17938e-11 -9.36972e-12)
(-4.69417e-12 -1.25218e-11 -1.29909e-11)
(-1.03544e-12 -1.19695e-11 -1.39228e-11)
(8.98003e-13 -1.22291e-11 -1.68569e-11)
(1.25325e-12 -1.33299e-11 -1.88751e-11)
(5.45433e-12 -1.26844e-11 -1.16855e-11)
(4.28176e-12 -1.32818e-11 2.4589e-12)
(9.44282e-14 -1.22384e-11 6.05606e-12)
(2.03306e-13 -1.27816e-11 3.48828e-12)
(2.76178e-12 -1.21307e-11 3.08311e-12)
(1.05963e-12 -1.14853e-11 4.24164e-13)
(-3.1459e-12 -1.25848e-11 -2.58422e-13)
(9.42957e-14 -1.28705e-11 -2.20248e-12)
(1.84424e-12 -1.06099e-11 -3.99907e-12)
(8.50563e-13 -9.70815e-12 -5.95208e-12)
(2.35031e-12 -7.55545e-12 -3.83183e-12)
(1.66756e-12 -9.87266e-12 -3.53963e-12)
(9.64246e-13 -9.27446e-12 -6.75754e-12)
(8.57648e-13 -7.15365e-12 -1.50266e-11)
(-2.94854e-12 -5.76395e-12 -2.01956e-11)
(-2.83869e-12 -9.46768e-12 -2.39515e-11)
(-2.40462e-12 -8.09306e-12 -2.58364e-11)
(-1.87311e-12 -9.94771e-12 -2.46968e-11)
(-9.58616e-13 -9.53485e-12 -2.20259e-11)
(1.89987e-13 -1.16189e-11 -2.07567e-11)
(3.07028e-12 -1.00587e-11 -1.91799e-11)
(3.40689e-12 -1.11949e-11 -1.26949e-11)
(3.14763e-12 -9.29168e-12 -5.56415e-12)
(4.08465e-12 -5.78498e-12 -1.78189e-12)
(3.42429e-12 -5.42189e-12 -2.22371e-13)
(1.85191e-12 -4.08078e-12 -1.32725e-12)
(4.07822e-12 -4.77504e-12 -8.91937e-13)
(7.22903e-12 -4.21235e-12 2.78418e-14)
(7.4114e-12 -6.10998e-12 -4.73803e-13)
(9.03309e-12 -6.01827e-12 -7.77085e-13)
(8.53519e-12 -4.13137e-12 -1.78536e-13)
(7.45423e-12 -7.29511e-13 -2.97254e-12)
(1.19678e-11 5.88242e-12 -1.81179e-12)
(1.25914e-11 1.37944e-11 4.36016e-12)
(9.39674e-12 2.45924e-11 5.7246e-12)
(6.30805e-12 2.95633e-11 1.15516e-11)
(2.82882e-12 3.30699e-11 1.10994e-11)
(-2.95199e-12 3.50318e-11 3.34473e-12)
(-1.04699e-12 3.05398e-11 3.11903e-12)
(3.53363e-12 3.12689e-11 4.73267e-12)
(2.90244e-12 3.26498e-11 7.55517e-12)
(5.52379e-12 2.98394e-11 1.17909e-11)
(7.49796e-12 3.67216e-11 1.70161e-11)
(9.17036e-12 3.82779e-11 1.40241e-11)
(6.94644e-12 4.1677e-11 1.11043e-11)
(2.94811e-12 4.448e-11 1.4684e-11)
(1.81218e-12 4.9221e-11 1.19547e-11)
(6.14228e-13 4.65285e-11 8.72097e-12)
(-5.08247e-13 4.57537e-11 4.61219e-12)
(6.26734e-13 4.24768e-11 3.02546e-12)
(-9.33782e-13 4.24623e-11 -2.48837e-13)
(-1.97436e-12 4.01899e-11 4.40958e-12)
(9.0001e-13 3.82739e-11 8.07532e-12)
(7.04622e-13 3.51412e-11 7.67785e-12)
(-3.45638e-13 4.11478e-11 1.01304e-11)
(-2.26672e-12 3.90256e-11 1.62845e-11)
(-6.10211e-12 3.68406e-11 1.57291e-11)
(-7.04426e-12 3.2795e-11 9.18412e-12)
(-4.98921e-12 3.10723e-11 6.51261e-12)
(-2.26415e-12 2.73503e-11 7.45265e-12)
(-1.04594e-12 2.52289e-11 1.03262e-12)
(-2.08906e-12 2.69167e-11 -1.44773e-12)
(6.08166e-13 2.74418e-11 3.0043e-12)
(1.34596e-12 2.34321e-11 4.08509e-12)
(2.08083e-12 2.55004e-11 3.27457e-12)
(2.03282e-12 3.1621e-11 1.24572e-12)
(-2.19959e-13 3.16124e-11 -1.03323e-12)
(-3.7743e-12 2.95596e-11 -7.19203e-15)
(-2.66794e-12 2.52365e-11 1.08279e-12)
(-2.14126e-13 2.37389e-11 -2.80472e-12)
(2.08175e-12 2.26814e-11 -3.31911e-12)
(2.94783e-12 2.34015e-11 -3.05849e-12)
(1.75412e-12 2.62724e-11 -3.59521e-12)
(4.80506e-12 3.19768e-11 -3.02496e-12)
(5.11724e-12 3.70094e-11 2.6576e-12)
(5.52024e-12 4.00275e-11 1.03737e-11)
(3.66298e-12 3.62025e-11 8.67329e-12)
(-5.88973e-13 3.50162e-11 1.12618e-11)
(-6.9725e-12 3.24656e-11 1.4731e-11)
(-1.12451e-11 2.87263e-11 1.27376e-11)
(-1.00732e-11 2.84122e-11 1.1323e-11)
(-7.49837e-12 2.26969e-11 1.10277e-11)
(-7.4143e-12 1.93031e-11 7.65884e-12)
(-5.35422e-12 1.67466e-11 2.47718e-12)
(-3.5674e-12 1.55982e-11 -1.60765e-12)
(-4.14656e-12 1.94512e-11 -1.42485e-12)
(-3.39655e-12 2.00514e-11 -2.40283e-12)
(4.45107e-13 1.89031e-11 -7.07507e-12)
(4.01041e-12 2.34421e-11 -7.96153e-12)
(5.09965e-12 2.37408e-11 -8.65196e-12)
(3.1432e-12 2.52844e-11 -8.81534e-12)
(1.46107e-12 2.20656e-11 -1.17548e-11)
(-2.71743e-12 2.3406e-11 -1.67856e-11)
(-7.27945e-12 2.38317e-11 -2.17679e-11)
(-6.80783e-12 2.03544e-11 -2.84012e-11)
(-7.47624e-12 2.14421e-11 -2.05166e-11)
(-5.62907e-12 1.63509e-11 -1.30917e-11)
(-8.60987e-12 1.32756e-11 -1.62736e-11)
(-9.34217e-12 9.9664e-12 -2.244e-11)
(-3.6218e-12 9.39072e-12 -1.6674e-11)
(3.57804e-12 7.15265e-12 -1.23187e-11)
(3.46452e-12 1.39084e-11 -7.84867e-12)
(3.63859e-12 1.29327e-11 -6.98822e-12)
(4.60925e-12 1.5576e-11 -8.44825e-12)
(1.57974e-12 1.63278e-11 -7.45641e-12)
(1.6841e-12 1.61719e-11 -1.48325e-12)
(4.53691e-12 1.96848e-11 6.4968e-12)
(3.49126e-12 2.00117e-11 3.10714e-12)
(1.80736e-12 2.06943e-11 -5.56703e-13)
(1.31371e-12 2.37959e-11 -1.87855e-12)
(2.79595e-13 2.27515e-11 -1.53098e-12)
(4.83164e-13 2.21993e-11 -8.3354e-13)
(1.62431e-12 1.93801e-11 -1.33275e-12)
(1.82572e-12 2.15486e-11 -5.29212e-12)
(8.64047e-13 2.21178e-11 -1.08849e-11)
(-2.37652e-12 2.28515e-11 -1.4102e-11)
(-1.25725e-12 2.05853e-11 -1.73385e-11)
(3.79254e-12 2.02949e-11 -1.93623e-11)
(5.37044e-12 1.90283e-11 -1.80438e-11)
(4.68139e-12 2.03974e-11 -1.6419e-11)
(1.48854e-12 2.23238e-11 -1.39252e-11)
(-1.41197e-12 2.22009e-11 -1.38088e-11)
(1.42679e-13 2.11349e-11 -1.36622e-11)
(3.86901e-12 2.11364e-11 -1.05869e-11)
(3.82905e-12 1.72772e-11 -7.85127e-12)
(6.12464e-12 1.47687e-11 -5.56262e-12)
(8.54623e-12 7.98313e-12 -1.03595e-11)
(1.70942e-11 6.90463e-12 -1.5263e-11)
(2.18822e-11 1.72272e-11 -2.3831e-11)
(1.71688e-11 1.64851e-11 -2.57585e-11)
(1.3352e-11 1.35459e-11 -2.7978e-11)
(1.57594e-11 1.21565e-11 -1.84165e-11)
(1.74851e-11 9.44643e-12 -7.90052e-12)
(-1.12128e-12 -9.27331e-12 1.68471e-11)
(-1.76009e-12 -1.00355e-11 1.5705e-11)
(-2.68124e-12 -1.16553e-11 1.28449e-11)
(-1.98486e-13 -1.14177e-11 9.56281e-12)
(-1.66946e-12 -9.12348e-12 4.94242e-12)
(-2.35574e-12 -1.00942e-11 -2.66621e-12)
(-2.15508e-12 -9.81457e-12 -9.48877e-12)
(-2.60546e-12 -1.11967e-11 -1.20623e-11)
(-4.05252e-13 -1.28317e-11 -1.22391e-11)
(1.10377e-12 -1.18208e-11 -1.19149e-11)
(1.49938e-12 -1.38974e-11 -1.17389e-11)
(4.20931e-12 -1.30421e-11 -6.77128e-12)
(3.22372e-12 -1.16753e-11 2.16744e-12)
(1.35655e-13 -1.26735e-11 3.8121e-12)
(3.1297e-13 -1.27585e-11 2.93885e-12)
(1.3113e-12 -1.25285e-11 2.25047e-12)
(1.00298e-12 -1.05031e-11 1.99798e-12)
(-6.67516e-13 -1.24116e-11 1.91932e-12)
(4.12343e-13 -1.26668e-11 6.23817e-13)
(1.54517e-12 -1.16128e-11 4.52825e-13)
(2.77647e-13 -1.21113e-11 -1.41951e-12)
(1.55859e-12 -1.07267e-11 -2.83107e-12)
(1.57468e-12 -8.80748e-12 -3.24384e-12)
(-1.1476e-12 -9.86869e-12 -6.13405e-12)
(-6.44637e-13 -7.20614e-12 -1.28034e-11)
(-1.34765e-12 -8.10097e-12 -1.87575e-11)
(-2.55673e-12 -9.53886e-12 -2.08693e-11)
(-2.32635e-12 -8.26602e-12 -2.13834e-11)
(-1.64984e-12 -1.01989e-11 -2.1386e-11)
(7.15842e-13 -9.40604e-12 -1.89833e-11)
(7.24505e-13 -9.92015e-12 -1.58051e-11)
(-1.67304e-13 -8.84804e-12 -1.31096e-11)
(2.40479e-12 -8.24586e-12 -7.93976e-12)
(1.07318e-12 -6.9044e-12 -2.23789e-12)
(2.5377e-12 -4.31689e-12 9.98225e-13)
(3.83319e-12 -2.67754e-12 1.70766e-12)
(4.17296e-12 -2.75316e-12 8.83337e-13)
(5.56686e-12 -6.18653e-12 2.41463e-12)
(7.39485e-12 -6.62237e-12 1.11506e-12)
(8.64219e-12 -6.3881e-12 -8.18016e-13)
(7.96865e-12 -7.0776e-12 -9.41191e-13)
(6.67885e-12 -3.53318e-12 -1.85089e-12)
(8.09167e-12 3.78794e-13 -2.15384e-12)
(8.59637e-12 5.70126e-12 1.54477e-12)
(8.00646e-12 1.49883e-11 5.29543e-12)
(8.6041e-12 1.98729e-11 7.09778e-12)
(5.40278e-12 2.01518e-11 8.13563e-12)
(2.18863e-12 2.77433e-11 7.61315e-12)
(-1.82288e-12 2.87864e-11 3.56086e-12)
(1.86212e-13 2.27425e-11 3.26319e-12)
(3.29237e-12 2.51835e-11 4.34819e-12)
(2.04243e-12 2.73096e-11 6.00518e-12)
(3.94907e-12 2.88323e-11 1.00733e-11)
(7.07877e-12 3.14788e-11 1.53681e-11)
(8.5788e-12 3.52156e-11 1.53066e-11)
(6.42499e-12 3.89342e-11 1.12694e-11)
(3.27467e-12 3.85562e-11 1.10905e-11)
(1.23903e-12 3.97946e-11 1.00865e-11)
(4.95641e-13 3.74025e-11 6.71175e-12)
(-2.21014e-13 3.61439e-11 1.99696e-12)
(7.76765e-13 3.44288e-11 2.40992e-12)
(-8.01882e-13 3.61354e-11 1.9144e-12)
(-1.70798e-12 3.24445e-11 3.39003e-12)
(-6.5325e-13 3.04254e-11 4.51931e-12)
(-1.87304e-12 3.46162e-11 5.29102e-12)
(-6.68494e-13 3.72921e-11 9.60451e-12)
(-1.63432e-12 3.44283e-11 1.37829e-11)
(-5.70539e-12 3.35265e-11 1.27124e-11)
(-7.48036e-12 3.06176e-11 7.46556e-12)
(-4.61909e-12 2.86455e-11 4.26495e-12)
(-2.08918e-12 2.32942e-11 2.73475e-12)
(-1.82974e-12 2.44232e-11 -1.1253e-12)
(-1.71388e-12 2.36264e-11 2.28425e-13)
(1.53965e-12 2.33399e-11 5.54717e-12)
(2.5438e-12 2.28119e-11 7.15524e-12)
(1.46851e-12 2.40282e-11 4.79025e-12)
(1.44823e-12 2.85874e-11 1.94157e-13)
(9.54531e-13 2.59412e-11 1.22391e-12)
(-1.07357e-12 2.20391e-11 6.11064e-13)
(-2.1504e-12 1.80256e-11 -3.32916e-13)
(-7.54153e-13 2.31023e-11 -5.05841e-12)
(2.31912e-12 2.45489e-11 -3.81937e-12)
(1.86438e-12 2.44381e-11 -3.93282e-12)
(3.4646e-13 2.7831e-11 -3.91542e-12)
(4.75231e-12 3.10226e-11 -1.63381e-12)
(6.58833e-12 3.29005e-11 4.16712e-12)
(4.88076e-12 3.43936e-11 7.95123e-12)
(5.85911e-12 3.40579e-11 1.00255e-11)
(1.29835e-12 3.19807e-11 1.5925e-11)
(-6.56378e-12 3.02468e-11 1.9404e-11)
(-1.15098e-11 2.79252e-11 1.60236e-11)
(-9.41866e-12 2.45183e-11 1.08806e-11)
(-6.27759e-12 1.77245e-11 9.44108e-12)
(-6.22934e-12 1.48682e-11 5.30452e-12)
(-2.5771e-12 1.53986e-11 3.4127e-12)
(-1.77615e-12 9.88274e-12 2.57951e-12)
(-5.14659e-12 1.00342e-11 3.65301e-13)
(-5.70478e-12 1.06793e-11 -5.75535e-12)
(-1.19939e-12 1.3728e-11 -1.10362e-11)
(3.25747e-12 1.46557e-11 -1.26107e-11)
(4.50314e-12 1.84688e-11 -1.29297e-11)
(5.41974e-12 1.92988e-11 -1.11286e-11)
(1.19118e-12 1.68792e-11 -1.27987e-11)
(-3.35482e-12 2.16702e-11 -1.49177e-11)
(-4.59816e-12 1.99407e-11 -1.83646e-11)
(-6.2475e-12 1.82836e-11 -1.67339e-11)
(-7.79436e-12 1.6855e-11 -1.16573e-11)
(-6.77721e-12 1.43329e-11 -7.41148e-12)
(-7.33262e-12 1.22808e-11 -1.03521e-11)
(-8.33877e-12 6.82214e-12 -1.21204e-11)
(-2.685e-12 4.78778e-12 -9.0134e-12)
(2.64713e-12 3.74792e-12 -6.06255e-12)
(2.32902e-12 8.81796e-12 -5.66345e-12)
(3.31567e-12 1.09892e-11 -7.24204e-12)
(4.10227e-12 1.32987e-11 -1.24896e-11)
(1.32681e-12 1.38882e-11 -9.48362e-12)
(7.48872e-13 1.48906e-11 -2.55324e-12)
(4.62647e-12 1.74895e-11 2.64435e-12)
(4.10088e-12 1.89382e-11 2.59707e-12)
(1.34139e-12 1.89167e-11 3.83331e-13)
(8.68041e-13 2.13299e-11 -6.26373e-13)
(7.15372e-14 2.14909e-11 5.03846e-13)
(1.0972e-12 1.86667e-11 5.37265e-13)
(3.7016e-12 1.53751e-11 1.23044e-12)
(1.93021e-12 1.76576e-11 -2.29831e-12)
(-1.87832e-12 2.02194e-11 -7.27358e-12)
(-3.63558e-12 2.24085e-11 -1.13358e-11)
(-7.71251e-13 1.76089e-11 -1.54895e-11)
(4.49928e-12 1.72368e-11 -1.99059e-11)
(5.61922e-12 1.67713e-11 -1.44162e-11)
(4.62809e-12 1.73344e-11 -1.02486e-11)
(2.04786e-12 1.85329e-11 -9.3685e-12)
(-1.67897e-12 1.50718e-11 -1.11218e-11)
(3.47109e-13 1.62063e-11 -1.22712e-11)
(4.5381e-12 1.63802e-11 -1.02748e-11)
(4.70421e-12 1.23969e-11 -9.30483e-12)
(5.94175e-12 1.21217e-11 -8.15822e-12)
(9.33172e-12 1.13615e-11 -1.41122e-11)
(1.53585e-11 8.91347e-12 -2.19424e-11)
(1.81265e-11 1.32813e-11 -2.97886e-11)
(1.73904e-11 1.40229e-11 -2.70632e-11)
(1.47034e-11 1.29376e-11 -2.7745e-11)
(1.61149e-11 1.16859e-11 -1.56978e-11)
(1.99352e-11 1.16195e-11 -7.1137e-12)
(-2.03256e-12 -1.67808e-11 1.86248e-11)
(-1.50856e-12 -1.48597e-11 1.65793e-11)
(-1.03593e-12 -1.46531e-11 1.52645e-11)
(-2.27623e-12 -1.6959e-11 1.36972e-11)
(-1.70516e-12 -1.52696e-11 1.04777e-11)
(-2.561e-12 -1.22259e-11 4.34973e-12)
(-1.67181e-12 -1.26696e-11 -4.00781e-12)
(-2.04366e-12 -1.38454e-11 -9.33008e-12)
(-1.1959e-12 -1.1646e-11 -9.97337e-12)
(4.40066e-13 -1.43894e-11 -1.02709e-11)
(2.39488e-12 -1.35783e-11 -8.82475e-12)
(3.30621e-12 -1.86821e-11 -6.03344e-12)
(2.20763e-12 -1.77978e-11 -1.75176e-12)
(2.79936e-12 -1.62411e-11 1.76476e-12)
(3.2808e-13 -1.60666e-11 3.24482e-12)
(-1.89503e-13 -1.72227e-11 2.92178e-12)
(8.77401e-13 -1.70869e-11 2.86606e-12)
(9.85697e-13 -1.63568e-11 2.73613e-12)
(3.11685e-14 -1.63023e-11 2.79223e-12)
(4.05891e-13 -1.6426e-11 2.0952e-12)
(2.00086e-12 -1.56883e-11 1.92208e-12)
(5.35804e-13 -1.65313e-11 1.02559e-12)
(-1.40001e-13 -1.52267e-11 -6.66271e-13)
(9.59831e-13 -1.2754e-11 -2.12585e-12)
(-6.9576e-13 -1.35481e-11 -5.46638e-12)
(-7.74103e-13 -1.30516e-11 -1.14901e-11)
(-1.33334e-12 -1.36934e-11 -1.63186e-11)
(-2.64611e-12 -1.44408e-11 -1.87322e-11)
(-1.34538e-12 -1.20425e-11 -1.88156e-11)
(-8.49459e-13 -1.42802e-11 -1.89071e-11)
(-8.75419e-13 -1.27169e-11 -1.64804e-11)
(1.06913e-12 -1.20385e-11 -1.18455e-11)
(1.58918e-12 -1.17454e-11 -7.50347e-12)
(1.30507e-12 -1.17892e-11 -4.27918e-12)
(6.70111e-13 -9.44562e-12 -1.18894e-12)
(1.89702e-12 -7.94633e-12 1.37579e-12)
(3.40693e-12 -6.22105e-12 2.28169e-12)
(5.61203e-12 -5.67848e-12 1.58808e-12)
(6.85822e-12 -7.862e-12 1.96676e-12)
(6.72806e-12 -9.42747e-12 2.2007e-13)
(8.87296e-12 -9.07196e-12 -1.67629e-12)
(7.76936e-12 -8.68657e-12 -8.4751e-13)
(5.71428e-12 -5.44897e-12 -1.13624e-12)
(7.77677e-12 -1.58363e-12 -1.64848e-12)
(7.14923e-12 2.95409e-12 1.1251e-12)
(5.70191e-12 9.51962e-12 4.92542e-12)
(6.48203e-12 1.27377e-11 7.00414e-12)
(3.95682e-12 1.0705e-11 6.57942e-12)
(1.24603e-12 1.90515e-11 7.07005e-12)
(-3.88384e-13 2.10427e-11 4.0551e-12)
(7.48293e-13 1.71095e-11 1.64175e-12)
(2.04076e-12 2.0102e-11 2.06785e-12)
(6.12771e-13 2.19652e-11 2.60565e-12)
(4.07818e-12 2.28694e-11 6.66157e-12)
(5.80489e-12 2.47798e-11 1.22406e-11)
(5.3188e-12 3.03462e-11 1.07041e-11)
(4.84066e-12 3.21233e-11 8.77754e-12)
(3.42437e-12 2.9699e-11 7.84645e-12)
(3.50052e-12 3.2049e-11 7.93343e-12)
(3.40944e-12 3.162e-11 9.88431e-12)
(2.26071e-12 3.1226e-11 6.72822e-12)
(1.25719e-12 2.83174e-11 4.42307e-12)
(-5.45165e-13 2.89542e-11 1.50925e-12)
(8.39068e-15 2.75717e-11 -9.05148e-13)
(-1.16135e-13 2.48333e-11 -6.25478e-13)
(-1.17346e-12 3.01602e-11 1.84039e-12)
(-2.39876e-14 2.999e-11 8.18798e-12)
(-1.52387e-12 2.76941e-11 1.55017e-11)
(-4.47621e-12 2.8318e-11 1.00806e-11)
(-6.40626e-12 2.39356e-11 6.67799e-12)
(-3.86228e-12 1.95353e-11 2.70136e-12)
(-1.49833e-12 1.63546e-11 -4.92623e-13)
(-1.84668e-12 1.61104e-11 -3.71966e-12)
(-1.41237e-12 1.81338e-11 -2.78137e-12)
(2.25492e-12 1.63096e-11 3.87579e-12)
(2.18371e-12 1.71542e-11 7.94493e-12)
(-1.35946e-13 2.01633e-11 7.49088e-12)
(2.26377e-13 2.25335e-11 3.15857e-12)
(2.10244e-12 1.99107e-11 3.39033e-12)
(7.38429e-14 1.41481e-11 5.94812e-12)
(-2.56612e-12 1.38307e-11 3.82271e-12)
(-2.76174e-12 1.89547e-11 -3.21458e-12)
(9.90617e-13 2.27469e-11 -4.50785e-12)
(1.79886e-12 1.92195e-11 -4.38387e-12)
(1.03418e-12 2.46353e-11 -4.24911e-12)
(3.47815e-12 2.58633e-11 -1.24199e-12)
(4.83445e-12 2.86719e-11 -1.66576e-12)
(4.86937e-12 2.69975e-11 -5.78888e-13)
(4.16414e-12 2.94069e-11 5.28346e-12)
(6.77017e-13 2.74727e-11 1.42621e-11)
(-5.2454e-12 2.49498e-11 1.80065e-11)
(-9.24538e-12 2.49771e-11 1.32684e-11)
(-7.42309e-12 1.69946e-11 7.69146e-12)
(-4.2644e-12 8.32802e-12 5.58201e-12)
(-5.28301e-12 7.64018e-12 3.89451e-12)
(-2.37753e-12 9.83182e-12 4.08015e-12)
(-1.06007e-12 5.90164e-12 7.82267e-12)
(-4.56994e-12 3.56844e-12 1.56288e-12)
(-5.78271e-12 4.62364e-12 -8.91436e-12)
(-1.23898e-12 9.61211e-12 -1.65972e-11)
(2.61998e-12 8.01708e-12 -1.83348e-11)
(3.61135e-12 1.11347e-11 -1.61619e-11)
(2.77317e-12 1.25974e-11 -1.39552e-11)
(2.66419e-16 1.34007e-11 -1.55846e-11)
(-3.70736e-12 1.57434e-11 -1.45123e-11)
(-5.60878e-12 1.61041e-11 -1.30288e-11)
(-6.07472e-12 1.52257e-11 -8.05471e-12)
(-6.9549e-12 1.26298e-11 -7.77096e-12)
(-4.64472e-12 9.39138e-12 -6.84618e-12)
(-5.61716e-12 3.7121e-12 -4.49439e-12)
(-6.11063e-12 1.69462e-12 -6.92347e-13)
(-2.78507e-12 4.55823e-12 -7.50315e-13)
(4.92971e-13 1.4766e-12 -2.47369e-12)
(5.56105e-13 4.63344e-12 -3.27809e-12)
(2.21197e-12 1.181e-11 -5.84745e-12)
(3.20414e-12 1.2053e-11 -1.13641e-11)
(1.32134e-12 1.27728e-11 -7.88752e-12)
(7.20093e-13 1.50007e-11 -4.56086e-12)
(2.47347e-12 1.44959e-11 -3.85492e-12)
(3.09303e-12 1.82322e-11 3.25056e-13)
(1.3314e-12 1.81822e-11 -1.14422e-12)
(-5.11417e-13 2.03055e-11 1.17282e-12)
(6.47212e-13 2.31234e-11 2.30894e-12)
(2.69288e-12 1.93769e-11 3.98806e-12)
(2.23551e-12 1.27193e-11 5.68945e-12)
(-4.52428e-13 1.58225e-11 1.76865e-12)
(-1.43478e-12 2.0777e-11 -3.77144e-12)
(-1.18862e-12 1.81395e-11 -9.08927e-12)
(1.09719e-12 1.4722e-11 -1.16803e-11)
(3.58904e-12 1.64475e-11 -1.43646e-11)
(5.82746e-12 1.81981e-11 -1.17204e-11)
(4.60265e-12 1.28622e-11 -1.10076e-11)
(2.48761e-12 1.48212e-11 -1.10865e-11)
(2.13308e-13 8.79276e-12 -1.07824e-11)
(2.633e-13 1.02318e-11 -1.30272e-11)
(3.76569e-12 1.226e-11 -1.24022e-11)
(4.58367e-12 1.32593e-11 -1.29564e-11)
(6.3129e-12 1.38651e-11 -1.25938e-11)
(1.14426e-11 9.47667e-12 -1.81676e-11)
(1.54159e-11 4.49634e-12 -2.65104e-11)
(1.84665e-11 6.53225e-12 -3.24898e-11)
(1.75409e-11 7.7379e-12 -3.05204e-11)
(1.48407e-11 1.06409e-11 -2.7656e-11)
(1.73955e-11 1.20856e-11 -1.42651e-11)
(2.04845e-11 7.56661e-12 -6.38215e-12)
(-1.82755e-12 -1.34988e-11 1.58785e-11)
(-1.60287e-12 -1.27241e-11 1.39302e-11)
(4.10558e-13 -1.39778e-11 1.29253e-11)
(-1.66352e-12 -1.57664e-11 1.23457e-11)
(-3.64686e-12 -1.44364e-11 1.25948e-11)
(-3.279e-12 -1.23019e-11 4.62482e-12)
(-1.19718e-12 -1.40224e-11 -4.93031e-12)
(-3.34684e-12 -1.15058e-11 -7.85782e-12)