/*--------------------------------*- C++ -*----------------------------------*\
| =========                 |                                                 |
| \\      /  F ield         | OpenFOAM: The Open Source CFD Toolbox           |
|  \\    /   O peration     | Version:  2406                                  |
|   \\  /    A nd           | Website:  www.openfoam.com                      |
|    \\/     M anipulation  |                                                 |
\*---------------------------------------------------------------------------*/
FoamFile
{
    version     2.0;
    format      ascii;
    arch        "LSB;label=32;scalar=64";
    class       volScalarField;
    location    "0.007";
    object      Ma;
}
// * * * * * * * * * * * * * * * * * * * * * * * * * * * * * * * * * * * * * //

dimensions      [0 0 0 0 0 0 0];

internalField   nonuniform List<scalar> 
81000
(
0.00127842
0.0012782
0.00127778
0.00127717
0.00127646
0.00127576
0.00127515
0.00127468
0.00127436
0.00127417
0.00127408
0.00127405
0.00127404
0.00127405
0.00127409
0.00127417
0.00127432
0.00127453
0.0012748
0.00127509
0.00127539
0.00127568
0.00127593
0.00127614
0.0012763
0.00127642
0.00127649
0.00127652
0.00127652
0.00127649
0.00127644
0.00127639
0.00127634
0.00127631
0.00127629
0.00127629
0.00127632
0.00127637
0.00127645
0.00127656
0.0012767
0.00127687
0.00127708
0.00127732
0.00127759
0.00127789
0.00127822
0.00127856
0.00127891
0.00127928
0.00127964
0.00127999
0.00128033
0.00128064
0.00128091
0.00128114
0.00128131
0.00128143
0.00128148
0.0012815
0.00128149
0.00128148
0.00128149
0.0012815
0.0012815
0.00128149
0.00128145
0.00128137
0.00128124
0.00128104
0.00128076
0.00128039
0.00127992
0.00127934
0.00127864
0.00127782
0.00127687
0.00127582
0.00127468
0.00127348
0.00127225
0.00127106
0.00126997
0.00126901
0.00126823
0.00126762
0.00126718
0.00126691
0.00126676
0.00126671
0.0012667
0.00126673
0.00126691
0.00126731
0.00126795
0.00126875
0.00126954
0.00127015
0.0012705
0.00127065
0.00373408
0.0037336
0.00373287
0.00373182
0.00373064
0.00372955
0.0037287
0.00372815
0.00372787
0.00372776
0.00372774
0.00372775
0.00372778
0.00372787
0.00372802
0.00372824
0.00372854
0.00372891
0.00372931
0.00372972
0.0037301
0.00373043
0.00373069
0.00373089
0.00373103
0.00373113
0.0037312
0.00373124
0.00373126
0.00373127
0.00373127
0.00373127
0.00373126
0.00373124
0.00373123
0.00373122
0.00373122
0.00373121
0.0037312
0.00373119
0.00373119
0.00373119
0.00373121
0.00373123
0.00373124
0.00373123
0.0037312
0.00373113
0.00373102
0.00373086
0.00373064
0.00373036
0.00373002
0.00372962
0.00372917
0.00372866
0.00372811
0.00372753
0.00372694
0.00372635
0.0037258
0.00372532
0.00372494
0.00372467
0.00372453
0.0037245
0.00372457
0.00372473
0.00372497
0.00372528
0.00372565
0.00372607
0.00372651
0.00372697
0.00372741
0.0037278
0.00372811
0.00372832
0.00372842
0.00372847
0.00372851
0.0037286
0.00372878
0.00372904
0.00372938
0.0037298
0.00373033
0.00373097
0.00373179
0.00373281
0.00373411
0.00373575
0.00373776
0.00374018
0.00374295
0.0037459
0.00374876
0.00375119
0.00375285
0.00375373
0.00457856
0.00459218
0.0045922
0.00459214
0.00459197
0.00459173
0.00459156
0.0045915
0.00459151
0.00459157
0.00459175
0.00459205
0.0045925
0.00459308
0.00459381
0.00459467
0.00459571
0.00459687
0.00459816
0.0045995
0.00460088
0.00460219
0.00460343
0.0046045
0.00460544
0.0046062
0.00460681
0.00460726
0.0046076
0.00460782
0.00460796
0.00460802
0.00460803
0.00460802
0.00460795
0.00460779
0.00460752
0.00460716
0.00460675
0.0046063
0.00460584
0.00460529
0.00460459
0.00460372
0.00460263
0.00460129
0.00459968
0.00459777
0.00459558
0.00459311
0.00459042
0.00458755
0.00458461
0.00458167
0.00457887
0.0045763
0.00457407
0.00457226
0.00457092
0.00457009
0.00456983
0.0045701
0.0045708
0.00457183
0.00457315
0.00457478
0.00457678
0.00457921
0.00458216
0.00458568
0.00458979
0.00459448
0.00459974
0.00460546
0.00461154
0.00461783
0.0046242
0.00463053
0.00463674
0.00464279
0.00464869
0.00465448
0.0046602
0.00466592
0.00467172
0.00467767
0.00468379
0.0046901
0.00469656
0.00470315
0.00470983
0.00471663
0.0047236
0.0047308
0.00473821
0.00474562
0.00475254
0.00475822
0.00476192
0.00476385
0.00656564
0.00656493
0.00656429
0.00656362
0.00656307
0.00656271
0.00656236
0.00656208
0.00656176
0.00656141
0.00656104
0.00656065
0.00656026
0.00655989
0.00655954
0.00655922
0.00655891
0.00655863
0.00655835
0.00655809
0.00655785
0.00655756
0.00655727
0.00655695
0.0065566
0.00655624
0.00655587
0.00655549
0.0065551
0.00655471
0.00655434
0.00655399
0.00655366
0.00655336
0.0065531
0.00655288
0.0065527
0.00655256
0.00655246
0.00655242
0.00655243
0.00655248
0.00655255
0.00655262
0.00655267
0.00655268
0.00655265
0.00655259
0.00655252
0.00655245
0.00655243
0.00655248
0.00655262
0.00655284
0.00655313
0.00655343
0.00655368
0.00655383
0.00655383
0.00655364
0.00655323
0.00655257
0.00655166
0.00655051
0.00654912
0.00654754
0.00654582
0.00654401
0.00654219
0.0065404
0.0065387
0.00653709
0.00653567
0.0065345
0.0065336
0.00653299
0.00653268
0.00653265
0.00653291
0.00653341
0.00653414
0.00653505
0.00653612
0.00653731
0.0065386
0.00653995
0.00654136
0.00654282
0.00654432
0.00654585
0.00654738
0.00654884
0.00655019
0.00655135
0.00655226
0.00655289
0.00655325
0.00655341
0.00655345
0.00655102
0.0122737
0.0123034
0.012303
0.0123031
0.0123031
0.012303
0.012303
0.0123029
0.0123029
0.0123029
0.012303
0.0123031
0.0123034
0.0123037
0.012304
0.0123043
0.0123047
0.0123051
0.0123056
0.012306
0.0123065
0.0123069
0.0123073
0.0123077
0.012308
0.0123083
0.0123085
0.0123087
0.0123087
0.0123088
0.0123088
0.0123088
0.0123088
0.0123088
0.0123087
0.0123087
0.0123086
0.0123085
0.0123084
0.0123084
0.0123083
0.0123083
0.0123083
0.0123084
0.0123084
0.0123085
0.0123087
0.012309
0.0123093
0.0123098
0.0123105
0.0123114
0.0123125
0.0123139
0.0123156
0.0123177
0.0123202
0.012323
0.0123262
0.0123298
0.0123336
0.0123377
0.0123421
0.0123465
0.0123511
0.0123557
0.0123603
0.0123649
0.0123694
0.0123739
0.0123782
0.0123825
0.0123865
0.0123904
0.0123941
0.0123976
0.0124009
0.0124039
0.0124067
0.0124093
0.0124117
0.0124139
0.0124158
0.0124175
0.012419
0.0124204
0.0124216
0.0124227
0.0124236
0.0124245
0.0124254
0.0124262
0.0124271
0.012428
0.012429
0.0124301
0.012431
0.0124317
0.0124321
0.0124331
0.0241593
0.0241665
0.0241664
0.0241663
0.0241662
0.024166
0.0241658
0.0241656
0.0241653
0.0241651
0.0241649
0.0241647
0.0241646
0.0241645
0.0241645
0.0241644
0.0241644
0.0241644
0.0241644
0.0241645
0.0241645
0.0241645
0.0241645
0.0241645
0.0241645
0.0241644
0.0241643
0.0241642
0.0241641
0.024164
0.0241639
0.0241638
0.0241637
0.0241637
0.0241636
0.0241636
0.0241636
0.0241636
0.0241637
0.0241637
0.0241638
0.0241639
0.024164
0.0241641
0.0241642
0.0241643
0.0241645
0.0241647
0.0241649
0.0241652
0.0241655
0.0241658
0.0241662
0.0241667
0.0241672
0.0241679
0.0241686
0.0241694
0.0241703
0.0241714
0.0241726
0.0241739
0.0241754
0.0241771
0.024179
0.024181
0.0241833
0.0241859
0.0241886
0.0241915
0.0241946
0.0241978
0.0242012
0.0242046
0.0242081
0.0242115
0.0242149
0.0242182
0.0242214
0.0242244
0.0242273
0.0242299
0.0242323
0.0242345
0.0242364
0.0242382
0.0242398
0.0242412
0.0242424
0.0242434
0.0242443
0.024245
0.0242456
0.024246
0.0242463
0.0242464
0.0242465
0.0242466
0.0242466
0.0242273
0.0395607
0.0396963
0.0396967
0.0396966
0.0396966
0.0396965
0.0396964
0.0396963
0.0396961
0.0396957
0.0396953
0.0396948
0.0396942
0.0396935
0.0396926
0.0396917
0.0396908
0.0396898
0.0396888
0.0396879
0.0396869
0.0396861
0.0396852
0.0396845
0.0396838
0.0396832
0.0396827
0.0396823
0.0396819
0.0396816
0.0396814
0.0396812
0.039681
0.0396809
0.0396808
0.0396808
0.0396808
0.0396808
0.0396809
0.039681
0.039681
0.0396811
0.0396812
0.0396813
0.0396813
0.0396814
0.0396814
0.0396814
0.0396815
0.0396815
0.0396815
0.0396815
0.0396814
0.0396813
0.0396812
0.039681
0.0396807
0.0396803
0.0396799
0.0396794
0.0396788
0.0396782
0.0396776
0.039677
0.0396766
0.0396763
0.0396763
0.0396765
0.0396771
0.0396777
0.0396786
0.0396798
0.0396813
0.0396829
0.0396848
0.0396867
0.0396888
0.039691
0.0396932
0.0396954
0.0396977
0.0396999
0.039702
0.0397042
0.0397062
0.0397082
0.0397101
0.0397119
0.0397136
0.0397153
0.0397169
0.0397185
0.03972
0.0397214
0.0397226
0.0397237
0.0397244
0.0397254
0.0397228
0.039522
0.0524529
0.0524271
0.0524256
0.0524242
0.052423
0.052422
0.0524212
0.0524205
0.0524198
0.0524189
0.052418
0.052417
0.052416
0.0524151
0.0524141
0.0524132
0.0524123
0.0524116
0.0524108
0.0524101
0.0524095
0.0524089
0.0524084
0.052408
0.0524075
0.0524072
0.0524067
0.0524063
0.0524059
0.0524055
0.052405
0.0524046
0.0524041
0.0524038
0.0524033
0.0524031
0.0524027
0.0524025
0.0524023
0.0524022
0.0524021
0.0524021
0.052402
0.052402
0.052402
0.052402
0.052402
0.0524021
0.0524021
0.0524021
0.0524021
0.0524022
0.0524022
0.0524024
0.0524025
0.0524027
0.0524029
0.0524032
0.0524035
0.0524039
0.0524043
0.0524048
0.0524051
0.0524056
0.0524059
0.0524063
0.0524066
0.052407
0.0524073
0.0524076
0.0524079
0.0524083
0.0524086
0.0524089
0.0524093
0.0524098
0.0524103
0.0524108
0.0524114
0.052412
0.0524127
0.0524135
0.0524145
0.0524156
0.0524169
0.0524179
0.052419
0.05242
0.052421
0.0524219
0.0524228
0.0524235
0.0524243
0.052425
0.052426
0.0524273
0.0524288
0.0524305
0.052432
0.052457
0.0654145
0.06534
0.0653395
0.0653388
0.0653377
0.0653364
0.065335
0.0653336
0.0653321
0.0653308
0.0653296
0.0653285
0.0653277
0.0653269
0.0653263
0.0653258
0.0653253
0.0653248
0.0653243
0.0653239
0.0653236
0.0653233
0.065323
0.0653227
0.0653225
0.0653223
0.0653222
0.065322
0.0653219
0.0653219
0.0653218
0.0653217
0.0653217
0.0653217
0.0653217
0.0653217
0.0653217
0.0653217
0.0653218
0.0653218
0.0653219
0.065322
0.0653221
0.0653223
0.0653225
0.0653227
0.065323
0.0653233
0.0653236
0.065324
0.0653244
0.0653249
0.0653254
0.065326
0.0653266
0.0653272
0.0653278
0.0653284
0.0653291
0.0653297
0.0653304
0.065331
0.0653316
0.0653322
0.0653328
0.0653333
0.0653338
0.0653343
0.0653347
0.0653351
0.0653354
0.0653357
0.065336
0.0653362
0.0653364
0.0653366
0.0653368
0.065337
0.0653372
0.0653373
0.0653375
0.0653376
0.0653377
0.0653379
0.065338
0.0653382
0.0653384
0.0653387
0.0653391
0.0653397
0.0653403
0.065341
0.0653418
0.0653425
0.0653432
0.0653438
0.0653442
0.0653445
0.0653459
0.0654209
0.0528254
0.0527885
0.0527871
0.052785
0.0527823
0.0527793
0.0527762
0.0527732
0.0527705
0.052768
0.052766
0.0527643
0.052763
0.052762
0.0527612
0.0527606
0.0527602
0.0527599
0.0527596
0.0527594
0.0527593
0.0527592
0.0527591
0.0527591
0.0527591
0.0527591
0.0527591
0.0527591
0.0527591
0.0527591
0.0527591
0.0527591
0.0527592
0.0527592
0.0527592
0.0527593
0.0527593
0.0527593
0.0527594
0.0527594
0.0527595
0.0527595
0.0527596
0.0527597
0.0527598
0.0527599
0.0527601
0.0527602
0.0527604
0.0527606
0.0527608
0.0527611
0.0527613
0.0527616
0.0527618
0.0527621
0.0527624
0.0527626
0.0527628
0.0527631
0.0527632
0.0527634
0.0527635
0.0527636
0.0527636
0.0527637
0.0527637
0.0527637
0.0527636
0.0527636
0.0527635
0.0527635
0.0527634
0.0527632
0.0527631
0.0527629
0.0527627
0.0527625
0.0527624
0.0527623
0.0527621
0.0527621
0.052762
0.052762
0.0527621
0.0527623
0.0527626
0.0527632
0.052764
0.0527652
0.0527667
0.0527686
0.0527709
0.0527733
0.0527759
0.0527782
0.0527803
0.052782
0.052783
0.0528215
0.00126654
0.0012664
0.00126622
0.00126585
0.00126531
0.00126468
0.00126407
0.00126356
0.00126319
0.00126296
0.00126285
0.0012628
0.00126279
0.00126279
0.00126281
0.00126287
0.00126298
0.00126316
0.00126339
0.00126366
0.00126395
0.00126424
0.0012645
0.00126473
0.00126492
0.00126506
0.00126515
0.00126521
0.00126523
0.00126522
0.00126519
0.00126516
0.00126512
0.0012651
0.00126509
0.0012651
0.00126514
0.00126519
0.00126527
0.00126538
0.00126551
0.00126567
0.00126586
0.00126608
0.00126633
0.0012666
0.00126689
0.0012672
0.00126751
0.00126783
0.00126815
0.00126845
0.00126873
0.00126898
0.00126919
0.00126934
0.00126945
0.0012695
0.0012695
0.00126947
0.00126942
0.00126938
0.00126934
0.00126932
0.00126931
0.0012693
0.00126929
0.00126927
0.00126922
0.00126913
0.00126899
0.00126878
0.00126849
0.0012681
0.0012676
0.001267
0.0012663
0.00126551
0.00126464
0.00126371
0.00126276
0.00126181
0.0012609
0.00126005
0.00125932
0.00125872
0.00125829
0.00125802
0.00125788
0.00125783
0.00125783
0.00125788
0.00125806
0.00125843
0.00125896
0.00125952
0.00125995
0.0012602
0.00126027
0.00125927
0.00369759
0.00369704
0.00369677
0.00369623
0.00369545
0.00369458
0.00369379
0.00369321
0.00369288
0.00369274
0.00369271
0.00369271
0.00369276
0.00369287
0.00369307
0.00369335
0.00369371
0.00369411
0.00369453
0.00369493
0.00369531
0.00369563
0.0036959
0.00369611
0.00369626
0.00369638
0.00369646
0.00369651
0.00369654
0.00369656
0.00369656
0.00369655
0.00369653
0.00369651
0.0036965
0.00369648
0.00369649
0.0036965
0.00369652
0.00369655
0.00369658
0.00369663
0.00369668
0.00369674
0.00369681
0.00369688
0.00369693
0.00369697
0.00369697
0.00369694
0.00369687
0.00369675
0.00369658
0.00369635
0.00369607
0.00369574
0.00369536
0.00369494
0.00369448
0.003694
0.00369352
0.00369306
0.00369264
0.00369229
0.00369201
0.0036918
0.00369165
0.00369154
0.00369144
0.00369135
0.00369123
0.00369107
0.00369086
0.0036906
0.00369027
0.00368985
0.00368934
0.00368875
0.0036881
0.00368746
0.00368689
0.00368643
0.00368612
0.00368593
0.00368586
0.00368591
0.00368606
0.00368635
0.00368682
0.00368753
0.00368856
0.00368996
0.00369177
0.00369399
0.0036965
0.00369911
0.00370151
0.00370338
0.00370452
0.00370547
0.00450886
0.00451998
0.00451989
0.00451961
0.00451911
0.00451852
0.00451791
0.00451744
0.00451711
0.00451693
0.00451687
0.00451686
0.00451689
0.00451701
0.00451726
0.0045177
0.00451826
0.00451899
0.00451977
0.00452064
0.00452145
0.00452228
0.00452298
0.00452362
0.0045241
0.00452448
0.0045247
0.00452484
0.00452488
0.00452489
0.00452489
0.00452485
0.00452477
0.00452464
0.00452445
0.00452421
0.00452392
0.0045236
0.00452327
0.00452293
0.00452258
0.00452219
0.0045217
0.00452112
0.00452041
0.00451958
0.0045186
0.0045175
0.00451625
0.00451491
0.00451348
0.00451203
0.00451058
0.00450921
0.00450795
0.00450686
0.00450599
0.00450538
0.00450508
0.00450512
0.00450548
0.00450611
0.00450697
0.00450801
0.00450923
0.0045106
0.00451214
0.00451387
0.00451578
0.00451786
0.00452007
0.00452238
0.00452473
0.00452704
0.00452925
0.00453132
0.0045332
0.0045349
0.00453643
0.00453786
0.00453926
0.00454078
0.00454254
0.00454461
0.00454705
0.00454989
0.00455316
0.00455686
0.004561
0.0045656
0.00457067
0.0045762
0.00458211
0.00458821
0.00459418
0.00459953
0.00460376
0.0046065
0.0046078
0.00460912
0.00653601
0.0065376
0.00653757
0.00653749
0.00653736
0.00653719
0.00653699
0.00653677
0.00653654
0.00653629
0.00653602
0.00653576
0.0065355
0.00653526
0.00653504
0.00653485
0.00653469
0.00653455
0.00653444
0.00653436
0.00653431
0.00653422
0.00653412
0.00653399
0.00653384
0.00653365
0.00653344
0.00653321
0.00653296
0.0065327
0.00653243
0.00653217
0.00653192
0.00653168
0.00653144
0.00653122
0.00653101
0.00653083
0.00653065
0.00653051
0.00653039
0.0065303
0.00653023
0.00653016
0.00653007
0.00652997
0.00652985
0.00652972
0.00652961
0.00652954
0.00652953
0.0065296
0.00652977
0.00653005
0.00653043
0.00653091
0.00653146
0.00653205
0.00653268
0.0065333
0.0065339
0.00653446
0.00653497
0.0065354
0.00653574
0.006536
0.00653619
0.00653635
0.0065365
0.00653663
0.00653677
0.0065369
0.00653698
0.00653705
0.00653711
0.00653717
0.00653723
0.00653733
0.0065375
0.00653777
0.00653813
0.00653859
0.00653915
0.00653978
0.00654051
0.00654134
0.00654227
0.0065433
0.00654443
0.00654565
0.00654695
0.0065483
0.00654962
0.00655081
0.00655175
0.00655242
0.00655286
0.00655334
0.00655379
0.0065551
0.0121751
0.0122146
0.0122145
0.0122144
0.0122142
0.0122138
0.0122133
0.0122128
0.0122125
0.0122122
0.012212
0.0122119
0.0122118
0.0122118
0.0122118
0.0122119
0.012212
0.0122122
0.0122123
0.0122125
0.0122127
0.0122128
0.012213
0.0122131
0.0122132
0.0122132
0.0122133
0.0122133
0.0122132
0.0122132
0.0122132
0.0122132
0.0122131
0.0122131
0.0122131
0.0122131
0.012213
0.012213
0.012213
0.012213
0.012213
0.012213
0.012213
0.012213
0.0122131
0.0122132
0.0122134
0.0122136
0.0122139
0.0122142
0.0122147
0.0122152
0.0122159
0.0122168
0.0122177
0.0122189
0.0122202
0.0122216
0.0122232
0.0122249
0.0122268
0.0122287
0.0122308
0.0122329
0.0122352
0.0122375
0.0122399
0.0122424
0.012245
0.0122477
0.0122505
0.0122534
0.0122564
0.0122595
0.0122626
0.0122657
0.0122689
0.012272
0.012275
0.0122778
0.0122805
0.012283
0.0122853
0.0122874
0.0122893
0.0122911
0.0122927
0.0122941
0.0122955
0.0122968
0.012298
0.0122991
0.0123001
0.0123011
0.0123019
0.0123025
0.012303
0.0123032
0.0123033
0.012299
0.0240469
0.0240719
0.0240723
0.0240722
0.0240721
0.024072
0.0240718
0.0240715
0.0240713
0.0240711
0.0240709
0.0240707
0.0240705
0.0240704
0.0240703
0.0240703
0.0240702
0.0240701
0.0240701
0.0240701
0.02407
0.02407
0.0240699
0.0240698
0.0240697
0.0240696
0.0240695
0.0240693
0.0240692
0.0240691
0.024069
0.0240689
0.0240688
0.0240688
0.0240687
0.0240687
0.0240688
0.0240688
0.0240689
0.0240689
0.024069
0.0240691
0.0240692
0.0240692
0.0240693
0.0240694
0.0240695
0.0240696
0.0240698
0.0240699
0.02407
0.0240702
0.0240703
0.0240704
0.0240705
0.0240705
0.0240706
0.0240705
0.0240705
0.0240703
0.0240702
0.0240701
0.0240699
0.0240698
0.0240698
0.02407
0.0240702
0.0240707
0.0240713
0.0240722
0.0240733
0.0240746
0.0240762
0.0240779
0.0240798
0.0240819
0.024084
0.0240862
0.0240884
0.0240905
0.0240926
0.0240945
0.0240963
0.024098
0.0240995
0.0241009
0.0241022
0.0241033
0.0241043
0.0241052
0.0241059
0.0241065
0.024107
0.0241074
0.0241077
0.0241079
0.024108
0.0241082
0.0241083
0.0240718
0.0394721
0.039629
0.0396294
0.0396294
0.0396294
0.0396293
0.0396292
0.0396291
0.0396289
0.0396286
0.0396282
0.0396277
0.0396272
0.0396265
0.0396257
0.0396249
0.0396241
0.0396232
0.0396223
0.0396214
0.0396205
0.0396198
0.039619
0.0396184
0.0396178
0.0396172
0.0396168
0.0396164
0.0396161
0.0396158
0.0396156
0.0396154
0.0396153
0.0396152
0.0396151
0.0396151
0.039615
0.039615
0.0396151
0.0396151
0.0396151
0.0396151
0.0396152
0.0396152
0.0396152
0.0396152
0.0396152
0.0396152
0.0396151
0.0396151
0.0396151
0.039615
0.0396149
0.0396147
0.0396145
0.0396142
0.0396139
0.0396134
0.0396129
0.0396123
0.0396116
0.0396108
0.0396099
0.0396091
0.0396082
0.0396075
0.0396069
0.0396064
0.0396061
0.0396061
0.0396065
0.0396071
0.0396078
0.0396088
0.0396099
0.0396111
0.0396125
0.039614
0.0396156
0.0396173
0.0396189
0.0396206
0.0396224
0.0396241
0.0396257
0.0396274
0.039629
0.0396306
0.0396322
0.0396337
0.0396352
0.0396367
0.0396381
0.0396395
0.0396408
0.0396418
0.0396426
0.0396438
0.0396417
0.0394232
0.0527048
0.0527713
0.0527705
0.0527702
0.0527699
0.0527695
0.0527691
0.0527686
0.052768
0.0527672
0.0527662
0.0527651
0.052764
0.0527627
0.0527614
0.0527602
0.0527589
0.0527577
0.0527566
0.0527556
0.0527546
0.0527538
0.052753
0.0527523
0.0527517
0.0527511
0.0527507
0.0527502
0.0527497
0.0527493
0.0527488
0.0527484
0.0527481
0.0527477
0.0527474
0.0527471
0.0527469
0.0527467
0.0527465
0.0527463
0.0527462
0.0527461
0.0527461
0.052746
0.052746
0.052746
0.052746
0.0527461
0.0527461
0.0527462
0.0527463
0.0527464
0.0527465
0.0527467
0.0527468
0.052747
0.0527472
0.0527475
0.0527478
0.052748
0.0527484
0.0527487
0.052749
0.0527494
0.0527498
0.0527502
0.0527505
0.0527508
0.0527512
0.0527514
0.0527517
0.0527521
0.0527525
0.0527531
0.0527537
0.0527543
0.0527551
0.0527561
0.0527573
0.0527587
0.0527601
0.0527616
0.0527629
0.0527644
0.0527659
0.0527675
0.0527691
0.0527705
0.0527718
0.0527729
0.0527738
0.0527746
0.0527752
0.0527757
0.0527762
0.0527768
0.0527773
0.0527782
0.0527803
0.0527096
0.0662434
0.0665114
0.0665163
0.0665155
0.0665142
0.0665131
0.0665121
0.0665111
0.0665102
0.0665093
0.0665084
0.0665076
0.0665067
0.0665059
0.0665051
0.0665044
0.0665037
0.066503
0.0665023
0.0665017
0.0665011
0.0665006
0.0665001
0.0664996
0.0664992
0.0664989
0.0664985
0.0664983
0.066498
0.0664978
0.0664976
0.0664975
0.0664974
0.0664973
0.0664973
0.0664973
0.0664972
0.0664973
0.0664973
0.0664973
0.0664974
0.0664975
0.0664976
0.0664978
0.066498
0.0664982
0.0664985
0.0664988
0.0664992
0.0664996
0.0665
0.0665005
0.066501
0.0665015
0.0665021
0.0665027
0.0665032
0.0665038
0.0665044
0.066505
0.0665055
0.0665061
0.0665066
0.0665071
0.0665075
0.0665079
0.0665083
0.0665087
0.066509
0.0665093
0.0665095
0.0665097
0.06651
0.0665102
0.0665104
0.0665106
0.0665108
0.066511
0.0665112
0.0665114
0.0665117
0.066512
0.0665122
0.0665125
0.0665128
0.0665132
0.0665135
0.0665139
0.0665142
0.0665146
0.0665149
0.0665153
0.0665157
0.0665162
0.0665168
0.0665175
0.0665181
0.0665173
0.0665097
0.0662189
0.0533305
0.0535145
0.053516
0.0535147
0.0535129
0.0535109
0.0535088
0.0535067
0.0535046
0.0535028
0.0535011
0.0534997
0.0534984
0.0534974
0.0534966
0.0534959
0.0534954
0.053495
0.0534946
0.0534943
0.0534941
0.0534939
0.0534937
0.0534935
0.0534934
0.0534933
0.0534932
0.0534931
0.053493
0.0534929
0.0534929
0.0534929
0.0534928
0.0534928
0.0534928
0.0534928
0.0534928
0.0534928
0.0534929
0.0534929
0.0534929
0.053493
0.0534931
0.0534932
0.0534933
0.0534934
0.0534935
0.0534937
0.0534939
0.0534941
0.0534943
0.0534945
0.0534948
0.0534951
0.0534953
0.0534956
0.0534959
0.0534962
0.0534964
0.0534967
0.0534969
0.0534971
0.0534973
0.0534975
0.0534976
0.0534977
0.0534978
0.0534979
0.053498
0.053498
0.0534981
0.0534981
0.0534981
0.0534981
0.053498
0.053498
0.0534979
0.0534979
0.0534978
0.0534978
0.0534978
0.0534978
0.0534979
0.053498
0.0534981
0.0534984
0.0534988
0.0534993
0.0535
0.0535009
0.053502
0.0535034
0.0535049
0.0535067
0.0535087
0.0535109
0.0535131
0.0535143
0.0535118
0.0533158
0.00125381
0.00125363
0.00125356
0.0012534
0.00125309
0.00125264
0.00125211
0.00125159
0.00125117
0.00125088
0.00125071
0.00125062
0.0012506
0.0012506
0.00125062
0.00125068
0.00125079
0.00125097
0.00125121
0.0012515
0.00125182
0.00125216
0.00125248
0.00125276
0.00125301
0.0012532
0.00125334
0.00125344
0.0012535
0.00125353
0.00125353
0.00125352
0.00125352
0.00125352
0.00125353
0.00125356
0.00125361
0.00125367
0.00125376
0.00125387
0.00125401
0.00125417
0.00125435
0.00125455
0.00125478
0.00125503
0.00125529
0.00125556
0.00125584
0.00125612
0.00125638
0.00125663
0.00125684
0.00125703
0.00125716
0.00125725
0.00125728
0.00125727
0.00125722
0.00125716
0.00125709
0.00125702
0.00125695
0.00125691
0.00125689
0.0012569
0.00125693
0.00125698
0.00125704
0.00125707
0.00125706
0.00125699
0.00125682
0.00125655
0.00125618
0.00125571
0.00125513
0.00125445
0.00125367
0.00125279
0.00125183
0.00125084
0.00124987
0.00124898
0.00124825
0.00124771
0.00124737
0.00124721
0.00124717
0.00124717
0.0012472
0.00124731
0.00124756
0.00124795
0.00124846
0.00124903
0.00124963
0.00125019
0.00125064
0.00125102
0.00366533
0.00366438
0.00366386
0.00366311
0.00366222
0.0036613
0.00366045
0.00365975
0.00365925
0.00365893
0.00365876
0.0036587
0.00365869
0.00365871
0.00365879
0.00365894
0.00365914
0.00365937
0.00365959
0.0036598
0.00365995
0.00366006
0.00366011
0.00366013
0.00366013
0.00366011
0.00366007
0.00366001
0.00365993
0.00365983
0.00365973
0.00365963
0.00365953
0.00365944
0.00365937
0.00365931
0.00365928
0.00365929
0.00365931
0.00365936
0.00365943
0.00365952
0.00365961
0.00365972
0.00365985
0.00365999
0.00366014
0.00366028
0.00366042
0.00366055
0.00366066
0.00366074
0.00366079
0.0036608
0.00366075
0.00366065
0.0036605
0.00366029
0.00366003
0.00365974
0.00365942
0.00365909
0.00365875
0.00365842
0.0036581
0.00365779
0.00365745
0.00365708
0.00365666
0.00365617
0.00365561
0.00365494
0.00365416
0.00365324
0.0036522
0.00365104
0.00364979
0.0036485
0.00364721
0.00364597
0.00364485
0.00364389
0.0036431
0.0036425
0.00364208
0.00364182
0.00364169
0.00364171
0.0036419
0.00364235
0.00364315
0.00364439
0.00364609
0.00364817
0.00365047
0.00365276
0.0036548
0.00365636
0.00365732
0.00365851
0.00449091
0.00448871
0.00448671
0.00448462
0.00448291
0.00448165
0.00448065
0.00447981
0.00447904
0.00447831
0.00447763
0.00447702
0.00447651
0.0044761
0.00447578
0.00447553
0.00447534
0.00447517
0.00447502
0.00447487
0.00447471
0.00447454
0.00447434
0.00447411
0.00447384
0.00447353
0.00447317
0.00447278
0.00447237
0.00447194
0.00447151
0.00447109
0.00447068
0.00447029
0.00446993
0.00446958
0.00446926
0.00446897
0.00446871
0.00446848
0.00446827
0.00446806
0.00446786
0.00446768
0.00446753
0.00446742
0.00446739
0.00446744
0.00446762
0.00446795
0.00446843
0.00446909
0.00446993
0.00447096
0.00447214
0.00447346
0.00447489
0.00447635
0.00447783
0.00447927
0.00448066
0.00448197
0.00448322
0.00448441
0.00448558
0.00448671
0.00448776
0.00448866
0.0044893
0.00448951
0.00448911
0.00448799
0.00448612
0.00448344
0.00448001
0.00447585
0.0044711
0.00446595
0.00446062
0.00445537
0.00445044
0.00444607
0.00444244
0.00443969
0.00443786
0.00443686
0.00443647
0.00443649
0.00443688
0.00443817
0.00444067
0.00444433
0.00444869
0.00445319
0.00445718
0.00446021
0.00446206
0.00446289
0.0044631
0.00445561
0.00650824
0.00653038
0.00653044
0.00653043
0.00653041
0.00653038
0.00653034
0.00653032
0.00653031
0.00653032
0.00653033
0.00653037
0.00653045
0.00653058
0.00653078
0.00653103
0.00653134
0.00653171
0.00653213
0.00653258
0.00653304
0.00653349
0.00653391
0.00653429
0.0065346
0.00653485
0.00653502
0.00653513
0.00653517
0.00653519
0.00653519
0.00653517
0.00653512
0.00653503
0.00653488
0.00653469
0.00653446
0.00653421
0.00653394
0.00653366
0.00653338
0.00653311
0.00653284
0.00653256
0.00653228
0.006532
0.00653173
0.00653149
0.0065313
0.00653119
0.00653118
0.00653126
0.00653146
0.0065318
0.00653231
0.006533
0.00653391
0.00653505
0.00653647
0.00653817
0.00654017
0.00654249
0.00654514
0.00654812
0.00655144
0.00655509
0.006559
0.00656304
0.00656709
0.00657107
0.00657494
0.00657866
0.0065822
0.00658547
0.00658845
0.00659111
0.00659345
0.00659549
0.00659723
0.0065987
0.00659994
0.00660098
0.0066019
0.00660273
0.00660352
0.0066043
0.00660511
0.00660599
0.00660693
0.00660795
0.00660907
0.00661027
0.00661156
0.00661291
0.0066142
0.0066153
0.00661608
0.00661648
0.00661661
0.00661627
0.0121613
0.0121585
0.012158
0.0121572
0.0121562
0.0121551
0.012154
0.0121532
0.0121525
0.012152
0.0121516
0.0121512
0.0121509
0.0121505
0.0121502
0.0121499
0.0121497
0.0121494
0.0121492
0.012149
0.0121487
0.0121485
0.0121483
0.0121481
0.0121478
0.0121476
0.0121474
0.0121472
0.0121471
0.012147
0.0121469
0.0121468
0.0121468
0.0121468
0.0121468
0.0121468
0.0121468
0.0121468
0.0121468
0.0121469
0.0121469
0.012147
0.012147
0.0121471
0.0121471
0.0121472
0.0121473
0.0121474
0.0121475
0.0121476
0.0121477
0.0121478
0.0121478
0.0121477
0.0121475
0.0121472
0.0121468
0.0121462
0.0121454
0.0121445
0.0121435
0.0121425
0.0121415
0.0121406
0.01214
0.0121397
0.0121398
0.0121403
0.0121413
0.0121428
0.0121446
0.0121469
0.0121495
0.0121524
0.0121555
0.0121586
0.0121619
0.0121651
0.0121682
0.0121711
0.0121739
0.0121765
0.0121789
0.0121811
0.0121832
0.0121851
0.0121868
0.0121885
0.01219
0.0121914
0.0121926
0.0121937
0.0121947
0.0121955
0.0121961
0.0121965
0.0121968
0.0121969
0.0121971
0.0121992
0.0240805
0.0240876
0.0240876
0.0240875
0.0240875
0.0240873
0.0240872
0.0240871
0.024087
0.0240869
0.0240868
0.0240867
0.0240867
0.0240866
0.0240866
0.0240866
0.0240866
0.0240866
0.0240867
0.0240867
0.0240867
0.0240867
0.0240866
0.0240866
0.0240865
0.0240865
0.0240864
0.0240863
0.0240862
0.0240861
0.024086
0.024086
0.0240859
0.0240859
0.0240858
0.0240858
0.0240858
0.0240858
0.0240858
0.0240859
0.0240859
0.024086
0.024086
0.024086
0.0240861
0.0240861
0.0240862
0.0240862
0.0240862
0.0240863
0.0240863
0.0240863
0.0240864
0.0240863
0.0240863
0.0240861
0.0240858
0.0240853
0.0240847
0.0240839
0.0240829
0.0240817
0.0240803
0.0240788
0.0240772
0.0240755
0.0240739
0.0240724
0.024071
0.0240699
0.024069
0.0240684
0.0240682
0.0240682
0.0240686
0.0240691
0.0240699
0.0240708
0.0240719
0.024073
0.0240741
0.0240753
0.0240764
0.0240774
0.0240784
0.0240793
0.0240801
0.0240808
0.0240815
0.0240821
0.0240826
0.0240831
0.0240835
0.0240838
0.024084
0.0240842
0.0240844
0.0240846
0.0240846
0.0240623
0.0396279
0.0398055
0.0398059
0.0398059
0.0398059
0.0398059
0.0398058
0.0398057
0.0398055
0.0398053
0.0398049
0.0398045
0.039804
0.0398034
0.0398027
0.0398019
0.0398011
0.0398003
0.0397994
0.0397986
0.0397978
0.0397971
0.0397964
0.0397958
0.0397953
0.0397948
0.0397944
0.0397941
0.0397938
0.0397935
0.0397933
0.0397931
0.039793
0.0397929
0.0397928
0.0397927
0.0397927
0.0397927
0.0397927
0.0397927
0.0397927
0.0397927
0.0397927
0.0397927
0.0397928
0.0397928
0.0397928
0.0397928
0.0397928
0.0397929
0.0397929
0.0397929
0.039793
0.039793
0.039793
0.039793
0.039793
0.0397929
0.0397928
0.0397927
0.0397926
0.0397924
0.0397923
0.0397922
0.0397922
0.0397923
0.0397926
0.0397931
0.0397935
0.039794
0.0397946
0.0397952
0.039796
0.0397968
0.0397977
0.0397988
0.0397999
0.0398011
0.0398024
0.0398037
0.0398051
0.0398065
0.0398079
0.0398093
0.0398107
0.0398122
0.0398136
0.039815
0.0398164
0.0398178
0.0398192
0.0398206
0.039822
0.0398234
0.0398246
0.0398256
0.0398264
0.0398277
0.0398263
0.0395868
0.0536023
0.0537938
0.053794
0.0537939
0.0537938
0.0537937
0.0537934
0.0537931
0.0537926
0.0537918
0.0537909
0.0537896
0.0537882
0.0537865
0.0537847
0.0537828
0.0537809
0.0537789
0.0537771
0.0537753
0.0537738
0.0537724
0.0537712
0.0537701
0.0537692
0.0537684
0.0537678
0.0537672
0.0537668
0.0537664
0.0537661
0.0537659
0.0537657
0.0537655
0.0537653
0.0537652
0.053765
0.0537649
0.0537648
0.0537647
0.0537646
0.0537646
0.0537645
0.0537645
0.0537645
0.0537645
0.0537646
0.0537646
0.0537647
0.0537648
0.0537649
0.0537651
0.0537653
0.0537655
0.0537657
0.0537659
0.0537662
0.0537664
0.0537667
0.053767
0.0537674
0.0537677
0.0537681
0.0537686
0.053769
0.0537695
0.0537699
0.0537704
0.0537708
0.0537712
0.0537717
0.0537722
0.0537727
0.0537733
0.0537741
0.053775
0.0537761
0.0537773
0.0537789
0.0537806
0.0537825
0.0537845
0.0537867
0.0537889
0.0537912
0.0537934
0.0537955
0.0537974
0.0537991
0.0538005
0.0538017
0.0538025
0.0538032
0.0538036
0.0538039
0.0538041
0.0538042
0.0538044
0.0538043
0.0536093
0.068749
0.0692911
0.0692956
0.0692956
0.0692955
0.0692954
0.0692952
0.0692951
0.0692948
0.0692944
0.069294
0.0692934
0.0692928
0.0692922
0.0692916
0.0692909
0.0692903
0.0692897
0.0692891
0.0692885
0.0692879
0.0692873
0.0692868