/*--------------------------------*- C++ -*----------------------------------*\
| =========                 |                                                 |
| \\      /  F ield         | OpenFOAM: The Open Source CFD Toolbox           |
|  \\    /   O peration     | Version:  2406                                  |
|   \\  /    A nd           | Website:  www.openfoam.com                      |
|    \\/     M anipulation  |                                                 |
\*---------------------------------------------------------------------------*/
FoamFile
{
    version     2.0;
    format      ascii;
    arch        "LSB;label=32;scalar=64";
    class       volVectorField;
    location    "0.007";
    object      U;
}
// * * * * * * * * * * * * * * * * * * * * * * * * * * * * * * * * * * * * * //

dimensions      [0 1 -1 0 0 0 0];

internalField   nonuniform List<vector> 
81000
(
(-0.0445236 0.437097 0)
(-0.0445218 0.437012 0)
(-0.0445232 0.436866 0)
(-0.0445257 0.436654 0)
(-0.0445281 0.436409 0)
(-0.0445301 0.436167 0)
(-0.0445315 0.435956 0)
(-0.0445325 0.435794 0)
(-0.0445327 0.435684 0)
(-0.0445322 0.43562 0)
(-0.0445313 0.435589 0)
(-0.0445304 0.435578 0)
(-0.0445295 0.435576 0)
(-0.0445285 0.435579 0)
(-0.0445264 0.435591 0)
(-0.0445223 0.435621 0)
(-0.0445156 0.435673 0)
(-0.0445062 0.435748 0)
(-0.0444939 0.43584 0)
(-0.0444792 0.435944 0)
(-0.0444628 0.436049 0)
(-0.0444452 0.43615 0)
(-0.044427 0.436239 0)
(-0.0444085 0.436313 0)
(-0.0443898 0.436371 0)
(-0.0443704 0.436413 0)
(-0.0443498 0.43644 0)
(-0.0443268 0.436453 0)
(-0.0443027 0.436454 0)
(-0.0442785 0.436446 0)
(-0.0442546 0.436432 0)
(-0.0442305 0.436417 0)
(-0.0442058 0.436403 0)
(-0.0441803 0.436394 0)
(-0.0441542 0.43639 0)
(-0.0441278 0.436395 0)
(-0.0441017 0.436407 0)
(-0.0440758 0.436428 0)
(-0.0440501 0.436458 0)
(-0.0440243 0.436498 0)
(-0.0439986 0.436548 0)
(-0.0439725 0.436611 0)
(-0.0439457 0.436685 0)
(-0.0439177 0.436771 0)
(-0.043888 0.436868 0)
(-0.0438559 0.436975 0)
(-0.0438208 0.43709 0)
(-0.0437821 0.437212 0)
(-0.0437392 0.437339 0)
(-0.0436915 0.437469 0)
(-0.043638 0.437599 0)
(-0.0435778 0.437727 0)
(-0.0435095 0.43785 0)
(-0.0434317 0.437964 0)
(-0.0433433 0.438068 0)
(-0.0432436 0.438156 0)
(-0.0431324 0.438227 0)
(-0.0430102 0.438279 0)
(-0.0428783 0.438312 0)
(-0.0427381 0.438331 0)
(-0.0425907 0.438343 0)
(-0.042437 0.438355 0)
(-0.0422782 0.438371 0)
(-0.0421154 0.438389 0)
(-0.0419502 0.438407 0)
(-0.041784 0.43842 0)
(-0.0416187 0.438422 0)
(-0.0414559 0.438409 0)
(-0.0412969 0.438377 0)
(-0.0411433 0.438323 0)
(-0.0409967 0.438241 0)
(-0.0408596 0.438128 0)
(-0.0407352 0.437977 0)
(-0.0406269 0.437786 0)
(-0.0405366 0.437552 0)
(-0.0404654 0.437275 0)
(-0.0404121 0.436954 0)
(-0.0403743 0.436595 0)
(-0.0403488 0.436203 0)
(-0.0403329 0.435789 0)
(-0.0403243 0.435366 0)
(-0.0403208 0.434957 0)
(-0.0403201 0.434579 0)
(-0.0403203 0.43425 0)
(-0.0403204 0.433977 0)
(-0.0403197 0.433767 0)
(-0.0403185 0.433617 0)
(-0.040317 0.433523 0)
(-0.0403155 0.433473 0)
(-0.0403141 0.433454 0)
(-0.0403124 0.43345 0)
(-0.0403101 0.433463 0)
(-0.0403054 0.433523 0)
(-0.0402977 0.433662 0)
(-0.0402872 0.433886 0)
(-0.0402745 0.434163 0)
(-0.0402612 0.434435 0)
(-0.0402496 0.434647 0)
(-0.0402415 0.434769 0)
(-0.0402399 0.43483 0)
(-0.0585863 1.28199 0)
(-0.058579 1.28177 0)
(-0.0585737 1.28152 0)
(-0.0585649 1.28116 0)
(-0.0585531 1.28075 0)
(-0.0585389 1.28038 0)
(-0.0585233 1.28009 0)
(-0.0585081 1.2799 0)
(-0.0584955 1.2798 0)
(-0.0584866 1.27976 0)
(-0.0584814 1.27976 0)
(-0.058477 1.27976 0)
(-0.0584721 1.27977 0)
(-0.0584664 1.2798 0)
(-0.0584598 1.27985 0)
(-0.0584522 1.27993 0)
(-0.0584441 1.28004 0)
(-0.0584354 1.28016 0)
(-0.0584265 1.2803 0)
(-0.0584179 1.28044 0)
(-0.0584098 1.28057 0)
(-0.0584027 1.28069 0)
(-0.0583965 1.28078 0)
(-0.0583913 1.28085 0)
(-0.0583868 1.2809 0)
(-0.058383 1.28093 0)
(-0.0583795 1.28095 0)
(-0.0583762 1.28097 0)
(-0.0583728 1.28098 0)
(-0.0583689 1.28098 0)
(-0.058364 1.28098 0)
(-0.0583583 1.28098 0)
(-0.0583513 1.28098 0)
(-0.0583421 1.28097 0)
(-0.0583301 1.28097 0)
(-0.0583145 1.28097 0)
(-0.0582951 1.28097 0)
(-0.0582714 1.28096 0)
(-0.0582432 1.28096 0)
(-0.0582102 1.28096 0)
(-0.0581725 1.28096 0)
(-0.0581301 1.28097 0)
(-0.0580831 1.28097 0)
(-0.0580312 1.28098 0)
(-0.0579737 1.28099 0)
(-0.0579098 1.28099 0)
(-0.0578393 1.28098 0)
(-0.0577621 1.28096 0)
(-0.0576782 1.28093 0)
(-0.0575879 1.28088 0)
(-0.0574915 1.2808 0)
(-0.0573891 1.28071 0)
(-0.0572809 1.2806 0)
(-0.0571667 1.28047 0)
(-0.0570463 1.28032 0)
(-0.0569197 1.28015 0)
(-0.0567867 1.27997 0)
(-0.0566468 1.27977 0)
(-0.0564986 1.27957 0)
(-0.0563391 1.27938 0)
(-0.0561647 1.2792 0)
(-0.0559711 1.27904 0)
(-0.055756 1.27892 0)
(-0.0555202 1.27884 0)
(-0.0552669 1.2788 0)
(-0.0549996 1.2788 0)
(-0.0547211 1.27884 0)
(-0.0544336 1.27891 0)
(-0.0541398 1.279 0)
(-0.0538428 1.27912 0)
(-0.0535463 1.27926 0)
(-0.0532541 1.27941 0)
(-0.0529701 1.27958 0)
(-0.0526971 1.27975 0)
(-0.0524381 1.27991 0)
(-0.0521959 1.28005 0)
(-0.0519739 1.28017 0)
(-0.0517757 1.28025 0)
(-0.0516053 1.28029 0)
(-0.051465 1.28031 0)
(-0.0513522 1.28033 0)
(-0.0512628 1.28036 0)
(-0.0511966 1.28043 0)
(-0.0511502 1.28052 0)
(-0.0511154 1.28064 0)
(-0.0510873 1.28078 0)
(-0.0510641 1.28096 0)
(-0.0510438 1.28119 0)
(-0.0510259 1.28147 0)
(-0.0510108 1.28182 0)
(-0.0509989 1.28227 0)
(-0.0509906 1.28283 0)
(-0.0509858 1.28352 0)
(-0.0509837 1.28435 0)
(-0.0509829 1.28531 0)
(-0.0509819 1.28632 0)
(-0.0509801 1.28731 0)
(-0.0509779 1.28814 0)
(-0.050976 1.28871 0)
(-0.0509795 1.28907 0)
(0.370304 1.52942 0)
(0.370202 1.53415 0)
(0.370204 1.53416 0)
(0.370206 1.53413 0)
(0.37021 1.53408 0)
(0.370217 1.53399 0)
(0.370223 1.53393 0)
(0.370228 1.5339 0)
(0.370233 1.53391 0)
(0.370237 1.53393 0)
(0.370243 1.53399 0)
(0.370251 1.53409 0)
(0.370261 1.53425 0)
(0.370274 1.53445 0)
(0.370288 1.53471 0)
(0.370303 1.53501 0)
(0.37032 1.53537 0)
(0.370338 1.53578 0)
(0.370359 1.53623 0)
(0.370379 1.5367 0)
(0.370399 1.53718 0)
(0.370417 1.53764 0)
(0.370433 1.53807 0)
(0.370446 1.53845 0)
(0.370457 1.53878 0)
(0.370467 1.53904 0)
(0.370476 1.53926 0)
(0.370484 1.53942 0)
(0.370492 1.53954 0)
(0.370499 1.53961 0)
(0.370505 1.53966 0)
(0.37051 1.53968 0)
(0.370515 1.53968 0)
(0.37052 1.53968 0)
(0.370529 1.53965 0)
(0.370544 1.53959 0)
(0.370564 1.53949 0)
(0.370593 1.53936 0)
(0.370634 1.5392 0)
(0.3707 1.53903 0)
(0.370793 1.53884 0)
(0.370894 1.53862 0)
(0.370988 1.53835 0)
(0.37108 1.53802 0)
(0.371174 1.53762 0)
(0.37127 1.53712 0)
(0.37137 1.53653 0)
(0.371473 1.53583 0)
(0.37158 1.53503 0)
(0.371694 1.53412 0)
(0.371813 1.53314 0)
(0.371942 1.5321 0)
(0.372082 1.53102 0)
(0.372236 1.52995 0)
(0.372405 1.52892 0)
(0.372594 1.52796 0)
(0.372805 1.52712 0)
(0.373044 1.52642 0)
(0.373318 1.52588 0)
(0.37364 1.52551 0)
(0.374021 1.52532 0)
(0.374447 1.52532 0)
(0.374907 1.52545 0)
(0.375412 1.52569 0)
(0.375969 1.52602 0)
(0.376575 1.52645 0)
(0.377215 1.527 0)
(0.37786 1.5277 0)
(0.378485 1.52859 0)
(0.379079 1.52969 0)
(0.379644 1.531 0)
(0.380188 1.53253 0)
(0.380714 1.53426 0)
(0.381224 1.53616 0)
(0.381717 1.53819 0)
(0.382193 1.54029 0)
(0.382647 1.54244 0)
(0.383076 1.54457 0)
(0.383479 1.54667 0)
(0.383855 1.54871 0)
(0.384219 1.55071 0)
(0.384574 1.55267 0)
(0.38478 1.55464 0)
(0.38491 1.55664 0)
(0.384999 1.55867 0)
(0.385078 1.56075 0)
(0.385143 1.5629 0)
(0.385199 1.56512 0)
(0.385248 1.56739 0)
(0.385296 1.56971 0)
(0.385347 1.57206 0)
(0.385404 1.57445 0)
(0.385472 1.5769 0)
(0.385537 1.57943 0)
(0.385579 1.58204 0)
(0.385603 1.58466 0)
(0.385616 1.5871 0)
(0.385621 1.58911 0)
(0.385622 1.59042 0)
(0.385681 1.5912 0)
(1.28775 1.85295 0)
(1.28761 1.8526 0)
(1.28761 1.85234 0)
(1.2876 1.85206 0)
(1.28758 1.85185 0)
(1.2876 1.85168 0)
(1.28757 1.85156 0)
(1.28758 1.85143 0)
(1.28758 1.8513 0)
(1.28758 1.85116 0)
(1.28758 1.851 0)
(1.28758 1.85084 0)
(1.28758 1.85068 0)
(1.28758 1.85052 0)
(1.28759 1.85037 0)
(1.28759 1.85023 0)
(1.2876 1.8501 0)
(1.28761 1.84998 0)
(1.28761 1.84986 0)
(1.28763 1.84974 0)
(1.28765 1.84962 0)
(1.28766 1.8495 0)
(1.28767 1.84937 0)
(1.28768 1.84923 0)
(1.28769 1.84908 0)
(1.2877 1.84892 0)
(1.2877 1.84876 0)
(1.28771 1.8486 0)
(1.28771 1.84843 0)
(1.28772 1.84827 0)
(1.28772 1.84811 0)
(1.28773 1.84796 0)
(1.28773 1.84782 0)
(1.28774 1.84769 0)
(1.28774 1.84758 0)
(1.28775 1.84748 0)
(1.28777 1.84739 0)
(1.28779 1.84732 0)
(1.28781 1.84726 0)
(1.28785 1.84721 0)
(1.2879 1.84718 0)
(1.28797 1.84716 0)
(1.28804 1.84714 0)
(1.28812 1.84711 0)
(1.28821 1.84707 0)
(1.2883 1.84701 0)
(1.2884 1.84693 0)
(1.28852 1.84683 0)
(1.28864 1.84671 0)
(1.28879 1.84658 0)
(1.28897 1.84644 0)
(1.28919 1.84631 0)
(1.28944 1.84619 0)
(1.28974 1.84608 0)
(1.29008 1.84596 0)
(1.29046 1.84582 0)
(1.29088 1.84563 0)
(1.29134 1.84537 0)
(1.29183 1.84503 0)
(1.29236 1.84458 0)
(1.29293 1.84401 0)
(1.29353 1.84331 0)
(1.29416 1.84248 0)
(1.29483 1.84153 0)
(1.29553 1.84046 0)
(1.29625 1.83928 0)
(1.297 1.83803 0)
(1.29778 1.83672 0)
(1.29858 1.83539 0)
(1.2994 1.83406 0)
(1.30022 1.83276 0)
(1.30104 1.8315 0)
(1.30186 1.83032 0)
(1.30269 1.82924 0)
(1.3035 1.82828 0)
(1.3043 1.82745 0)
(1.30508 1.82676 0)
(1.30585 1.82621 0)
(1.30658 1.82579 0)
(1.30729 1.8255 0)
(1.30796 1.82532 0)
(1.30858 1.82526 0)
(1.30916 1.8253 0)
(1.30968 1.82543 0)
(1.31015 1.82564 0)
(1.31056 1.82591 0)
(1.31092 1.82625 0)
(1.31124 1.82664 0)
(1.31153 1.82706 0)
(1.3118 1.82752 0)
(1.31201 1.82801 0)
(1.31216 1.82853 0)
(1.31225 1.82903 0)
(1.31231 1.82948 0)
(1.31235 1.82984 0)
(1.31237 1.83009 0)
(1.31238 1.83023 0)
(1.31239 1.83029 0)
(1.31239 1.83031 0)
(1.31261 1.82927 0)
(3.32076 2.60122 0)
(3.31931 2.61912 0)
(3.3191 2.61918 0)
(3.3191 2.61922 0)
(3.3191 2.61923 0)
(3.31908 2.61924 0)
(3.31907 2.61923 0)
(3.31905 2.61922 0)
(3.31902 2.61923 0)
(3.31899 2.61927 0)
(3.31897 2.61935 0)
(3.31894 2.61948 0)
(3.31891 2.61965 0)
(3.31888 2.61985 0)
(3.31885 2.62006 0)
(3.31882 2.62029 0)
(3.3188 2.62053 0)
(3.31878 2.62078 0)
(3.31877 2.62104 0)
(3.31875 2.62131 0)
(3.31874 2.62157 0)
(3.31873 2.62184 0)
(3.31871 2.62209 0)
(3.3187 2.62232 0)
(3.31869 2.62252 0)
(3.31868 2.62269 0)
(3.31867 2.62281 0)
(3.31866 2.62291 0)
(3.31865 2.62296 0)
(3.31864 2.623 0)
(3.31864 2.62301 0)
(3.31864 2.62301 0)
(3.31863 2.62301 0)
(3.31863 2.623 0)
(3.31863 2.62298 0)
(3.31863 2.62295 0)
(3.31862 2.62292 0)
(3.31862 2.62288 0)
(3.31862 2.62283 0)
(3.31862 2.6228 0)
(3.31863 2.62277 0)
(3.31863 2.62275 0)
(3.31865 2.62273 0)
(3.31866 2.62273 0)
(3.31868 2.62274 0)
(3.31871 2.62277 0)
(3.31875 2.62281 0)
(3.3188 2.62289 0)
(3.31887 2.62301 0)
(3.31895 2.62318 0)
(3.31904 2.62343 0)
(3.31916 2.62376 0)
(3.3193 2.62421 0)
(3.31947 2.62479 0)
(3.31966 2.62551 0)
(3.31987 2.6264 0)
(3.32011 2.62747 0)
(3.32036 2.62871 0)
(3.32064 2.63014 0)
(3.32092 2.63174 0)
(3.32121 2.63349 0)
(3.32151 2.63539 0)
(3.32182 2.63738 0)
(3.32214 2.63945 0)
(3.32247 2.64156 0)
(3.32283 2.64365 0)
(3.32321 2.64571 0)
(3.32364 2.64768 0)
(3.32413 2.64955 0)
(3.3247 2.65129 0)
(3.32535 2.65287 0)
(3.32607 2.65429 0)
(3.32687 2.65553 0)
(3.32773 2.65659 0)
(3.32866 2.65747 0)
(3.32963 2.65816 0)
(3.33062 2.6587 0)
(3.33164 2.6591 0)
(3.33265 2.65939 0)
(3.33366 2.65956 0)
(3.33463 2.65964 0)
(3.33557 2.65965 0)
(3.33644 2.65962 0)
(3.33723 2.65956 0)
(3.33795 2.6595 0)
(3.33859 2.65944 0)
(3.33914 2.65941 0)
(3.33962 2.65941 0)
(3.34002 2.65943 0)
(3.34037 2.65949 0)
(3.34066 2.65959 0)
(3.3409 2.65976 0)
(3.34105 2.66005 0)
(3.34114 2.66045 0)
(3.34119 2.66094 0)
(3.34122 2.66149 0)
(3.34123 2.662 0)
(3.34124 2.66237 0)
(3.34125 2.66255 0)
(3.34164 2.66291 0)
(7.17509 4.17748 0)
(7.17746 4.17732 0)
(7.1775 4.17714 0)
(7.17755 4.17697 0)
(7.17761 4.1768 0)
(7.17765 4.17661 0)
(7.17769 4.17641 0)
(7.17772 4.17619 0)
(7.17775 4.17599 0)
(7.17777 4.17579 0)
(7.17779 4.17563 0)
(7.1778 4.1755 0)
(7.1778 4.17541 0)
(7.1778 4.17535 0)
(7.1778 4.17533 0)
(7.1778 4.17532 0)
(7.1778 4.17532 0)
(7.17779 4.17533 0)
(7.17778 4.17538 0)
(7.17775 4.17545 0)
(7.17772 4.17554 0)
(7.17768 4.17562 0)
(7.17765 4.17569 0)
(7.17761 4.17575 0)
(7.17756 4.17579 0)
(7.17752 4.17581 0)
(7.17748 4.17582 0)
(7.17744 4.17582 0)
(7.17741 4.17581 0)
(7.17737 4.17579 0)
(7.17735 4.17576 0)
(7.17732 4.17575 0)
(7.1773 4.17573 0)
(7.17728 4.17573 0)
(7.17727 4.17573 0)
(7.17725 4.17574 0)
(7.17724 4.17577 0)
(7.17723 4.1758 0)
(7.17722 4.17585 0)
(7.17722 4.1759 0)
(7.17721 4.17596 0)
(7.1772 4.17603 0)
(7.1772 4.17611 0)
(7.17719 4.17618 0)
(7.17719 4.17627 0)
(7.17719 4.17636 0)
(7.17719 4.17646 0)
(7.1772 4.17658 0)
(7.17721 4.17671 0)
(7.17722 4.17687 0)
(7.17723 4.17706 0)
(7.17724 4.17728 0)
(7.17726 4.17753 0)
(7.17727 4.17782 0)
(7.17729 4.17816 0)
(7.17732 4.17855 0)
(7.17735 4.17898 0)
(7.17739 4.17948 0)
(7.17744 4.18003 0)
(7.1775 4.18064 0)
(7.17758 4.18132 0)
(7.17768 4.18207 0)
(7.17781 4.18287 0)
(7.17797 4.18375 0)
(7.17817 4.18468 0)
(7.17842 4.18566 0)
(7.17874 4.18669 0)
(7.17911 4.18775 0)
(7.17956 4.18884 0)
(7.18008 4.18992 0)
(7.18068 4.191 0)
(7.18134 4.19206 0)
(7.18208 4.19309 0)
(7.18287 4.19407 0)
(7.1837 4.19499 0)
(7.18457 4.19586 0)
(7.18546 4.19666 0)
(7.18635 4.19738 0)
(7.18723 4.19804 0)
(7.18809 4.19862 0)
(7.18892 4.19913 0)
(7.18969 4.19957 0)
(7.19042 4.19996 0)
(7.19109 4.20029 0)
(7.19169 4.20059 0)
(7.19223 4.20087 0)
(7.19271 4.20112 0)
(7.19312 4.20135 0)
(7.19347 4.20157 0)
(7.19377 4.20177 0)
(7.19402 4.20194 0)
(7.19423 4.20207 0)
(7.19439 4.20217 0)
(7.19452 4.20224 0)
(7.19461 4.20228 0)
(7.19467 4.2023 0)
(7.1947 4.20231 0)
(7.19471 4.20231 0)
(7.19473 4.20228 0)
(7.18907 4.19963 0)
(12.6161 5.0628 0)
(12.6735 5.03916 0)
(12.6737 5.03903 0)
(12.6737 5.03902 0)
(12.6737 5.03902 0)
(12.6736 5.03901 0)
(12.6736 5.039 0)
(12.6735 5.03899 0)
(12.6735 5.03897 0)
(12.6734 5.03894 0)
(12.6732 5.0389 0)
(12.6731 5.03886 0)
(12.6728 5.03881 0)
(12.6726 5.03875 0)
(12.6723 5.03868 0)
(12.672 5.0386 0)
(12.6717 5.03852 0)
(12.6714 5.03843 0)
(12.6711 5.03833 0)
(12.6708 5.03823 0)
(12.6705 5.03812 0)
(12.6702 5.03802 0)
(12.6699 5.03791 0)
(12.6697 5.03781 0)
(12.6695 5.03772 0)
(12.6693 5.03763 0)
(12.6691 5.03755 0)
(12.669 5.03748 0)
(12.6689 5.03741 0)
(12.6688 5.03735 0)
(12.6687 5.0373 0)
(12.6687 5.03727 0)
(12.6686 5.03725 0)
(12.6686 5.03726 0)
(12.6686 5.03729 0)
(12.6685 5.03734 0)
(12.6685 5.0374 0)
(12.6685 5.03747 0)
(12.6685 5.03756 0)
(12.6685 5.03766 0)
(12.6685 5.03776 0)
(12.6684 5.03787 0)
(12.6684 5.03797 0)
(12.6684 5.03808 0)
(12.6684 5.0382 0)
(12.6684 5.03831 0)
(12.6683 5.03842 0)
(12.6683 5.03854 0)
(12.6683 5.03865 0)
(12.6682 5.03876 0)
(12.6682 5.03886 0)
(12.6682 5.03895 0)
(12.6681 5.039 0)
(12.6681 5.03901 0)
(12.668 5.03899 0)
(12.668 5.03892 0)
(12.6679 5.03879 0)
(12.6679 5.0386 0)
(12.6678 5.03833 0)
(12.6678 5.03798 0)
(12.6677 5.03757 0)
(12.6677 5.03709 0)
(12.6677 5.03656 0)
(12.6677 5.036 0)
(12.6678 5.03543 0)
(12.6679 5.03486 0)
(12.6681 5.03433 0)
(12.6684 5.03385 0)
(12.6688 5.03343 0)
(12.6692 5.03301 0)
(12.6697 5.03263 0)
(12.6702 5.03233 0)
(12.6708 5.03214 0)
(12.6715 5.03203 0)
(12.6722 5.03199 0)
(12.6729 5.03202 0)
(12.6736 5.0321 0)
(12.6744 5.03222 0)
(12.6751 5.03237 0)
(12.6759 5.03254 0)
(12.6766 5.03273 0)
(12.6774 5.03292 0)
(12.6781 5.0331 0)
(12.6788 5.03326 0)
(12.6795 5.03341 0)
(12.6802 5.03352 0)
(12.6809 5.03361 0)
(12.6815 5.03367 0)
(12.6821 5.0337 0)
(12.6827 5.03371 0)
(12.6833 5.03372 0)
(12.6839 5.03373 0)
(12.6845 5.03373 0)
(12.685 5.03367 0)
(12.6855 5.03352 0)
(12.686 5.03327 0)
(12.6864 5.03292 0)
(12.6869 5.03259 0)
(12.6866 5.03099 0)
(12.6124 5.03671 0)
(18.0213 0.0118308 0)
(18.0062 0.0115123 0)
(18.0057 0.0109358 0)
(18.0052 0.0103229 0)
(18.0048 0.00983343 0)
(18.0044 0.0095802 0)
(18.0041 0.00946681 0)
(18.0039 0.00951633 0)
(18.0036 0.00949492 0)
(18.0034 0.00949989 0)
(18.003 0.00954622 0)
(18.0027 0.00963174 0)
(18.0024 0.00974124 0)
(18.0021 0.0098097 0)
(18.0017 0.0097995 0)
(18.0014 0.00971531 0)
(18.0011 0.00959108 0)
(18.0009 0.00948791 0)
(18.0006 0.00939872 0)
(18.0004 0.00934547 0)
(18.0002 0.0092821 0)
(18 0.00922549 0)
(17.9998 0.00911885 0)
(17.9997 0.00901981 0)
(17.9995 0.008881 0)
(17.9994 0.00876777 0)
(17.9993 0.0086287 0)
(17.9991 0.00852069 0)
(17.999 0.00839829 0)
(17.9988 0.00831113 0)
(17.9987 0.00823039 0)
(17.9985 0.00819307 0)
(17.9984 0.00819446 0)
(17.9983 0.00823464 0)
(17.9981 0.00831857 0)
(17.998 0.00840253 0)
(17.9979 0.00850942 0)
(17.9978 0.00858919 0)
(17.9978 0.00867044 0)
(17.9977 0.00871997 0)
(17.9977 0.00876197 0)
(17.9977 0.00878392 0)
(17.9977 0.00880012 0)
(17.9977 0.00880818 0)
(17.9977 0.00881361 0)
(17.9977 0.00881649 0)
(17.9977 0.00881802 0)
(17.9977 0.00881793 0)
(17.9977 0.0088169 0)
(17.9977 0.00881256 0)
(17.9977 0.00880547 0)
(17.9977 0.00878651 0)
(17.9977 0.00876227 0)
(17.9978 0.00870843 0)
(17.9978 0.00865126 0)
(17.9979 0.0085451 0)
(17.998 0.00845073 0)
(17.9981 0.00830382 0)
(17.9982 0.00819336 0)
(17.9983 0.00804666 0)
(17.9984 0.00795 0)
(17.9986 0.00783228 0)
(17.9987 0.0077524 0)
(17.9989 0.00764331 0)
(17.999 0.0075558 0)
(17.9992 0.0074284 0)
(17.9993 0.00731744 0)
(17.9994 0.00716627 0)
(17.9995 0.00702993 0)
(17.9996 0.00685821 0)
(17.9997 0.00669206 0)
(17.9998 0.00650469 0)
(17.9999 0.00630853 0)
(18 0.00609706 0)
(18.0002 0.00589195 0)
(18.0003 0.00567057 0)
(18.0005 0.00545323 0)
(18.0006 0.00523597 0)
(18.0008 0.00501296 0)
(18.001 0.0047944 0)
(18.0012 0.00456238 0)
(18.0015 0.00434936 0)
(18.0018 0.00417712 0)
(18.0022 0.00407219 0)
(18.0026 0.00390575 0)
(18.0029 0.00367924 0)
(18.0033 0.00341393 0)
(18.0036 0.00319568 0)
(18.004 0.00305269 0)
(18.0043 0.00304106 0)
(18.0046 0.00316791 0)
(18.0048 0.00338098 0)
(18.0051 0.00365789 0)
(18.0054 0.00393068 0)
(18.0057 0.00412843 0)
(18.0061 0.00407188 0)
(18.0067 0.00365135 0)
(18.0072 0.00291045 0)
(18.0078 0.00208502 0)
(18.0239 0.00159614 0)
(19.8638 -10.5224 0)
(19.8197 -10.4994 0)
(19.8192 -10.4999 0)
(19.8185 -10.5006 0)
(19.8177 -10.5013 0)
(19.8169 -10.5018 0)
(19.8162 -10.5022 0)
(19.8156 -10.5023 0)
(19.815 -10.5022 0)
(19.8146 -10.5021 0)
(19.8143 -10.5019 0)
(19.8139 -10.5017 0)
(19.8137 -10.5016 0)
(19.8134 -10.5016 0)
(19.8132 -10.5016 0)
(19.813 -10.5016 0)
(19.8128 -10.5015 0)
(19.8127 -10.5015 0)
(19.8125 -10.5014 0)
(19.8124 -10.5014 0)
(19.8123 -10.5013 0)
(19.8123 -10.5012 0)
(19.8122 -10.5012 0)
(19.8121 -10.5011 0)
(19.8121 -10.5011 0)
(19.8121 -10.501 0)
(19.812 -10.501 0)
(19.812 -10.5009 0)
(19.812 -10.5009 0)
(19.812 -10.5009 0)
(19.812 -10.5008 0)
(19.812 -10.5008 0)
(19.812 -10.5008 0)
(19.812 -10.5008 0)
(19.8119 -10.5008 0)
(19.8119 -10.5009 0)
(19.8119 -10.5009 0)
(19.8119 -10.5009 0)
(19.8119 -10.5009 0)
(19.8119 -10.501 0)
(19.812 -10.501 0)
(19.812 -10.501 0)
(19.812 -10.5011 0)
(19.812 -10.5011 0)
(19.8121 -10.5012 0)
(19.8121 -10.5013 0)
(19.8122 -10.5013 0)
(19.8123 -10.5014 0)
(19.8123 -10.5015 0)
(19.8124 -10.5016 0)
(19.8126 -10.5017 0)
(19.8127 -10.5019 0)
(19.8128 -10.502 0)
(19.8129 -10.5021 0)
(19.8131 -10.5023 0)
(19.8132 -10.5024 0)
(19.8134 -10.5026 0)
(19.8135 -10.5028 0)
(19.8137 -10.5029 0)
(19.8138 -10.5031 0)
(19.814 -10.5033 0)
(19.8141 -10.5035 0)
(19.8143 -10.5037 0)
(19.8144 -10.5039 0)
(19.8145 -10.5041 0)
(19.8146 -10.5043 0)
(19.8146 -10.5046 0)
(19.8147 -10.5048 0)
(19.8147 -10.505 0)
(19.8148 -10.5052 0)
(19.8148 -10.5054 0)
(19.8148 -10.5056 0)
(19.8148 -10.5058 0)
(19.8147 -10.506 0)
(19.8147 -10.5062 0)
(19.8147 -10.5063 0)
(19.8147 -10.5065 0)
(19.8146 -10.5066 0)
(19.8146 -10.5068 0)
(19.8146 -10.5069 0)
(19.8146 -10.5069 0)
(19.8146 -10.507 0)
(19.8146 -10.5071 0)
(19.8146 -10.5071 0)
(19.8147 -10.5071 0)
(19.8147 -10.5071 0)
(19.8148 -10.5071 0)
(19.8149 -10.5071 0)
(19.815 -10.5072 0)
(19.8152 -10.5073 0)
(19.8154 -10.5074 0)
(19.8156 -10.5075 0)
(19.8159 -10.5075 0)
(19.8162 -10.5075 0)
(19.8165 -10.5074 0)
(19.8168 -10.5073 0)
(19.817 -10.5072 0)
(19.8172 -10.507 0)
(19.8177 -10.5072 0)
(19.869 -10.5194 0)
(17.4624 -4.96353 0)
(17.4371 -4.95654 0)
(17.4365 -4.95681 0)
(17.4356 -4.9572 0)
(17.4345 -4.95761 0)
(17.4334 -4.95796 0)
(17.4322 -4.95817 0)
(17.4311 -4.95823 0)
(17.4301 -4.95817 0)
(17.4293 -4.95806 0)
(17.4286 -4.95795 0)
(17.428 -4.95787 0)
(17.4276 -4.95783 0)
(17.4272 -4.95782 0)
(17.4269 -4.95782 0)
(17.4267 -4.95783 0)
(17.4266 -4.95783 0)
(17.4265 -4.95782 0)
(17.4264 -4.95779 0)
(17.4264 -4.95776 0)
(17.4263 -4.95772 0)
(17.4263 -4.95769 0)
(17.4263 -4.95765 0)
(17.4263 -4.95762 0)
(17.4263 -4.95759 0)
(17.4263 -4.95757 0)
(17.4263 -4.95754 0)
(17.4263 -4.95752 0)
(17.4264 -4.95751 0)
(17.4264 -4.9575 0)
(17.4264 -4.95749 0)
(17.4264 -4.95748 0)
(17.4264 -4.95748 0)
(17.4264 -4.95748 0)
(17.4264 -4.95748 0)
(17.4264 -4.95749 0)
(17.4265 -4.9575 0)
(17.4265 -4.95751 0)
(17.4265 -4.95752 0)
(17.4265 -4.95753 0)
(17.4265 -4.95754 0)
(17.4265 -4.95756 0)
(17.4265 -4.95757 0)
(17.4266 -4.95758 0)
(17.4266 -4.9576 0)
(17.4266 -4.95762 0)
(17.4267 -4.95764 0)
(17.4267 -4.95767 0)
(17.4268 -4.95769 0)
(17.4269 -4.95772 0)
(17.4269 -4.95775 0)
(17.427 -4.95779 0)
(17.4271 -4.95782 0)
(17.4272 -4.95785 0)
(17.4273 -4.95788 0)
(17.4273 -4.95791 0)
(17.4274 -4.95794 0)
(17.4275 -4.95797 0)
(17.4276 -4.958 0)
(17.4276 -4.95802 0)
(17.4277 -4.95804 0)
(17.4278 -4.95806 0)
(17.4278 -4.95807 0)
(17.4278 -4.95808 0)
(17.4278 -4.95808 0)
(17.4278 -4.95808 0)
(17.4278 -4.95807 0)
(17.4278 -4.95806 0)
(17.4278 -4.95806 0)
(17.4278 -4.95805 0)
(17.4278 -4.95803 0)
(17.4277 -4.95802 0)
(17.4277 -4.95801 0)
(17.4277 -4.95799 0)
(17.4276 -4.95798 0)
(17.4275 -4.95796 0)
(17.4275 -4.95795 0)
(17.4274 -4.95794 0)
(17.4273 -4.95792 0)
(17.4273 -4.95791 0)
(17.4272 -4.95789 0)
(17.4272 -4.95786 0)
(17.4272 -4.95782 0)
(17.4272 -4.95778 0)
(17.4272 -4.95774 0)
(17.4273 -4.95769 0)
(17.4274 -4.95766 0)
(17.4276 -4.95765 0)
(17.4279 -4.95768 0)
(17.4283 -4.95777 0)
(17.4288 -4.95788 0)
(17.4295 -4.95798 0)
(17.4303 -4.95798 0)
(17.4312 -4.95781 0)
(17.4322 -4.95742 0)
(17.4332 -4.95685 0)
(17.4342 -4.95619 0)
(17.4349 -4.95557 0)
(17.4355 -4.95514 0)
(17.4623 -4.96251 0)
(-0.0438104 0.43309 0)
(-0.0438121 0.433009 0)
(-0.0438267 0.432945 0)
(-0.043845 0.432815 0)
(-0.0438619 0.432627 0)
(-0.0438734 0.432408 0)
(-0.0438789 0.432197 0)
(-0.04388 0.43202 0)
(-0.0438781 0.431894 0)
(-0.0438747 0.431815 0)
(-0.043871 0.431775 0)
(-0.0438679 0.431759 0)
(-0.0438661 0.431756 0)
(-0.0438643 0.431757 0)
(-0.0438613 0.431764 0)
(-0.0438569 0.431785 0)
(-0.0438503 0.431825 0)
(-0.0438415 0.431885 0)
(-0.04383 0.431967 0)
(-0.0438163 0.432061 0)
(-0.0438004 0.432164 0)
(-0.0437833 0.432265 0)
(-0.0437652 0.432359 0)
(-0.0437468 0.43244 0)
(-0.0437279 0.432506 0)
(-0.0437085 0.432556 0)
(-0.043688 0.432591 0)
(-0.0436658 0.432612 0)
(-0.043642 0.432621 0)
(-0.043618 0.43262 0)
(-0.0435943 0.432613 0)
(-0.0435708 0.432604 0)
(-0.0435466 0.432596 0)
(-0.0435217 0.43259 0)
(-0.043496 0.43259 0)
(-0.0434699 0.432597 0)
(-0.0434439 0.432611 0)
(-0.0434181 0.432632 0)
(-0.0433927 0.432662 0)
(-0.0433675 0.432701 0)
(-0.0433422 0.43275 0)
(-0.0433164 0.432808 0)
(-0.0432898 0.432877 0)
(-0.0432618 0.432955 0)
(-0.0432319 0.433043 0)
(-0.0431995 0.43314 0)
(-0.0431642 0.433244 0)
(-0.0431253 0.433354 0)
(-0.0430824 0.433468 0)
(-0.0430348 0.433582 0)
(-0.0429815 0.433696 0)
(-0.0429215 0.433806 0)
(-0.0428532 0.43391 0)
(-0.0427751 0.434003 0)
(-0.042686 0.434084 0)
(-0.0425851 0.434149 0)
(-0.0424726 0.434196 0)
(-0.0423496 0.434226 0)
(-0.0422175 0.434239 0)
(-0.0420773 0.434242 0)
(-0.0419298 0.43424 0)
(-0.0417758 0.434239 0)
(-0.0416166 0.434242 0)
(-0.0414536 0.43425 0)
(-0.0412888 0.434262 0)
(-0.0411238 0.434275 0)
(-0.0409605 0.434287 0)
(-0.0408002 0.434293 0)
(-0.0406442 0.43429 0)
(-0.0404932 0.434274 0)
(-0.0403484 0.434239 0)
(-0.0402114 0.43418 0)
(-0.0400858 0.434091 0)
(-0.0399759 0.433966 0)
(-0.0398851 0.433804 0)
(-0.0398131 0.433604 0)
(-0.039758 0.433367 0)
(-0.0397164 0.433096 0)
(-0.0396857 0.432798 0)
(-0.039663 0.43248 0)
(-0.0396456 0.432154 0)
(-0.0396311 0.431828 0)
(-0.0396173 0.431514 0)
(-0.0396026 0.431223 0)
(-0.0395878 0.430971 0)
(-0.0395751 0.430767 0)
(-0.0395668 0.430619 0)
(-0.0395628 0.430525 0)
(-0.0395606 0.430477 0)
(-0.0395591 0.430462 0)
(-0.0395571 0.43046 0)
(-0.0395548 0.430477 0)
(-0.0395504 0.43054 0)
(-0.0395433 0.43067 0)
(-0.0395342 0.430854 0)
(-0.0395255 0.431046 0)
(-0.0395191 0.431198 0)
(-0.0395161 0.431281 0)
(-0.0395155 0.431306 0)
(-0.0394758 0.430995 0)
(-0.0582721 1.26956 0)
(-0.0582447 1.26922 0)
(-0.0582253 1.26912 0)
(-0.0582029 1.26894 0)
(-0.0581803 1.26867 0)
(-0.0581587 1.26837 0)
(-0.0581383 1.2681 0)
(-0.0581195 1.2679 0)
(-0.0581041 1.26779 0)
(-0.0580933 1.26774 0)
(-0.0580873 1.26773 0)
(-0.0580816 1.26773 0)
(-0.0580749 1.26775 0)
(-0.058066 1.26779 0)
(-0.0580548 1.26786 0)
(-0.0580422 1.26796 0)
(-0.0580285 1.26808 0)
(-0.0580145 1.26822 0)
(-0.0580004 1.26836 0)
(-0.0579867 1.2685 0)
(-0.0579736 1.26863 0)
(-0.0579614 1.26875 0)
(-0.0579503 1.26884 0)
(-0.0579406 1.26891 0)
(-0.0579322 1.26897 0)
(-0.0579253 1.26901 0)
(-0.0579193 1.26903 0)
(-0.0579139 1.26905 0)
(-0.0579086 1.26906 0)
(-0.0579026 1.26907 0)
(-0.0578958 1.26907 0)
(-0.0578884 1.26907 0)
(-0.0578797 1.26906 0)
(-0.0578689 1.26906 0)
(-0.0578551 1.26905 0)
(-0.0578378 1.26905 0)
(-0.0578168 1.26905 0)
(-0.0577921 1.26905 0)
(-0.0577633 1.26906 0)
(-0.0577301 1.26907 0)
(-0.0576922 1.26909 0)
(-0.0576497 1.2691 0)
(-0.0576028 1.26913 0)
(-0.0575515 1.26915 0)
(-0.0574953 1.26918 0)
(-0.0574337 1.2692 0)
(-0.057366 1.26922 0)
(-0.0572919 1.26924 0)
(-0.057211 1.26925 0)
(-0.0571238 1.26924 0)
(-0.0570304 1.26922 0)
(-0.0569311 1.26918 0)
(-0.0568262 1.26913 0)
(-0.0567156 1.26905 0)
(-0.0565989 1.26896 0)
(-0.0564756 1.26886 0)
(-0.0563455 1.26873 0)
(-0.0562078 1.26859 0)
(-0.0560612 1.26844 0)
(-0.0559032 1.26828 0)
(-0.0557307 1.26812 0)
(-0.0555402 1.26797 0)
(-0.055329 1.26784 0)
(-0.0550968 1.26773 0)
(-0.0548454 1.26764 0)
(-0.054578 1.26758 0)
(-0.054298 1.26754 0)
(-0.0540089 1.26751 0)
(-0.0537136 1.2675 0)
(-0.053415 1.26747 0)
(-0.0531158 1.26745 0)
(-0.0528185 1.2674 0)
(-0.052525 1.26735 0)
(-0.0522377 1.26727 0)
(-0.0519596 1.26716 0)
(-0.0516953 1.26703 0)
(-0.0514518 1.26686 0)
(-0.0512375 1.26667 0)
(-0.0510565 1.26645 0)
(-0.0509072 1.26624 0)
(-0.0507858 1.26605 0)
(-0.0506884 1.26589 0)
(-0.0506116 1.26578 0)
(-0.0505514 1.26572 0)
(-0.0505016 1.2657 0)
(-0.0504573 1.26572 0)
(-0.0504214 1.26577 0)
(-0.0503881 1.26587 0)
(-0.0503555 1.26603 0)
(-0.050325 1.26628 0)
(-0.0502994 1.26663 0)
(-0.0502808 1.26711 0)
(-0.0502697 1.26774 0)
(-0.0502633 1.2685 0)
(-0.050257 1.26937 0)
(-0.0502474 1.27026 0)
(-0.0502353 1.27109 0)
(-0.0502241 1.27173 0)
(-0.0502171 1.27213 0)
(-0.0502278 1.2726 0)
(0.370547 1.50491 0)
(0.370365 1.50861 0)
(0.370367 1.50858 0)
(0.370373 1.50848 0)
(0.370381 1.5083 0)
(0.370389 1.50809 0)
(0.370398 1.50787 0)
(0.370406 1.5077 0)
(0.370414 1.50758 0)
(0.37042 1.50752 0)
(0.370424 1.5075 0)
(0.370427 1.50749 0)
(0.370429 1.50751 0)
(0.370434 1.50755 0)
(0.370442 1.50763 0)
(0.370453 1.50778 0)
(0.370467 1.50798 0)
(0.370484 1.50824 0)
(0.370502 1.50851 0)
(0.37052 1.50881 0)
(0.370537 1.5091 0)
(0.370554 1.50938 0)
(0.370567 1.50963 0)
(0.370578 1.50985 0)
(0.370587 1.51002 0)
(0.370595 1.51015 0)
(0.370602 1.51023 0)
(0.370607 1.51028 0)
(0.370611 1.51029 0)
(0.370613 1.5103 0)
(0.370616 1.51029 0)
(0.37062 1.51028 0)
(0.370626 1.51025 0)
(0.370635 1.5102 0)
(0.370646 1.51013 0)
(0.37066 1.51004 0)
(0.370681 1.50994 0)
(0.37071 1.50982 0)
(0.370756 1.50969 0)
(0.370821 1.50955 0)
(0.37091 1.50941 0)
(0.371006 1.50925 0)
(0.371102 1.50905 0)
(0.371197 1.50882 0)
(0.371294 1.50854 0)
(0.371393 1.50823 0)
(0.371494 1.50786 0)
(0.371599 1.50744 0)
(0.371708 1.50697 0)
(0.371822 1.50647 0)
(0.371944 1.50593 0)
(0.372074 1.50539 0)
(0.372216 1.50484 0)
(0.37237 1.50432 0)
(0.372542 1.50383 0)
(0.372734 1.5034 0)
(0.372953 1.50303 0)
(0.373208 1.50275 0)
(0.373508 1.50257 0)
(0.373852 1.5025 0)
(0.374236 1.50254 0)
(0.374655 1.50265 0)
(0.375115 1.50284 0)
(0.375618 1.50309 0)
(0.376165 1.50338 0)
(0.376749 1.50372 0)
(0.377359 1.50412 0)
(0.377976 1.50457 0)
(0.378585 1.5051 0)
(0.379175 1.50568 0)
(0.379743 1.50633 0)
(0.380287 1.507 0)
(0.380809 1.5077 0)
(0.38131 1.5084 0)
(0.38179 1.50906 0)
(0.38225 1.50967 0)
(0.38269 1.51023 0)
(0.383109 1.51072 0)
(0.38351 1.51116 0)
(0.383891 1.51157 0)
(0.384252 1.51197 0)
(0.384543 1.51243 0)
(0.384698 1.51302 0)
(0.384802 1.51372 0)
(0.384883 1.51456 0)
(0.384952 1.51555 0)
(0.385011 1.51669 0)
(0.385066 1.51798 0)
(0.385117 1.51944 0)
(0.385168 1.52105 0)
(0.385225 1.52283 0)
(0.385294 1.52477 0)
(0.385374 1.52685 0)
(0.385444 1.52899 0)
(0.38549 1.5311 0)
(0.385522 1.53298 0)
(0.385542 1.53448 0)
(0.385551 1.53545 0)
(0.385553 1.53591 0)
(0.385702 1.53663 0)
(1.2878 1.84075 0)
(1.28738 1.84131 0)
(1.28738 1.8413 0)
(1.28738 1.84127 0)
(1.28737 1.84121 0)
(1.28737 1.84115 0)
(1.28736 1.84107 0)
(1.28736 1.84098 0)
(1.28736 1.84088 0)
(1.28736 1.84078 0)
(1.28736 1.84067 0)
(1.28736 1.84056 0)
(1.28736 1.84045 0)
(1.28736 1.84035 0)
(1.28736 1.84025 0)
(1.28737 1.84017 0)
(1.28737 1.8401 0)
(1.28738 1.84004 0)
(1.28738 1.83999 0)
(1.28739 1.83995 0)
(1.28742 1.83992 0)
(1.28742 1.83988 0)
(1.28743 1.83983 0)
(1.28744 1.83977 0)
(1.28745 1.8397 0)
(1.28745 1.83962 0)
(1.28746 1.83953 0)
(1.28746 1.83943 0)
(1.28747 1.83932 0)
(1.28747 1.83921 0)
(1.28747 1.8391 0)
(1.28748 1.83899 0)
(1.28748 1.83888 0)
(1.28749 1.83877 0)
(1.28749 1.83867 0)
(1.2875 1.83857 0)
(1.28752 1.83847 0)
(1.28754 1.83838 0)
(1.28757 1.83829 0)
(1.2876 1.8382 0)
(1.28765 1.83812 0)
(1.28772 1.83803 0)
(1.28779 1.83795 0)
(1.28787 1.83786 0)
(1.28796 1.83777 0)
(1.28806 1.83766 0)
(1.28816 1.83754 0)
(1.28827 1.8374 0)
(1.2884 1.83727 0)
(1.28855 1.83713 0)
(1.28874 1.837 0)
(1.28895 1.83687 0)
(1.28921 1.83676 0)
(1.28951 1.83667 0)
(1.28984 1.8366 0)
(1.29022 1.83653 0)
(1.29064 1.83647 0)
(1.2911 1.8364 0)
(1.2916 1.83631 0)
(1.29214 1.83619 0)
(1.29271 1.83604 0)
(1.29333 1.83584 0)
(1.29397 1.8356 0)
(1.29465 1.8353 0)
(1.29537 1.83495 0)