/*--------------------------------*- C++ -*----------------------------------*\
| =========                 |                                                 |
| \\      /  F ield         | OpenFOAM: The Open Source CFD Toolbox           |
|  \\    /   O peration     | Version:  2406                                  |
|   \\  /    A nd           | Website:  www.openfoam.com                      |
|    \\/     M anipulation  |                                                 |
\*---------------------------------------------------------------------------*/
FoamFile
{
    version     2.0;
    format      ascii;
    arch        "LSB;label=32;scalar=64";
    class       volScalarField;
    location    "0.045";
    object      Ma;
}
// * * * * * * * * * * * * * * * * * * * * * * * * * * * * * * * * * * * * * //

dimensions      [0 0 0 0 0 0 0];

internalField   nonuniform List<scalar> 
13818
(
5.25258e-14
5.36823e-14
6.24925e-14
7.9552e-14
8.63319e-14
8.1681e-14
7.58687e-14
7.5342e-14
8.53062e-14
8.67435e-14
7.81331e-14
7.02473e-14
6.2733e-14
5.54012e-14
5.20828e-14
4.75388e-14
4.04766e-14
4.26484e-14
4.03791e-14
3.30656e-14
3.11125e-14
3.38719e-14
2.82295e-14
2.76108e-14
3.07178e-14
3.21757e-14
3.38657e-14
3.87215e-14
5.69049e-14
7.2548e-14
7.4816e-14
7.60248e-14
6.33068e-14
5.08638e-14
2.79094e-14
2.0964e-14
3.64938e-14
3.64781e-14
2.9201e-14
3.74242e-14
3.01234e-14
4.24545e-14
5.54903e-14
3.29891e-14
3.02884e-14
4.81981e-14
4.85122e-14
4.93591e-14
5.63849e-14
4.18458e-14
2.07056e-14
1.58014e-14
2.84897e-14
2.91576e-14
2.27489e-14
1.76326e-14
1.96418e-14
2.20804e-14
2.66787e-14
2.03161e-14
1.69756e-14
1.53554e-14
2.92155e-14
4.93815e-14
6.69451e-14
5.84452e-14
5.41937e-14
5.53312e-14
5.5398e-14
4.60811e-14
2.11602e-14
2.38059e-14
1.82649e-14
2.12247e-14
1.63217e-14
1.86077e-14
2.74234e-14
4.88639e-14
4.08359e-14
3.94428e-14
3.87803e-14
3.02412e-14
2.71002e-14
2.53045e-14
2.18555e-14
1.79858e-14
1.84681e-14
2.55136e-14
3.42383e-14
4.43981e-14
3.16885e-14
3.84601e-14
3.93387e-14
4.38113e-14
4.50704e-14
4.20752e-14
3.29343e-14
3.07394e-14
3.71604e-14
3.76982e-14
3.19547e-14
1.53008e-14
3.35266e-15
3.76115e-15
1.42277e-14
1.7605e-14
3.98655e-14
5.36595e-14
6.8359e-14
7.69406e-14
8.17494e-14
8.57877e-14
8.25002e-14
7.64147e-14
7.76073e-14
8.06061e-14
8.17628e-14
7.08853e-14
5.9971e-14
5.87819e-14
5.37113e-14
4.75907e-14
3.9616e-14
4.5621e-14
4.53206e-14
3.34805e-14
2.92533e-14
2.95142e-14
2.51825e-14
2.39404e-14
2.87462e-14
3.04192e-14
3.30762e-14
3.15266e-14
5.18407e-14
7.28149e-14
7.96936e-14
8.06583e-14
6.68034e-14
4.67813e-14
2.71938e-14
1.5671e-14
3.0922e-14
2.75029e-14
2.62558e-14
2.78597e-14
3.43312e-14
6.06173e-14
6.32865e-14
5.38076e-14
1.77175e-14
3.52667e-14
5.07356e-14
4.77284e-14
4.97168e-14
3.01745e-14
1.56466e-14
1.76574e-14
2.53913e-14
2.21826e-14
1.71731e-14
2.22572e-14
2.30984e-14
2.0448e-14
2.41211e-14
2.11743e-14
1.85826e-14
7.93816e-15
2.31698e-14
4.64825e-14
5.8274e-14
5.44832e-14
5.58734e-14
5.96239e-14
6.15059e-14
4.53859e-14
1.88157e-14
1.72416e-14
2.35757e-14
2.20955e-14
2.5058e-14
2.67398e-14
1.2391e-14
3.39451e-14
3.88537e-14
3.57729e-14
3.22828e-14
2.78766e-14
2.56097e-14
2.63091e-14
2.65089e-14
1.92083e-14
1.74497e-14
2.08029e-14
3.16326e-14
3.84645e-14
3.69424e-14
4.18443e-14
4.82679e-14
5.16459e-14
5.13034e-14
4.74341e-14
3.72905e-14
4.01189e-14
4.14076e-14
3.98674e-14
3.35517e-14
2.19785e-14
5.24843e-15
6.19459e-15
8.27483e-15
1.00605e-14
3.88134e-14
4.82618e-14
6.89534e-14
8.0021e-14
8.55268e-14
8.56048e-14
8.55444e-14
7.76199e-14
7.56048e-14
7.94386e-14
8.22295e-14
7.01605e-14
5.88686e-14
6.25969e-14
5.84e-14
4.42857e-14
3.82288e-14
4.45028e-14
4.45476e-14
3.3688e-14
2.88799e-14
2.86381e-14
2.30042e-14
1.9136e-14
2.43653e-14
2.84584e-14
3.05306e-14
3.29223e-14
4.90507e-14
6.57632e-14
6.72474e-14
7.13224e-14
5.70331e-14
3.9436e-14
3.4333e-14
1.29373e-14
3.39678e-14
2.11638e-14
1.6609e-14
2.15004e-14
4.31095e-14
6.57483e-14
6.58891e-14
5.79478e-14
1.4633e-14
2.56677e-14
4.00703e-14
4.05922e-14
4.28647e-14
3.17017e-14
1.79015e-14
1.27538e-14
1.69576e-14
1.49799e-14
1.29627e-14
1.67892e-14
1.75893e-14
1.69422e-14
2.0955e-14
2.33339e-14
2.38341e-14
7.20255e-15
2.21302e-14
4.4421e-14
5.17097e-14
5.33763e-14
5.41005e-14
5.51569e-14
5.6289e-14
3.74505e-14
1.36531e-14
9.43538e-15
2.30999e-14
3.25171e-14
3.55067e-14
3.10075e-14
9.67035e-15
2.81553e-14
3.49888e-14
3.54699e-14
3.07423e-14
2.41878e-14
2.00202e-14
2.42326e-14
2.19023e-14
1.74222e-14
1.63815e-14
2.03237e-14
2.96363e-14
3.96269e-14
4.08975e-14
4.65252e-14
5.10079e-14
5.7683e-14
5.55469e-14
5.53667e-14
4.56663e-14
4.33434e-14
4.31847e-14
3.81222e-14
3.47947e-14
2.41335e-14
1.08277e-14
8.51257e-15
8.33852e-15
9.97111e-15
4.26954e-14
4.70665e-14
6.75697e-14
7.98403e-14
8.98255e-14
8.82204e-14
8.8666e-14
7.85327e-14
7.28134e-14
7.71129e-14
7.75935e-14
6.90847e-14
6.03789e-14
6.29487e-14
5.70027e-14
4.73924e-14
4.74241e-14
3.96202e-14
3.54284e-14
2.91813e-14
2.85249e-14
3.05616e-14
2.27689e-14
1.53242e-14
2.25316e-14
3.09738e-14
3.62489e-14
3.50925e-14
4.27897e-14
5.00461e-14
4.9487e-14
5.27456e-14
5.0381e-14
3.63755e-14
2.88858e-14
1.32217e-14
2.18038e-14
1.65626e-14
1.13538e-14
1.61696e-14
3.60956e-14
5.97983e-14
6.61423e-14
4.78898e-14
1.56289e-14
1.87026e-14
3.01775e-14
3.44794e-14
4.01281e-14
3.35888e-14
1.53335e-14
1.02568e-14
1.39183e-14
1.82556e-14
1.74169e-14
1.35735e-14
1.59843e-14
1.88516e-14
2.38792e-14
2.31965e-14
2.36531e-14
1.19541e-14
2.33703e-14
4.69753e-14
5.08632e-14
5.44527e-14
5.00854e-14
4.91213e-14
4.87386e-14
3.44814e-14
1.40094e-14
1.43915e-14
3.10337e-14
4.00632e-14
4.22315e-14
3.31704e-14
7.76902e-15
2.21713e-14
3.04279e-14
3.34592e-14
2.82073e-14
1.99784e-14
1.23872e-14
1.74928e-14
1.53849e-14
1.45919e-14
1.6289e-14
2.24887e-14
3.34971e-14
4.13007e-14
4.28144e-14
4.84845e-14
4.94166e-14
5.42199e-14
5.16435e-14
5.10625e-14
4.46922e-14
4.8074e-14
4.2875e-14
3.29455e-14
3.25533e-14
2.40319e-14
1.16764e-14
2.74431e-15
3.56858e-15
3.78303e-14
4.44071e-14
6.24233e-14
7.80336e-14
8.4802e-14
8.41801e-14
8.88615e-14
8.22377e-14
7.78419e-14
7.82311e-14
7.34682e-14
6.58504e-14
6.04381e-14
6.40452e-14
5.99351e-14
4.88681e-14
4.58286e-14
3.85373e-14
3.54431e-14
2.55036e-14
2.00031e-14
2.30185e-14
2.33463e-14
1.94477e-14
2.23403e-14
2.76682e-14
3.26511e-14
3.07635e-14
3.17689e-14
3.79317e-14
3.67754e-14
3.70771e-14
3.60817e-14
2.93687e-14
2.36756e-14
1.45897e-14
1.70738e-14
1.99007e-14
1.61146e-14
8.71794e-15
2.96743e-14
5.03852e-14
5.65024e-14
4.18707e-14
2.44579e-14
1.8707e-14
8.13827e-15
1.88511e-14
2.60848e-14
2.27858e-14
9.88211e-15
7.21956e-15
1.37666e-14
1.931e-14
2.05231e-14
1.35967e-14
1.53431e-14
1.97866e-14
2.26492e-14
1.99957e-14
1.73627e-14
1.03746e-14
2.07933e-14
3.69553e-14
4.00017e-14
3.99946e-14
3.57983e-14
3.3546e-14
2.94934e-14
2.64291e-14
1.06402e-14
1.78636e-14
4.09195e-14
3.82271e-14
3.76737e-14
2.4663e-14
7.66476e-15
2.26716e-14
3.19428e-14
3.67599e-14
3.08354e-14
1.3627e-14
6.30013e-15
1.20155e-14
9.08255e-15
6.6515e-15
8.92432e-15
1.28222e-14
2.74432e-14
3.40167e-14
3.77722e-14
3.97115e-14
3.96947e-14
3.60253e-14
3.8967e-14
4.21718e-14
4.03445e-14
4.39946e-14
4.03432e-14
2.97233e-14
2.66963e-14
2.32393e-14
1.41355e-14
3.9226e-15
4.59089e-15
4.25845e-14
4.3857e-14
5.47376e-14
7.41769e-14
8.13176e-14
8.64958e-14
9.03071e-14
8.41764e-14
7.87848e-14
7.79514e-14
7.40353e-14
6.64236e-14
5.97373e-14
5.93581e-14
5.57104e-14
5.11242e-14
4.70906e-14
4.18703e-14
4.15553e-14
3.23434e-14
2.4647e-14
2.65893e-14
3.21848e-14
3.00314e-14
2.96944e-14
2.88189e-14
2.88789e-14
2.92504e-14
2.96681e-14
3.3781e-14
3.34175e-14
3.22359e-14
2.7492e-14
2.44799e-14
2.07697e-14
1.80607e-14
2.66528e-14
2.8579e-14
2.26371e-14
1.84974e-14
2.28566e-14
4.58933e-14
5.142e-14
4.44006e-14
3.72648e-14
3.34742e-14
2.37886e-14
1.16607e-14
1.63688e-14
1.9093e-14
1.28117e-14
1.1702e-14
1.35417e-14
2.10795e-14
2.21665e-14
1.68361e-14
1.36861e-14
2.16294e-14
2.23954e-14
1.91256e-14
1.35473e-14
1.42734e-14
2.20529e-14
3.16725e-14
3.49096e-14
3.50762e-14
3.21658e-14
2.93691e-14
2.64417e-14
2.52336e-14
1.42462e-14
2.7857e-14
4.21441e-14
3.92971e-14
3.52519e-14
2.63223e-14
1.30761e-14
1.6252e-14
2.57603e-14
2.99695e-14
2.43924e-14
1.24082e-14
1.85659e-14
2.84429e-14
2.45026e-14
2.11956e-14
2.39105e-14
1.67512e-14
2.28478e-14
3.43081e-14
3.5662e-14
3.70193e-14
3.04422e-14
2.43692e-14
3.14666e-14
4.17596e-14
4.36587e-14
4.20596e-14
4.15348e-14
2.87122e-14
1.81723e-14
1.87394e-14
1.20781e-14
2.2678e-15
5.68289e-15
3.94372e-14
4.67896e-14
5.02769e-14
6.60138e-14
7.70188e-14
8.42342e-14
8.23597e-14
7.76213e-14
8.04965e-14
8.54916e-14
7.47055e-14
6.1578e-14
6.24614e-14
6.04079e-14
4.60325e-14
3.95286e-14
4.07561e-14
3.47703e-14
3.2261e-14
2.79455e-14
2.4458e-14
3.06165e-14
2.39198e-14
2.69579e-14
2.701e-14
2.80309e-14
2.5002e-14
2.41005e-14
2.89204e-14
2.96535e-14
2.74636e-14
3.37328e-14
2.82815e-14
2.32136e-14
2.20855e-14
2.07555e-14
2.33528e-14
2.82635e-14
3.14078e-14
2.72575e-14
3.22716e-14
4.35833e-14
5.37595e-14
5.04518e-14
4.46239e-14
4.42283e-14
2.59225e-14
1.69806e-14
1.69249e-14
1.71846e-14
1.04493e-14
1.93425e-14
1.35473e-14
1.98377e-14
1.83112e-14
1.46175e-14
1.46368e-14
1.8701e-14
1.26072e-14
8.072e-15
7.63262e-15
1.05711e-14
1.56071e-14
1.74293e-14
1.49373e-14
1.77079e-14
2.01177e-14
2.02653e-14
1.85352e-14
2.48535e-14
1.28476e-14
3.89708e-14
3.14622e-14
3.19714e-14
2.55532e-14
1.76407e-14
1.88108e-14
1.24938e-14
1.3028e-14
1.29108e-14
6.5249e-15
1.11555e-14
2.76788e-14
4.65868e-14
3.53988e-14
3.0749e-14
3.49621e-14
1.91856e-14
1.91637e-14
3.02546e-14
3.60885e-14
2.91e-14
2.89711e-14
2.70919e-14
3.02781e-14
3.74175e-14
4.57158e-14
4.16647e-14
3.99877e-14
2.41341e-14
1.96067e-14
2.00838e-14
9.72335e-15
6.58155e-15
8.23282e-15
3.63834e-14
5.0066e-14
5.79355e-14
7.04969e-14
8.00385e-14
8.04365e-14
8.08476e-14
8.4134e-14
8.19318e-14
8.09589e-14
7.36432e-14
6.86548e-14
6.47136e-14
5.96973e-14
5.18025e-14
5.15549e-14
5.08203e-14
4.14916e-14
3.52405e-14
3.15013e-14
1.89376e-14
1.90978e-14
1.86976e-14
2.87911e-14
3.01635e-14
2.82577e-14
2.66609e-14
3.04629e-14
3.32501e-14
3.20887e-14
3.57187e-14
3.06447e-14
2.50352e-14
2.06306e-14
1.84051e-14
1.613e-14
1.70603e-14
1.70499e-14
1.55591e-14
1.34463e-14
1.99316e-14
3.54633e-14
4.61473e-14
4.61658e-14
4.23818e-14
3.70131e-14
2.39027e-14
4.78905e-15
1.3364e-14
1.19338e-14
1.10312e-14
1.15519e-14
1.20487e-14
2.09263e-14
2.31507e-14
1.88921e-14
1.54444e-14
2.20973e-14
2.57859e-14
2.56127e-14
2.79032e-14
2.63366e-14
2.9114e-14
3.05164e-14
2.85897e-14
2.4233e-14
2.11276e-14
1.60444e-14
1.08938e-14
7.95304e-15
1.57532e-14
3.34785e-14
3.35746e-14
2.99106e-14
2.19306e-14
2.23825e-14
1.52853e-14
1.46163e-14
2.90577e-14
3.09777e-14
2.35875e-14
3.24505e-14
3.53345e-14
3.99566e-14
3.24189e-14
2.88144e-14
2.84316e-14
1.42322e-14
1.18725e-14
1.86432e-14
2.63665e-14
2.91734e-14
2.50983e-14
2.47753e-14
2.70312e-14
3.25428e-14
3.74591e-14
3.81166e-14
3.48607e-14
2.89438e-14
2.47828e-14
2.70603e-14
2.277e-14
2.56869e-14
2.63391e-14
5.37741e-14
5.6969e-14
7.17216e-14
8.2947e-14
8.11147e-14
8.36337e-14
9.32074e-14
9.05687e-14
9.06661e-14
8.58792e-14
7.38867e-14
7.23224e-14
7.58887e-14
6.76349e-14
5.78888e-14
5.80642e-14
5.07451e-14
4.24063e-14
4.54733e-14
3.58018e-14
2.69388e-14
3.06317e-14
3.90488e-14
4.52727e-14
4.29251e-14
3.9377e-14
3.6344e-14
3.80549e-14
3.73358e-14
4.15855e-14
4.27328e-14
3.90231e-14
3.40086e-14
3.33197e-14
2.98178e-14
2.79699e-14
2.74131e-14
2.6478e-14
1.80818e-14
1.2499e-14
2.67249e-14
3.61064e-14
4.08747e-14
4.6514e-14
4.52608e-14
3.88025e-14
3.25924e-14
2.51259e-14
3.04635e-14
2.69421e-14
2.09491e-14
2.19482e-14
1.99374e-14
2.64551e-14
3.22592e-14
3.30884e-14
2.79594e-14
2.87288e-14
2.89488e-14
2.97859e-14
3.03966e-14
3.4394e-14
3.59212e-14
3.69915e-14
3.83729e-14
4.02985e-14
2.97521e-14
2.40654e-14
2.40332e-14
2.21627e-14
2.47163e-14
2.69724e-14
2.89285e-14
3.38485e-14
3.25517e-14
3.43153e-14
3.29941e-14
3.64029e-14
3.80042e-14
3.90488e-14
3.15004e-14
3.83554e-14
4.22077e-14
3.92682e-14
3.2585e-14
2.55983e-14
2.40111e-14
2.7067e-14
2.41092e-14
3.08677e-14
3.14561e-14
2.51187e-14
2.79957e-14
3.41367e-14
3.9325e-14
3.81054e-14
3.41923e-14
4.06855e-14
4.11842e-14
3.90229e-14
3.63104e-14
3.65087e-14
3.55746e-14
3.28118e-14
6.19622e-14
6.72777e-14
8.32774e-14
8.31033e-14
8.59054e-14
9.19532e-14
9.08114e-14
9.00977e-14
8.56581e-14
7.59352e-14
7.36888e-14
7.11538e-14
6.66124e-14
5.56379e-14
4.80555e-14
4.8681e-14
4.27736e-14
3.58524e-14
3.8672e-14
2.57841e-14
2.96994e-14
3.1462e-14
4.29033e-14
4.27168e-14
3.53646e-14
3.49449e-14
3.53857e-14
3.48269e-14
3.45683e-14
3.72979e-14
3.81696e-14
3.67148e-14
3.49187e-14
3.38726e-14
3.10072e-14
2.7804e-14
2.43106e-14
2.31756e-14
1.9403e-14
2.13835e-14
3.48645e-14
3.94881e-14
3.83922e-14
4.54283e-14
5.28676e-14
4.42121e-14
3.28111e-14
3.03093e-14
2.55065e-14
2.82747e-14
2.72812e-14
2.30357e-14
2.02549e-14
2.38713e-14
2.67479e-14
3.16205e-14
2.84913e-14
2.40752e-14
2.46433e-14
2.86325e-14
2.70489e-14
2.96881e-14
3.39682e-14
3.19313e-14
3.70803e-14
3.81315e-14
3.55869e-14
2.93268e-14
3.29844e-14
3.25797e-14
3.00904e-14
3.21831e-14
3.06491e-14
3.15973e-14
2.98383e-14
3.39217e-14
3.79233e-14
3.79534e-14
3.28462e-14
3.12516e-14
2.74679e-14
3.1301e-14
3.4241e-14
3.62001e-14
3.69594e-14
3.04393e-14
3.00683e-14
3.20606e-14
2.97365e-14
2.81429e-14
2.67273e-14
2.07788e-14
1.8325e-14
2.68696e-14
4.12069e-14
4.76504e-14
4.8727e-14
5.28914e-14
5.01048e-14
4.7e-14
4.27143e-14
3.97645e-14
3.95707e-14
3.24638e-14
6.65003e-14
7.98896e-14
8.55001e-14
8.3304e-14
8.83505e-14
9.30162e-14
9.18959e-14
8.10829e-14
7.35273e-14
7.79097e-14
7.24429e-14
6.23719e-14
5.75115e-14
5.30361e-14
5.27628e-14
4.59951e-14
3.81345e-14
3.59709e-14
3.03895e-14
2.80091e-14
3.4831e-14
3.44627e-14
3.59588e-14
3.31916e-14
2.93729e-14
3.03658e-14
3.14843e-14
3.29611e-14
3.04952e-14
3.29325e-14
2.86425e-14
2.89223e-14
2.70139e-14
2.43564e-14
2.37648e-14
1.81818e-14
1.77618e-14
1.28797e-14
1.00712e-14
1.21701e-14
2.48987e-14
3.13913e-14
3.14805e-14
3.66305e-14
4.31138e-14
3.89511e-14
3.08498e-14
2.60994e-14
2.14155e-14
2.65726e-14
2.51976e-14
2.28251e-14
2.23375e-14
1.41796e-14
1.83331e-14
2.31831e-14
3.18699e-14
3.07261e-14
2.60257e-14
2.39169e-14
2.25518e-14
2.41704e-14
2.65238e-14
3.19415e-14
3.05851e-14
3.16161e-14
2.92723e-14
3.15547e-14
3.37586e-14
3.25867e-14
3.04305e-14
3.00096e-14
2.66669e-14
2.34047e-14
2.85785e-14
3.45049e-14
3.65155e-14
3.12498e-14
2.5828e-14
2.03528e-14
2.64185e-14
2.20984e-14
2.72192e-14
2.95268e-14
3.51278e-14
2.81018e-14
2.6986e-14
2.13847e-14
2.59436e-14
2.22429e-14
1.7705e-14
1.47878e-14
8.50389e-15
1.51324e-14
2.7974e-14
4.23094e-14
4.7544e-14
4.33311e-14
3.77684e-14
3.78509e-14
7.83976e-14
7.95889e-14
8.46126e-14
8.67512e-14
8.38271e-14
9.27827e-14
9.67663e-14
8.38865e-14
7.41794e-14
7.01452e-14
6.4758e-14
6.28948e-14
6.18186e-14
6.03021e-14
5.4042e-14
4.05129e-14
3.88999e-14
3.84611e-14
3.52293e-14
4.18823e-14
4.40277e-14
3.96739e-14
3.66478e-14
3.20658e-14
2.80274e-14
2.7821e-14
2.86931e-14
2.47957e-14
2.58788e-14
3.10939e-14
2.151e-14
2.20154e-14
2.10334e-14
1.85681e-14
1.2925e-14
9.42829e-15
9.11657e-15
1.16487e-14
1.49825e-14
1.63496e-14
2.01867e-14
1.54306e-14
2.34929e-14
2.61805e-14
2.33516e-14
2.41399e-14
2.41417e-14
2.48074e-14
2.01802e-14
1.74575e-14
1.54656e-14
1.321e-14
1.6222e-14
1.1342e-14
1.35755e-14
2.68306e-14
3.60832e-14
3.82582e-14
2.64166e-14
1.32235e-14
2.00958e-14
3.17567e-14
2.82561e-14
2.62586e-14
2.14839e-14
2.36986e-14
1.72493e-14
1.98127e-14
2.00836e-14
1.64131e-14
1.07547e-14
1.07366e-14
1.91291e-14
2.49885e-14
2.41921e-14
2.60982e-14
2.49478e-14
1.55385e-14
1.83399e-14
1.53029e-14
1.67078e-14
1.56092e-14
1.77535e-14
1.60237e-14
2.04614e-14
1.80515e-14
8.32206e-15
1.04563e-14
1.27234e-14
6.72599e-15
6.28414e-15
1.17451e-14
1.39658e-14
1.39707e-14
1.55451e-14
2.62424e-14
3.68146e-14
4.05334e-14
3.51748e-14
3.17287e-14
7.48813e-14
8.5703e-14
8.58883e-14
7.93585e-14
8.5637e-14
1.00902e-13
9.47664e-14
8.16658e-14
7.65743e-14
6.81155e-14
6.09821e-14
5.90626e-14
6.56134e-14
6.51406e-14
5.0953e-14
3.72356e-14
3.63122e-14
3.35147e-14
3.55696e-14
3.43985e-14
4.15507e-14
3.47534e-14
2.81364e-14
3.07652e-14
3.14424e-14
3.05848e-14
2.33119e-14
1.68955e-14
2.31718e-14
3.25632e-14
2.71029e-14
2.89307e-14
2.59984e-14
2.98534e-14
2.33509e-14
1.42187e-14
1.05535e-14
1.3256e-14
2.58168e-14
2.03186e-14
1.70604e-14
1.54367e-14
1.32138e-14
7.09547e-15
1.96787e-14
2.84177e-14
3.21045e-14
2.85595e-14
2.97096e-14
2.9456e-14
2.7445e-14
2.81009e-14
2.44946e-14
2.24415e-14
2.79503e-14
3.18883e-14
3.71603e-14
3.17084e-14
2.29746e-14
7.5302e-15
2.11743e-14
2.93927e-14
1.91111e-14
1.11659e-14
5.78294e-15
1.182e-14
1.52242e-14
1.88857e-14
1.92914e-14
1.69999e-14
1.03536e-14
1.93951e-14
2.35101e-14
1.99784e-14
1.62958e-14
1.96926e-14
1.00902e-14
8.14342e-15
6.16743e-15
6.01177e-15
5.80006e-15
6.3228e-15
1.69178e-14
8.80343e-15
9.3273e-15
2.14259e-14
1.99155e-14
2.57535e-14
9.49813e-15
1.37573e-14
1.25934e-14
1.50528e-14
1.01532e-14
1.20281e-14
1.93565e-14
2.39436e-14
2.48227e-14
3.70148e-14
3.0588e-14
2.60021e-14
7.74383e-14
8.54354e-14
8.94138e-14
9.31569e-14
9.56933e-14
9.8372e-14
1.02545e-13
9.1038e-14
7.18866e-14
6.30488e-14
5.7221e-14
5.71761e-14
5.77411e-14
5.51895e-14
4.30356e-14
3.19162e-14
3.66864e-14
4.48767e-14
3.59417e-14
2.46462e-14
2.75772e-14
3.04613e-14
2.37313e-14
2.6138e-14
2.6422e-14
3.04151e-14
2.97933e-14
2.22585e-14
2.39285e-14
2.99365e-14
3.03916e-14
2.82425e-14
1.99928e-14
1.85209e-14
1.25522e-14
1.70822e-14
9.36794e-15
1.34248e-14
1.75482e-14
2.54939e-14
3.05846e-14
2.96177e-14
3.29487e-14
2.88441e-14
3.10272e-14
3.01682e-14
2.80341e-14
3.52784e-14
4.25164e-14
3.95137e-14
3.97536e-14
3.84423e-14
4.06926e-14
3.5509e-14
3.51111e-14
4.1327e-14
4.69568e-14
3.02846e-14
9.88134e-15
6.50376e-15
5.11982e-15
1.3669e-14
9.33335e-15
1.29123e-14
5.23679e-15
1.44125e-14
1.28491e-14
1.92344e-14
3.12455e-14
1.8041e-14
1.17966e-14
2.07591e-14
1.8699e-14
1.4406e-14
2.0908e-14
1.90822e-14
7.92624e-15
1.20489e-14
1.04022e-14
2.17956e-15
8.92295e-15
7.81162e-15
5.09446e-15
1.01228e-14
5.45772e-15
1.44367e-14
1.39706e-14
2.32058e-14
2.08237e-14
1.43795e-14
7.41295e-15
4.06436e-15
1.16284e-14
9.88859e-14
9.43438e-14
9.66569e-14
1.02852e-13
1.00845e-13
1.05437e-13
1.08938e-13
9.08297e-14
7.41346e-14
6.51104e-14
7.05465e-14
7.22074e-14
6.52307e-14
4.91049e-14
4.19046e-14
4.60079e-14
4.06355e-14
3.62946e-14
2.58637e-14
2.50381e-14
3.59126e-14
4.25547e-14
3.60158e-14
4.37694e-14
4.47981e-14
3.72329e-14
3.00536e-14
3.0097e-14
3.40938e-14
3.18212e-14
3.3379e-14
3.29178e-14
3.74355e-14
3.34613e-14
3.29758e-14
2.21713e-14
1.67182e-14
2.63002e-14
2.96049e-14
3.0172e-14
2.35031e-14
2.4467e-14
2.60338e-14
1.86354e-14
1.02977e-14
2.43594e-14
3.8739e-14
4.28023e-14
4.55393e-14
4.28415e-14
4.53421e-14
4.66866e-14
4.50493e-14
4.31993e-14
4.49511e-14
4.59976e-14
3.94506e-14
3.17763e-14
1.62645e-14
2.27542e-14
1.65271e-14
2.22286e-14
2.37855e-14
1.94758e-14
1.48542e-14
2.46099e-14
3.11367e-14
3.35685e-14
3.08291e-14
2.90387e-14
3.79207e-14
4.2479e-14
3.14005e-14
3.52705e-14
3.41579e-14
2.64725e-14
1.80026e-14
2.06019e-14
3.45057e-14
3.63086e-14
2.80367e-14
2.77416e-14
3.12705e-14
3.50869e-14
2.715e-14
3.6041e-14
3.71491e-14
4.5224e-14
3.88675e-14
3.94621e-14
3.29345e-14
2.58678e-14
1.32219e-14
1.11854e-13
1.06059e-13
1.09842e-13
1.0784e-13
1.06628e-13
1.10348e-13
9.63612e-14
7.78395e-14
7.59108e-14
7.4121e-14
7.68769e-14
7.76937e-14
6.71291e-14
5.5787e-14
5.94327e-14
4.87253e-14
4.02957e-14
4.0136e-14
4.20869e-14
5.23536e-14
4.72115e-14
3.93814e-14
3.65077e-14
4.07069e-14
4.22514e-14
4.47349e-14
4.41212e-14
4.00365e-14
3.75796e-14
3.58493e-14
4.22489e-14
4.27129e-14
3.65891e-14
3.0251e-14
2.98075e-14
3.20914e-14
3.25907e-14
2.86452e-14
2.958e-14
3.20599e-14
3.62142e-14
3.541e-14
3.83257e-14
3.41829e-14
2.42893e-14
3.22545e-14
4.17025e-14
5.8474e-14
5.62986e-14
6.35947e-14
6.6367e-14
6.59514e-14
5.98913e-14
6.08013e-14
6.40044e-14
6.44622e-14
5.24797e-14
3.72478e-14
2.3957e-14
2.53862e-14
2.99386e-14
4.27506e-14
4.86489e-14
4.25893e-14
3.21711e-14
2.77159e-14
4.20903e-14
5.11415e-14
5.04332e-14
5.48047e-14
5.88186e-14
4.96212e-14
3.96597e-14
4.14753e-14
3.75339e-14
3.42138e-14
3.30712e-14
3.84961e-14
3.8669e-14
4.12161e-14
4.29871e-14
4.53731e-14
4.53708e-14
4.10084e-14
3.89014e-14
3.54343e-14
4.04761e-14
4.59638e-14
4.81642e-14
5.00238e-14
4.46795e-14
4.34828e-14
3.0326e-14
1.1212e-13
1.07885e-13
1.07556e-13
1.05686e-13
1.04426e-13
1.02387e-13
8.89108e-14
7.56275e-14
7.68682e-14
7.41028e-14
6.83888e-14
6.92126e-14
6.4266e-14
4.95134e-14
4.82679e-14
3.97341e-14
3.44845e-14
3.4755e-14
3.41252e-14
3.29859e-14
2.28711e-14
1.61773e-14
1.69924e-14
1.68055e-14
1.76432e-14
2.05677e-14
2.41663e-14
2.77788e-14
2.29882e-14
1.9746e-14
1.97571e-14
2.18687e-14
2.0196e-14
2.26146e-14
1.86592e-14
1.97986e-14
1.382e-14
9.71775e-15
1.60473e-14
2.26692e-14
3.10601e-14
3.95022e-14
3.47096e-14
2.99454e-14
1.74796e-14
1.16223e-14
1.63315e-14
2.73265e-14
3.27806e-14
3.66809e-14
3.49509e-14
3.45376e-14
3.37148e-14
3.07529e-14
3.10207e-14
3.69653e-14
3.25186e-14
2.27659e-14
1.10733e-14
5.44092e-15
1.19984e-14
1.98241e-14
2.11921e-14
1.89962e-14
1.23906e-14
1.15536e-14
1.85133e-14
2.55021e-14
2.80682e-14
2.68134e-14
2.69836e-14
1.85043e-14
2.48793e-14
3.20062e-14
2.80682e-14
3.04885e-14
2.1765e-14
1.49101e-14
9.45217e-15
1.22463e-14
2.05291e-14
2.61659e-14
2.42783e-14
1.66969e-14
1.81006e-14
1.48412e-14
3.27532e-14
4.05317e-14
4.29068e-14
4.85993e-14
4.46427e-14
4.63135e-14
1.05145e-13
1.06437e-13
1.09648e-13
1.10871e-13
1.10468e-13
1.01477e-13
9.75063e-14
8.60045e-14
7.84695e-14
6.64994e-14
6.15599e-14
6.20476e-14
5.73352e-14
4.88564e-14
3.75002e-14
2.72992e-14
2.71176e-14
2.46968e-14
2.10865e-14
2.20126e-14
2.31511e-14
2.55682e-14
2.60252e-14
2.72325e-14
2.28329e-14
1.84434e-14
1.94755e-14
1.6924e-14
1.909e-14
1.91906e-14
1.93244e-14
2.19105e-14
2.12286e-14
2.03558e-14
2.12845e-14
2.18867e-14
2.42622e-14
2.60382e-14
2.38498e-14
2.51042e-14
2.53571e-14
2.95058e-14
2.84251e-14
2.86534e-14
2.5864e-14
2.65496e-14
2.71288e-14
2.30234e-14
1.73031e-14
2.03164e-14
2.10656e-14
2.22852e-14
2.40343e-14
2.63603e-14
2.35529e-14
3.3505e-14
3.71714e-14
3.79107e-14
3.54526e-14
3.16665e-14
3.22624e-14
3.35995e-14
3.11439e-14
2.94801e-14
2.75985e-14
2.36324e-14
2.12297e-14
2.02972e-14
1.54143e-14
1.91347e-14
2.35095e-14
2.59307e-14
2.15525e-14
2.03965e-14
2.08444e-14
2.1167e-14
1.75976e-14
2.0794e-14
2.49056e-14
2.6105e-14
2.53371e-14
2.56599e-14
2.3834e-14
2.34918e-14
1.4941e-14
1.34489e-14
1.9862e-14
2.47812e-14
3.08621e-14
3.46836e-14
3.33525e-14
3.4052e-14
1.1001e-13
1.0964e-13
1.09713e-13
1.05912e-13
1.05982e-13
1.02306e-13
9.49232e-14
9.2465e-14
9.19441e-14
8.06137e-14
6.82353e-14
5.80151e-14
5.79296e-14
4.91885e-14
4.75265e-14
4.42308e-14
4.84951e-14
5.29975e-14
4.65428e-14
5.30911e-14
5.4704e-14
5.79563e-14
5.48993e-14
5.98287e-14
5.39819e-14
4.54795e-14
4.95391e-14
4.63162e-14
4.83637e-14
4.8886e-14
4.76096e-14
5.23629e-14
5.21238e-14
5.16603e-14
4.94076e-14
4.58967e-14
5.24001e-14
4.63785e-14
4.20068e-14
4.42971e-14
4.78217e-14
5.35118e-14
5.46254e-14
4.90983e-14
4.95837e-14
5.69558e-14
5.69782e-14
5.46779e-14
5.01725e-14
5.4079e-14
5.42688e-14
5.74209e-14
5.61864e-14
5.98316e-14
5.23279e-14
6.86806e-14
7.12545e-14
7.21597e-14
6.48021e-14
5.77319e-14
6.28125e-14
6.60043e-14
6.24148e-14
6.07176e-14
5.86051e-14
5.87905e-14
5.47082e-14
5.45988e-14
4.81282e-14
4.88053e-14
5.42123e-14
5.63148e-14
5.2664e-14
4.62708e-14
5.38575e-14
5.29485e-14
4.55402e-14
4.6853e-14
5.0451e-14
5.10118e-14
5.57281e-14
5.87467e-14
5.52014e-14
4.79659e-14
4.16492e-14
4.22329e-14
5.01853e-14
5.06335e-14
5.21798e-14
5.9972e-14
6.14212e-14
8.4664e-14
9.96645e-14
9.64847e-14
9.94824e-14
1.09136e-13
1.14151e-13
1.0086e-13
8.3372e-14
9.67515e-14
8.82959e-14
7.3185e-14
5.54555e-14
4.50985e-14
4.11928e-14
4.23199e-14
4.93555e-14
4.80798e-14
5.62611e-14
6.16831e-14
5.90913e-14
6.45206e-14
6.39527e-14
6.1439e-14
5.77668e-14
5.41228e-14
4.71172e-14
3.65158e-14
3.05905e-14
3.07756e-14
3.90207e-14
4.84742e-14
5.04872e-14
5.20805e-14
4.34549e-14
4.29517e-14
3.85744e-14
4.86789e-14
4.87229e-14
5.16625e-14
5.43371e-14
5.91066e-14
5.19107e-14
4.81373e-14
5.18633e-14
5.60368e-14
5.26149e-14
4.54122e-14
4.78534e-14
4.72211e-14
4.39108e-14
4.92249e-14
5.3469e-14
6.43826e-14
5.82808e-14
6.37605e-14
6.44049e-14
5.91036e-14
6.2109e-14
6.17008e-14
5.70627e-14
5.50245e-14
5.29371e-14
5.36815e-14
5.15312e-14
5.67356e-14
5.07333e-14
4.64468e-14
5.38557e-14
5.84829e-14
4.83321e-14
3.97485e-14
3.6803e-14
4.53473e-14
4.39936e-14
4.49325e-14
4.88083e-14
4.79569e-14
3.62961e-14
2.69946e-14
3.18214e-14
4.85205e-14
4.59748e-14
5.07743e-14
5.0336e-14
5.11957e-14
5.2707e-14
4.60277e-14
4.31485e-14
4.99584e-14
5.06702e-14
5.09908e-14
7.63744e-14
9.16235e-14
9.90189e-14
1.03741e-13
1.099e-13
1.08479e-13
9.97125e-14
9.93826e-14
9.70658e-14
8.10808e-14
7.47936e-14
5.36001e-14
3.48297e-14
1.94468e-14
1.50243e-14
2.104e-14
2.3411e-14
2.86665e-14
3.04938e-14
2.8925e-14
3.42497e-14
3.8313e-14
4.3484e-14
5.05952e-14
3.59441e-14
1.98262e-14
1.25083e-14
3.83211e-15
1.89921e-14
2.26301e-14
1.79498e-14
2.8531e-14
3.03885e-14
3.18136e-14
1.91214e-14
2.01756e-14
1.77496e-14
2.03007e-14
3.51474e-14
4.28894e-14
3.74565e-14
2.57679e-14
2.41103e-14
2.40929e-14
2.2896e-14
2.72408e-14
3.36668e-14
3.53177e-14
3.37616e-14
3.27613e-14
4.38338e-14
3.93037e-14
3.70508e-14
3.24431e-14
2.48331e-14
1.79866e-14
9.32131e-15
6.30828e-15
1.10854e-14
1.44164e-14
1.15799e-14
1.47363e-14
1.55186e-14
1.24604e-14
1.23299e-14
2.26264e-14
2.42848e-14
2.54178e-14
3.18214e-14
2.55167e-14
1.06384e-14
7.5642e-15
9.7341e-15
9.94112e-15
4.36603e-15
1.71007e-14
2.27293e-14
3.0462e-14
1.97858e-14
1.70485e-14
3.18785e-14
2.35387e-14
2.1624e-14
2.1183e-14
2.94039e-14
3.59655e-14
2.056e-14
2.04496e-14
1.99952e-14
2.60061e-14
3.49383e-14
1.16389e-13
1.2235e-13
1.35364e-13
1.35958e-13
1.31952e-13
1.20485e-13
1.09133e-13
1.03692e-13
8.78137e-14
7.29729e-14
7.05409e-14
5.21355e-14
3.7242e-14
3.02067e-14
3.58325e-14
4.02417e-14
4.56841e-14
4.47973e-14
4.73509e-14
4.5906e-14
4.36387e-14
3.99516e-14
4.0238e-14
3.96812e-14
3.00214e-14
2.75185e-14
2.79515e-14
1.97128e-14
2.4428e-14
1.88207e-14
2.30261e-14
2.84398e-14
3.77911e-14
2.51027e-14
1.17084e-14
1.15973e-14
2.1143e-14
2.01524e-14
1.93783e-14
2.42274e-14
2.74603e-14
2.50379e-14
2.64987e-14
3.49015e-14
4.58451e-14
5.17783e-14
5.73422e-14
5.53795e-14
5.16378e-14
4.47325e-14
4.92874e-14
4.72559e-14
5.17763e-14
5.03065e-14
4.36479e-14
4.31218e-14
4.37554e-14
4.15139e-14
4.60696e-14
4.72746e-14
5.08888e-14
4.85025e-14
4.76757e-14
4.80546e-14
5.01069e-14
4.6081e-14
3.81606e-14
3.61969e-14
3.9767e-14
3.56697e-14
3.10182e-14
3.27276e-14
3.80349e-14
3.5315e-14
4.00377e-14
4.18411e-14
3.53842e-14
2.41966e-14
1.85038e-14
2.16368e-14
3.4484e-14
3.46099e-14
3.65638e-14
4.10999e-14
4.17107e-14
3.49457e-14
2.85062e-14
3.03202e-14
3.82004e-14
3.92309e-14
4.26002e-14
1.50144e-13
1.43598e-13
1.35493e-13
1.27082e-13
1.2175e-13
1.10584e-13
9.75348e-14
9.30156e-14
8.48029e-14
7.46081e-14
5.6056e-14
3.93518e-14
3.58849e-14
4.26737e-14
4.88826e-14
4.93243e-14
4.91833e-14
4.99176e-14
4.95831e-14
4.8759e-14
5.4127e-14
5.78037e-14
5.79392e-14
5.36714e-14
4.83186e-14
4.91775e-14
4.23206e-14
3.10264e-14
3.37144e-14
3.58839e-14
3.50714e-14
4.14032e-14
4.38765e-14
3.88404e-14
3.67157e-14
3.93596e-14
3.4417e-14
3.8511e-14
4.24859e-14
5.06508e-14
5.6724e-14
5.23617e-14
5.38999e-14
5.53454e-14
5.46613e-14
5.62552e-14
5.24859e-14
5.33591e-14
5.0845e-14
4.66588e-14
4.53278e-14
4.26635e-14
4.53482e-14
5.28159e-14
5.61714e-14
6.21756e-14
6.54541e-14
6.18795e-14
6.47152e-14
6.29544e-14
6.70075e-14
6.64396e-14
6.48407e-14
6.8855e-14
6.35583e-14
5.9999e-14
5.39417e-14
5.27939e-14
5.40048e-14
5.29674e-14
5.56293e-14
5.72166e-14
5.52028e-14
5.42608e-14
5.75216e-14
5.8915e-14
5.79866e-14
5.41367e-14
5.1229e-14
5.23988e-14
5.74948e-14
5.94232e-14
5.84925e-14
6.07742e-14
5.75052e-14
5.2324e-14
5.02939e-14
5.08548e-14
5.64996e-14
5.52242e-14
5.62421e-14
1.47254e-13
1.44877e-13
1.37935e-13
1.3579e-13
1.218e-13
1.03186e-13
1.00035e-13
9.7353e-14
7.88567e-14
6.19965e-14
4.43246e-14
3.66969e-14
4.19536e-14
4.71425e-14
4.45886e-14
4.69514e-14
4.74439e-14
5.21128e-14
4.76241e-14
4.40669e-14
5.01185e-14
5.24321e-14
5.08169e-14
4.78544e-14
4.77967e-14
4.48385e-14
4.22067e-14
4.49753e-14
4.42861e-14
4.78955e-14
4.6745e-14
4.80012e-14
4.59507e-14
4.57308e-14
4.51667e-14
4.33226e-14
4.20562e-14
4.63311e-14
5.01264e-14
4.86303e-14
4.93533e-14
5.29024e-14
5.41069e-14
5.12457e-14
4.67232e-14
4.66303e-14
4.49105e-14
4.32151e-14
4.38988e-14
4.516e-14
4.43045e-14
4.74111e-14
4.66057e-14
5.21772e-14
5.87374e-14
6.42526e-14
6.53338e-14
6.93975e-14
6.38543e-14
6.05539e-14
6.12037e-14
6.08177e-14
6.51212e-14
6.73025e-14
6.36351e-14
6.04694e-14
6.23019e-14
6.32502e-14
6.04071e-14
6.05767e-14
6.24635e-14
6.11485e-14
5.82931e-14
6.0943e-14
6.06812e-14
5.72147e-14
5.45348e-14
5.69116e-14
5.85901e-14
5.77588e-14
5.63962e-14
6.19587e-14
6.05555e-14
5.75848e-14
5.61737e-14
6.04485e-14
5.63877e-14
5.37356e-14
5.08689e-14
5.68722e-14
5.25888e-14
1.61363e-13
1.42234e-13
1.31551e-13
1.25363e-13
1.22278e-13
1.08808e-13
9.54993e-14
8.508e-14
7.64383e-14
6.49338e-14
5.30498e-14
5.20644e-14
4.40333e-14
3.91437e-14
3.68673e-14
3.90203e-14
3.60513e-14
3.14597e-14
2.20938e-14
1.62242e-14
1.80099e-14
1.79161e-14
1.67494e-14
1.84881e-14
2.04185e-14
1.8858e-14
1.50839e-14
2.0428e-14
2.14496e-14
2.27127e-14
2.32033e-14
2.03693e-14
1.66465e-14
1.66753e-14
1.73746e-14
1.63032e-14
1.78e-14
1.97634e-14
2.20039e-14
2.00558e-14
1.96219e-14
2.27965e-14
2.16e-14
1.94133e-14
1.44654e-14
1.37764e-14
1.43014e-14
1.333e-14
1.63632e-14
1.96112e-14
1.69495e-14
1.92638e-14
2.41649e-14
2.93968e-14
3.21759e-14
3.08131e-14
3.12867e-14
3.64166e-14
3.79997e-14
3.75255e-14
3.38687e-14
3.71815e-14
4.06291e-14
3.85451e-14
3.628e-14
3.61685e-14
4.04258e-14
4.13492e-14
3.9411e-14
3.82688e-14
3.79985e-14
3.44113e-14
3.14764e-14
3.34521e-14
3.26983e-14
3.15618e-14
2.96009e-14
3.25274e-14
3.30043e-14
3.38657e-14
3.04803e-14
3.63962e-14
3.47795e-14
3.2789e-14
3.1413e-14
3.53277e-14
3.48418e-14
3.20073e-14